                               Psi4 1.3.2 release

  ==> Input File <==

--------------------------------------------------------------------------
#psi4
#
memory 32 gb

molecule  {
-1 1
  C        0.2864700    -1.2064390    -0.0000050
  C       -1.1050350    -1.1994800     0.0000040
  C       -1.8315300     0.0000000    -0.0000020
  C       -1.1050350     1.1994800     0.0000050
  C        0.3076465     1.2201447    -0.0000053
  C        1.0822590     0.0000000    -0.0000150
  O        2.3571420     0.0000000     0.0000100
  H        0.8322390    -2.1510540     0.0000040
  H       -1.6412820    -2.1526450     0.0000040
  H       -2.9206450    -0.0000010     0.0000130
  H       -1.6412830     2.1526450     0.0000060
  H        0.8322370     2.1510550     0.0000020
units angstrom
no_reorient  #important for SAPT in psi4, default
symmetry c1  #important for SAPT in psi4, default
}

set PROPERTIES_ORIGIN ["COM"]
properties('MP2/aug-cc-pvtz', properties = ['dipole'])
--------------------------------------------------------------------------

    Molecular point group: c1
  Charge       = -1
  Multiplicity = 1
  Basis Set: AUG-CC-PVTZ
    Blend: AUG-CC-PVTZ
  Basis Set: (AUG-CC-PVTZ AUX)
    Blend: AUG-CC-PVTZ-JKFIT

    Orbital Energies [Eh]
    ---------------------

    Doubly Occupied:

       1A    -20.288184     2A    -11.107594     3A    -11.079938
       4A    -11.078203     5A    -11.051671     6A    -11.042155
       7A    -11.040519     8A     -1.113729     9A     -0.951418
      10A     -0.833446    11A     -0.796152    12A     -0.647275
      13A     -0.618575    14A     -0.513573    15A     -0.459506
      16A     -0.451937    17A     -0.407514    18A     -0.390570
      19A     -0.347362    20A     -0.335121    21A     -0.326985
      22A     -0.268277    23A     -0.196592    24A     -0.170771
      25A     -0.089088

  @DF-RHF Final Energy:  -305.08845798720671

   => Energetics <=

    Nuclear Repulsion Energy =            258.6630048024746884
    One-Electron Energy =                -936.2906161453045115
    Two-Electron Energy =                 372.5391533556231138
    Total Energy =                       -305.0884579872067093
  Basis Set: (AUG-CC-PVTZ AUX)
    Blend: AUG-CC-PVTZ-RI
    Molecular point group: c1

    Geometry (in Angstrom), charge = -1, multiplicity = 1:

       Center              X                  Y                   Z               Mass
    ------------   -----------------  -----------------  -----------------  -----------------
         C            0.235463494128    -1.208206830360    -0.000004672981    12.000000000000
         C           -1.156041505872    -1.201247830360     0.000004327019    12.000000000000
         C           -1.882536505872    -0.001767830360    -0.000001672981    12.000000000000
         C           -1.156041505872     1.197712169640     0.000005327019    12.000000000000
         C            0.256639994128     1.218376869640    -0.000004972981    12.000000000000
         C            1.031252494128    -0.001767830360    -0.000014672981    12.000000000000
         O            2.306135494128    -0.001767830360     0.000010327019    15.994914619570
         H            0.781232494128    -2.152821830360     0.000004327019     1.007825032230
         H           -1.692288505872    -2.154412830360     0.000004327019     1.007825032230
         H           -2.971651505872    -0.001768830360     0.000013327019     1.007825032230
         H           -1.692289505872     2.150877169640     0.000006327019     1.007825032230
         H            0.781230494128     2.149287169640     0.000002327019     1.007825032230

  Basis Set: AUG-CC-PVTZ
    Blend: AUG-CC-PVTZ
  Basis Set: (AUG-CC-PVTZ AUX)
    Blend: AUG-CC-PVTZ-JKFIT
	 Reference Energy          =    -305.0884579872067093 [Eh]
	 Singles Energy            =      -0.0000000000000000 [Eh]
	 Same-Spin Energy          =      -0.3336433561625494 [Eh]
	 Opposite-Spin Energy      =      -1.0140800267569494 [Eh]
	 Correlation Energy        =      -1.3477233829194988 [Eh]
	 Total Energy              =    -306.4361813701262349 [Eh]

	 ================> DF-SCS-MP2 Energies <==================
	-----------------------------------------------------------
	 SCS Same-Spin Scale       =       0.3333333333333333 [-]
	 SCS Opposite-Spin Scale   =       1.2000000000000000 [-]
	 SCS Same-Spin Energy      =      -0.1112144520541831 [Eh]
	 SCS Opposite-Spin Energy  =      -1.2168960321083393 [Eh]
	 SCS Correlation Energy    =      -1.3281104841625224 [Eh]
	 SCS Total Energy          =    -306.4165684713692599 [Eh]
	-----------------------------------------------------------

  Dipole Moment: [D]
     X:    -4.2877      Y:    -0.0063      Z:     0.0000     Total:     4.2877

*** Psi4 exiting successfully. Buy a developer a beer!
