                               Psi4 1.3.2 release

  ==> Input File <==

--------------------------------------------------------------------------
#psi4
#
memory 32 gb

molecule  {
-1 1
  C        0.2864700    -1.2064390    -0.0000050
  C       -1.1050350    -1.1994800     0.0000040
  C       -1.8315300     0.0000000    -0.0000020
  C       -1.1050350     1.1994800     0.0000050
  C        0.2864700     1.2064400    -0.0000060
  C        1.0822590     0.0000000    -0.0000150
  O        2.3571420     0.0000000     0.0000100
  H        0.8322390    -2.1510540     0.0000040
  H       -1.6412820    -2.1526450     0.0000040
  H       -2.9206450    -0.0000010     0.0000130
  H       -1.6412830     2.1526450     0.0000060
  H        0.8322370     2.1510550     0.0000020
units angstrom
no_reorient  #important for SAPT in psi4, default
symmetry c1  #important for SAPT in psi4, default
}

set PROPERTIES_ORIGIN ["COM"]
properties('MP2/aug-cc-pvtz', properties = ['dipole'])
--------------------------------------------------------------------------

    Molecular point group: c1
  Charge       = -1
  Multiplicity = 1
  Basis Set: AUG-CC-PVTZ
    Blend: AUG-CC-PVTZ
  Basis Set: (AUG-CC-PVTZ AUX)
    Blend: AUG-CC-PVTZ-JKFIT

    Orbital Energies [Eh]
    ---------------------

    Doubly Occupied:

       1A    -20.289561     2A    -11.108074     3A    -11.077634
       4A    -11.077621     5A    -11.050872     6A    -11.041085
       7A    -11.041075     8A     -1.114314     9A     -0.953528
      10A     -0.835428    11A     -0.796156    12A     -0.645104
      13A     -0.620329    14A     -0.513193    15A     -0.456718
      16A     -0.453649    17A     -0.407458    18A     -0.389995
      19A     -0.348580    20A     -0.336914    21A     -0.323252
      22A     -0.269042    23A     -0.197243    24A     -0.172944
      25A     -0.089067

  @DF-RHF Final Energy:  -305.08924935053091

   => Energetics <=

    Nuclear Repulsion Energy =            258.9612306356472686
    One-Electron Energy =                -936.8832906439567978
    Two-Electron Energy =                 372.8328106577785661
    Total Energy =                       -305.0892493505309062
  Basis Set: (AUG-CC-PVTZ AUX)
    Blend: AUG-CC-PVTZ-RI
    Molecular point group: c1

    Geometry (in Angstrom), charge = -1, multiplicity = 1:

       Center              X                  Y                   Z               Mass
    ------------   -----------------  -----------------  -----------------  -----------------
         C            0.238194945977    -1.206439128985    -0.000004582691    12.000000000000
         C           -1.153310054023    -1.199480128985     0.000004417309    12.000000000000
         C           -1.879805054023    -0.000000128985    -0.000001582691    12.000000000000
         C           -1.153310054023     1.199479871015     0.000005417309    12.000000000000
         C            0.238194945977     1.206439871015    -0.000005582691    12.000000000000
         C            1.033983945977    -0.000000128985    -0.000014582691    12.000000000000
         O            2.308866945977    -0.000000128985     0.000010417309    15.994914619570
         H            0.783963945977    -2.151054128985     0.000004417309     1.007825032230
         H           -1.689557054023    -2.152645128985     0.000004417309     1.007825032230
         H           -2.968920054023    -0.000001128985     0.000013417309     1.007825032230
         H           -1.689558054023     2.152644871015     0.000006417309     1.007825032230
         H            0.783961945977     2.151054871015     0.000002417309     1.007825032230

  Basis Set: AUG-CC-PVTZ
    Blend: AUG-CC-PVTZ
  Basis Set: (AUG-CC-PVTZ AUX)
    Blend: AUG-CC-PVTZ-JKFIT
	 Reference Energy          =    -305.0892493505309062 [Eh]
	 Singles Energy            =      -0.0000000000000000 [Eh]
	 Same-Spin Energy          =      -0.3337187130164834 [Eh]
	 Opposite-Spin Energy      =      -1.0140130739356645 [Eh]
	 Correlation Energy        =      -1.3477317869521479 [Eh]
	 Total Energy              =    -306.4369811374830306 [Eh]

	 ================> DF-SCS-MP2 Energies <==================
	-----------------------------------------------------------
	 SCS Same-Spin Scale       =       0.3333333333333333 [-]
	 SCS Opposite-Spin Scale   =       1.2000000000000000 [-]
	 SCS Same-Spin Energy      =      -0.1112395710054945 [Eh]
	 SCS Opposite-Spin Energy  =      -1.2168156887227974 [Eh]
	 SCS Correlation Energy    =      -1.3280552597282920 [Eh]
	 SCS Total Energy          =    -306.4173046102591798 [Eh]
	-----------------------------------------------------------

  Dipole Moment: [D]
     X:    -4.2898      Y:     0.0000      Z:     0.0000     Total:     4.2898

*** Psi4 exiting successfully. Buy a developer a beer!
