                               Psi4 1.3.2 release

  ==> Input File <==

--------------------------------------------------------------------------
#psi4
#
memory 32 gb

molecule  {
-1 1
  C        0.2864700    -1.2064390    -0.0000050
  C       -1.1050350    -1.1994800     0.0000040
  C       -1.8315300     0.0000000    -0.0000020
  C       -1.1050350     1.1994800     0.0000050
  C        0.2448506     1.1779324    -0.0000074
  C        1.0822590     0.0000000    -0.0000150
  O        2.3571420     0.0000000     0.0000100
  H        0.8322390    -2.1510540     0.0000040
  H       -1.6412820    -2.1526450     0.0000040
  H       -2.9206450    -0.0000010     0.0000130
  H       -1.6412830     2.1526450     0.0000060
  H        0.8322370     2.1510550     0.0000020
units angstrom
no_reorient  #important for SAPT in psi4, default
symmetry c1  #important for SAPT in psi4, default
}

set PROPERTIES_ORIGIN ["COM"]
properties('MP2/aug-cc-pvtz', properties = ['dipole'])
--------------------------------------------------------------------------

    Molecular point group: c1
  Charge       = -1
  Multiplicity = 1
  Basis Set: AUG-CC-PVTZ
    Blend: AUG-CC-PVTZ
  Basis Set: (AUG-CC-PVTZ AUX)
    Blend: AUG-CC-PVTZ-JKFIT

    Orbital Energies [Eh]
    ---------------------

    Doubly Occupied:

       1A    -20.292370     2A    -11.109344     3A    -11.076615
       4A    -11.072918     5A    -11.049451     6A    -11.042333
       7A    -11.039123     8A     -1.115601     9A     -0.958556
      10A     -0.839584    11A     -0.796250    12A     -0.641187
      13A     -0.624091    14A     -0.513201    15A     -0.457707
      16A     -0.451723    17A     -0.407005    18A     -0.388745
      19A     -0.351381    20A     -0.340181    21A     -0.314245
      22A     -0.270904    23A     -0.198241    24A     -0.177437
      25A     -0.089068

  @DF-RHF Final Energy:  -305.08563453832687

   => Energetics <=

    Nuclear Repulsion Energy =            259.5856749436526911
    One-Electron Energy =                -938.1080966129943590
    Two-Electron Energy =                 373.4367871310147393
    Total Energy =                       -305.0856345383268717
  Basis Set: (AUG-CC-PVTZ AUX)
    Blend: AUG-CC-PVTZ-RI
    Molecular point group: c1

    Geometry (in Angstrom), charge = -1, multiplicity = 1:

       Center              X                  Y                   Z               Mass
    ------------   -----------------  -----------------  -----------------  -----------------
         C            0.243563226245    -1.202762074857    -0.000004402112    12.000000000000
         C           -1.147941773755    -1.195803074857     0.000004597888    12.000000000000
         C           -1.874436773755     0.003676925143    -0.000001402112    12.000000000000
         C           -1.147941773755     1.203156925143     0.000005597888    12.000000000000
         C            0.201943826245     1.181609325143    -0.000006802112    12.000000000000
         C            1.039352226245     0.003676925143    -0.000014402112    12.000000000000
         O            2.314235226245     0.003676925143     0.000010597888    15.994914619570
         H            0.789332226245    -2.147377074857     0.000004597888     1.007825032230
         H           -1.684188773755    -2.148968074857     0.000004597888     1.007825032230
         H           -2.963551773755     0.003675925143     0.000013597888     1.007825032230
         H           -1.684189773755     2.156321925143     0.000006597888     1.007825032230
         H            0.789330226245     2.154731925143     0.000002597888     1.007825032230

  Basis Set: AUG-CC-PVTZ
    Blend: AUG-CC-PVTZ
  Basis Set: (AUG-CC-PVTZ AUX)
    Blend: AUG-CC-PVTZ-JKFIT
	 Reference Energy          =    -305.0856345383268717 [Eh]
	 Singles Energy            =      -0.0000000000000000 [Eh]
	 Same-Spin Energy          =      -0.3339493258802604 [Eh]
	 Opposite-Spin Energy      =      -1.0141597225893613 [Eh]
	 Correlation Energy        =      -1.3481090484696217 [Eh]
	 Total Energy              =    -306.4337435867964814 [Eh]

	 ================> DF-SCS-MP2 Energies <==================
	-----------------------------------------------------------
	 SCS Same-Spin Scale       =       0.3333333333333333 [-]
	 SCS Opposite-Spin Scale   =       1.2000000000000000 [-]
	 SCS Same-Spin Energy      =      -0.1113164419600868 [Eh]
	 SCS Opposite-Spin Energy  =      -1.2169916671072334 [Eh]
	 SCS Correlation Energy    =      -1.3283081090673201 [Eh]
	 SCS Total Energy          =    -306.4139426473942081 [Eh]
	-----------------------------------------------------------

  Dipole Moment: [D]
     X:    -4.2989      Y:     0.0001      Z:     0.0000     Total:     4.2989

*** Psi4 exiting successfully. Buy a developer a beer!
