                               Psi4 1.3.2 release

  ==> Input File <==

--------------------------------------------------------------------------
#psi4
#
memory 32 gb

molecule  {
-1 1
  C        0.2864700    -1.2064390    -0.0000050
  C       -1.1050350    -1.1994800     0.0000040
  C       -1.8315300     0.0000000    -0.0000020
  C       -1.1050350     1.1994800     0.0000050
  C        0.2864700     1.2064400    -0.0000060
  C        1.0822590     0.0000000    -0.0000150
  O        2.5571420     0.0000000     0.0000139
  H        0.8322390    -2.1510540     0.0000040
  H       -1.6412820    -2.1526450     0.0000040
  H       -2.9206450    -0.0000010     0.0000130
  H       -1.6412830     2.1526450     0.0000060
  H        0.8322370     2.1510550     0.0000020
units angstrom
no_reorient  #important for SAPT in psi4, default
symmetry c1  #important for SAPT in psi4, default
}

set PROPERTIES_ORIGIN ["COM"]
properties('MP2/aug-cc-pvtz', properties = ['dipole'])
--------------------------------------------------------------------------

    Molecular point group: c1
  Charge       = -1
  Multiplicity = 1
  Basis Set: AUG-CC-PVTZ
    Blend: AUG-CC-PVTZ
  Basis Set: (AUG-CC-PVTZ AUX)
    Blend: AUG-CC-PVTZ-JKFIT

    Orbital Energies [Eh]
    ---------------------

    Doubly Occupied:

       1A    -20.282813     2A    -11.120573     3A    -11.088182
       4A    -11.088155     5A    -11.071386     6A    -11.061020
       7A    -11.061008     8A     -1.015815     9A     -0.960649
      10A     -0.847975    11A     -0.812368    12A     -0.652499
      13A     -0.635995    14A     -0.527327    15A     -0.463677
      16A     -0.453522    17A     -0.419574    18A     -0.384227
      19A     -0.341895    20A     -0.321728    21A     -0.295863
      22A     -0.236915    23A     -0.187478    24A     -0.182531
      25A     -0.109047

  @DF-RHF Final Energy:  -305.04985995679345

   => Energetics <=

    Nuclear Repulsion Energy =            253.6207031243726817
    One-Electron Energy =                -926.0966806915843108
    Two-Electron Energy =                 367.4261176104182027
    Total Energy =                       -305.0498599567934548
  Basis Set: (AUG-CC-PVTZ AUX)
    Blend: AUG-CC-PVTZ-RI
    Molecular point group: c1

    Geometry (in Angstrom), charge = -1, multiplicity = 1:

       Center              X                  Y                   Z               Mass
    ------------   -----------------  -----------------  -----------------  -----------------
         C            0.203809865726    -1.206439128985    -0.000005253200    12.000000000000
         C           -1.187695134274    -1.199480128985     0.000003746800    12.000000000000
         C           -1.914190134274    -0.000000128985    -0.000002253200    12.000000000000
         C           -1.187695134274     1.199479871015     0.000004746800    12.000000000000
         C            0.203809865726     1.206439871015    -0.000006253200    12.000000000000
         C            0.999598865726    -0.000000128985    -0.000015253200    12.000000000000
         O            2.474481865726    -0.000000128985     0.000013646800    15.994914619570
         H            0.749578865726    -2.151054128985     0.000003746800     1.007825032230
         H           -1.723942134274    -2.152645128985     0.000003746800     1.007825032230
         H           -3.003305134274    -0.000001128985     0.000012746800     1.007825032230
         H           -1.723943134274     2.152644871015     0.000005746800     1.007825032230
         H            0.749576865726     2.151054871015     0.000001746800     1.007825032230

  Basis Set: AUG-CC-PVTZ
    Blend: AUG-CC-PVTZ
  Basis Set: (AUG-CC-PVTZ AUX)
    Blend: AUG-CC-PVTZ-JKFIT
	 Reference Energy          =    -305.0498599567934548 [Eh]
	 Singles Energy            =      -0.0000000000000000 [Eh]
	 Same-Spin Energy          =      -0.3360319485702583 [Eh]
	 Opposite-Spin Energy      =      -1.0211343707429568 [Eh]
	 Correlation Energy        =      -1.3571663193132151 [Eh]
	 Total Energy              =    -306.4070262761066488 [Eh]

	 ================> DF-SCS-MP2 Energies <==================
	-----------------------------------------------------------
	 SCS Same-Spin Scale       =       0.3333333333333333 [-]
	 SCS Opposite-Spin Scale   =       1.2000000000000000 [-]
	 SCS Same-Spin Energy      =      -0.1120106495234194 [Eh]
	 SCS Opposite-Spin Energy  =      -1.2253612448915481 [Eh]
	 SCS Correlation Energy    =      -1.3373718944149675 [Eh]
	 SCS Total Energy          =    -306.3872318512084121 [Eh]
	-----------------------------------------------------------

  Dipole Moment: [D]
     X:    -6.3201      Y:     0.0000      Z:    -0.0000     Total:     6.3201

*** Psi4 exiting successfully. Buy a developer a beer!
