                               Psi4 1.3.2 release

  ==> Input File <==

--------------------------------------------------------------------------
#psi4
#
memory 32 gb

molecule  {
-1 1
  C        0.2864700    -1.2064390    -0.0000050
  C       -1.1050350    -1.1994800     0.0000040
  C       -1.8315300     0.0000000    -0.0000020
  C       -1.1050350     1.1994800     0.0000050
  C        0.3725655     1.2590126    -0.0000032
  C        1.0822590     0.0000000    -0.0000150
  O        2.3571420     0.0000000     0.0000100
  H        0.8322390    -2.1510540     0.0000040
  H       -1.6412820    -2.1526450     0.0000040
  H       -2.9206450    -0.0000010     0.0000130
  H       -1.6412830     2.1526450     0.0000060
  H        0.8322370     2.1510550     0.0000020
units angstrom
no_reorient  #important for SAPT in psi4, default
symmetry c1  #important for SAPT in psi4, default
}

set PROPERTIES_ORIGIN ["COM"]
properties('MP2/aug-cc-pvtz', properties = ['dipole'])
--------------------------------------------------------------------------

    Molecular point group: c1
  Charge       = -1
  Multiplicity = 1
  Basis Set: AUG-CC-PVTZ
    Blend: AUG-CC-PVTZ
  Basis Set: (AUG-CC-PVTZ AUX)
    Blend: AUG-CC-PVTZ-JKFIT

    Orbital Energies [Eh]
    ---------------------

    Doubly Occupied:

       1A    -20.284198     2A    -11.106788     3A    -11.086445
       4A    -11.080171     5A    -11.054308     6A    -11.045693
       7A    -11.039080     8A     -1.112245     9A     -0.946541
      10A     -0.828062    11A     -0.796227    12A     -0.654461
      13A     -0.614119    14A     -0.516291    15A     -0.469351
      16A     -0.447983    17A     -0.406119    18A     -0.392044
      19A     -0.344360    20A     -0.338111    21A     -0.326226
      22A     -0.266578    23A     -0.194098    24A     -0.164674
      25A     -0.089179

  @DF-RHF Final Energy:  -305.07565743162058

   => Energetics <=

    Nuclear Repulsion Energy =            257.8266082647933217
    One-Electron Energy =                -934.5978272904716277
    Two-Electron Energy =                 371.6955615940577218
    Total Energy =                       -305.0756574316205842
  Basis Set: (AUG-CC-PVTZ AUX)
    Blend: AUG-CC-PVTZ-RI
    Molecular point group: c1

    Geometry (in Angstrom), charge = -1, multiplicity = 1:

       Center              X                  Y                   Z               Mass
    ------------   -----------------  -----------------  -----------------  -----------------
         C            0.227089913857    -1.213220208271    -0.000004943849    12.000000000000
         C           -1.164415086143    -1.206261208271     0.000004056151    12.000000000000
         C           -1.890910086143    -0.006781208271    -0.000001943849    12.000000000000
         C           -1.164415086143     1.192698791729     0.000005056151    12.000000000000
         C            0.313185413857     1.252231391729    -0.000003143849    12.000000000000
         C            1.022878913857    -0.006781208271    -0.000014943849    12.000000000000
         O            2.297761913857    -0.006781208271     0.000010056151    15.994914619570
         H            0.772858913857    -2.157835208271     0.000004056151     1.007825032230
         H           -1.700662086143    -2.159426208271     0.000004056151     1.007825032230
         H           -2.980025086143    -0.006782208271     0.000013056151     1.007825032230
         H           -1.700663086143     2.145863791729     0.000006056151     1.007825032230
         H            0.772856913857     2.144273791729     0.000002056151     1.007825032230

  Basis Set: AUG-CC-PVTZ
    Blend: AUG-CC-PVTZ
  Basis Set: (AUG-CC-PVTZ AUX)
    Blend: AUG-CC-PVTZ-JKFIT
	 Reference Energy          =    -305.0756574316205842 [Eh]
	 Singles Energy            =      -0.0000000000000000 [Eh]
	 Same-Spin Energy          =      -0.3335681698119999 [Eh]
	 Opposite-Spin Energy      =      -1.0148632466698588 [Eh]
	 Correlation Energy        =      -1.3484314164818587 [Eh]
	 Total Energy              =    -306.4240888481024285 [Eh]

	 ================> DF-SCS-MP2 Energies <==================
	-----------------------------------------------------------
	 SCS Same-Spin Scale       =       0.3333333333333333 [-]
	 SCS Opposite-Spin Scale   =       1.2000000000000000 [-]
	 SCS Same-Spin Energy      =      -0.1111893899373333 [Eh]
	 SCS Opposite-Spin Energy  =      -1.2178358960038305 [Eh]
	 SCS Correlation Energy    =      -1.3290252859411638 [Eh]
	 SCS Total Energy          =    -306.4046827175617409 [Eh]
	-----------------------------------------------------------

  Dipole Moment: [D]
     X:    -4.2876      Y:    -0.0462      Z:     0.0000     Total:     4.2878

*** Psi4 exiting successfully. Buy a developer a beer!
