                               Psi4 1.4a3.dev225

  ==> Input File <==

--------------------------------------------------------------------------
#psi4
#
memory 32 gb

molecule  {
-1 1
  C        0.0000010     0.2878930     1.2051000
  C        0.0000010    -1.1055730     1.2008750
  C        0.0000040    -1.8274530     0.0000000
  C        0.0000010    -1.1055730    -1.2008750
  C        0.0000010     0.2878930    -1.2051000
  C        0.0000030     1.0721960     0.0000000
  O       -0.0000092     2.3802180     0.0000000
  H       -0.0000030     0.8289580     2.1521280
  H        0.0000010    -1.6403820     2.1520340
  H        0.0000030    -2.9151880     0.0000000
  H        0.0000010    -1.6403820    -2.1520340
  H       -0.0000030     0.8289580    -2.1521280
units angstrom
no_reorient  #important for SAPT in psi4, default
symmetry c1  #important for SAPT in psi4, default
}

set PROPERTIES_ORIGIN ["COM"]
properties('MP2/aug-cc-pvtz', properties = ['dipole'])
--------------------------------------------------------------------------

    Molecular point group: c1
  Charge       = -1
  Multiplicity = 1
  Basis Set: AUG-CC-PVTZ
    Blend: AUG-CC-PVTZ
  Basis Set: (AUG-CC-PVTZ AUX)
    Blend: AUG-CC-PVTZ-JKFIT

    Orbital Energies [Eh]
    ---------------------

    Doubly Occupied:

       1A    -20.285313     2A    -11.108400     3A    -11.079117
       4A    -11.079102     5A    -11.054266     6A    -11.044152
       7A    -11.044141     8A     -1.092747     9A     -0.956098
      10A     -0.837946    11A     -0.799867    12A     -0.647527
      13A     -0.623500    14A     -0.515835    15A     -0.458272
      16A     -0.453191    17A     -0.410829    18A     -0.385494
      19A     -0.345718    20A     -0.330935    21A     -0.323847
      22A     -0.263035    23A     -0.195348    24A     -0.174252
      25A     -0.092331

  @DF-RHF Final Energy:  -305.08642145496719

   => Energetics <=

    Nuclear Repulsion Energy =            258.4100438574739655
    One-Electron Energy =                -935.7904046430064682
    Two-Electron Energy =                 372.2939393305653084
    Total Energy =                       -305.0864214549671942
  Basis Set: (AUG-CC-PVTZ AUX)
    Blend: AUG-CC-PVTZ-RI
    Molecular point group: c1

    Geometry (in Angstrom), charge = -1, multiplicity = 1:

       Center              X                  Y                   Z               Mass
    ------------   -----------------  -----------------  -----------------  -----------------
         C            0.000001173711     0.236186835038     1.205100000000    12.000000000000
         C            0.000001173711    -1.157279164962     1.200875000000    12.000000000000
         C            0.000004173711    -1.879159164962     0.000000000000    12.000000000000
         C            0.000001173711    -1.157279164962    -1.200875000000    12.000000000000
         C            0.000001173711     0.236186835038    -1.205100000000    12.000000000000
         C            0.000003173711     1.020489835038     0.000000000000    12.000000000000
         O           -0.000009026289     2.328511835038     0.000000000000    15.994914619570
         H           -0.000002826289     0.777251835038     2.152128000000     1.007825032230
         H            0.000001173711    -1.692088164962     2.152034000000     1.007825032230
         H            0.000003173711    -2.966894164962     0.000000000000     1.007825032230
         H            0.000001173711    -1.692088164962    -2.152034000000     1.007825032230
         H           -0.000002826289     0.777251835038    -2.152128000000     1.007825032230

  Basis Set: AUG-CC-PVTZ
    Blend: AUG-CC-PVTZ
  Basis Set: (AUG-CC-PVTZ AUX)
    Blend: AUG-CC-PVTZ-JKFIT
	 Reference Energy          =    -305.0864214549671942 [Eh]
	 Singles Energy            =      -0.0000000000000000 [Eh]
	 Same-Spin Energy          =      -0.3342822300435423 [Eh]
	 Opposite-Spin Energy      =      -1.0151727383014650 [Eh]
	 Correlation Energy        =      -1.3494549683450074 [Eh]
	 Total Energy              =    -306.4358764233122088 [Eh]

	 ================> DF-SCS-MP2 Energies <==================
	-----------------------------------------------------------
	 SCS Same-Spin Scale       =       0.3333333333333333 [-]
	 SCS Opposite-Spin Scale   =       1.2000000000000000 [-]
	 SCS Same-Spin Energy      =      -0.1114274100145141 [Eh]
	 SCS Opposite-Spin Energy  =      -1.2182072859617581 [Eh]
	 SCS Correlation Energy    =      -1.3296346959762722 [Eh]
	 SCS Total Energy          =    -306.4160561509434615 [Eh]
	-----------------------------------------------------------

  Dipole Moment: [D]
     X:     0.0000      Y:    -4.6676      Z:    -0.0000     Total:     4.6676

*** Psi4 exiting successfully. Buy a developer a beer!
