                               Psi4 1.3.2 release

  ==> Input File <==

--------------------------------------------------------------------------
#psi4
#
memory 32 gb

molecule  {
-1 1
  C        0.2864700    -1.2064390    -0.0000050
  C       -1.1050350    -1.1994800     0.0000040
  C       -1.8315300     0.0000000    -0.0000020
  C       -1.1050350     1.1994800     0.0000050
  C        0.2042515     1.1479897    -0.0000088
  C        1.0822590     0.0000000    -0.0000150
  O        2.3571420     0.0000000     0.0000100
  H        0.8322390    -2.1510540     0.0000040
  H       -1.6412820    -2.1526450     0.0000040
  H       -2.9206450    -0.0000010     0.0000130
  H       -1.6412830     2.1526450     0.0000060
  H        0.8322370     2.1510550     0.0000020
units angstrom
no_reorient  #important for SAPT in psi4, default
symmetry c1  #important for SAPT in psi4, default
}

set PROPERTIES_ORIGIN ["COM"]
properties('MP2/aug-cc-pvtz', properties = ['dipole'])
--------------------------------------------------------------------------

    Molecular point group: c1
  Charge       = -1
  Multiplicity = 1
  Basis Set: AUG-CC-PVTZ
    Blend: AUG-CC-PVTZ
  Basis Set: (AUG-CC-PVTZ AUX)
    Blend: AUG-CC-PVTZ-JKFIT

    Orbital Energies [Eh]
    ---------------------

    Doubly Occupied:

       1A    -20.295232     2A    -11.111030     3A    -11.075809
       4A    -11.068241     5A    -11.048333     6A    -11.043802
       7A    -11.037469     8A     -1.117028     9A     -0.964722
      10A     -0.843908    11A     -0.796511    12A     -0.638148
      13A     -0.627796    14A     -0.514225    15A     -0.461698
      16A     -0.448048    17A     -0.406614    18A     -0.387458
      19A     -0.354720    20A     -0.342703    21A     -0.303619
      22A     -0.273240    23A     -0.198769    24A     -0.182051
      25A     -0.089169

  @DF-RHF Final Energy:  -305.07514931624689

   => Energetics <=

    Nuclear Repulsion Energy =            260.2453903376775770
    One-Electron Energy =                -939.3803898060004940
    Two-Electron Energy =                 374.0598501520760237
    Total Energy =                       -305.0751493162468932
  Basis Set: (AUG-CC-PVTZ AUX)
    Blend: AUG-CC-PVTZ-RI
    Molecular point group: c1

    Geometry (in Angstrom), charge = -1, multiplicity = 1:

       Center              X                  Y                   Z               Mass
    ------------   -----------------  -----------------  -----------------  -----------------
         C            0.248799903070    -1.198899914288    -0.000004221533    12.000000000000
         C           -1.142705096930    -1.191940914288     0.000004778467    12.000000000000
         C           -1.869200096930     0.007539085712    -0.000001221533    12.000000000000
         C           -1.142705096930     1.207019085712     0.000005778467    12.000000000000
         C            0.166581403070     1.155528785712    -0.000008021533    12.000000000000
         C            1.044588903070     0.007539085712    -0.000014221533    12.000000000000
         O            2.319471903070     0.007539085712     0.000010778467    15.994914619570
         H            0.794568903070    -2.143514914288     0.000004778467     1.007825032230
         H           -1.678952096930    -2.145105914288     0.000004778467     1.007825032230
         H           -2.958315096930     0.007538085712     0.000013778467     1.007825032230
         H           -1.678953096930     2.160184085712     0.000006778467     1.007825032230
         H            0.794566903070     2.158594085712     0.000002778467     1.007825032230

  Basis Set: AUG-CC-PVTZ
    Blend: AUG-CC-PVTZ
  Basis Set: (AUG-CC-PVTZ AUX)
    Blend: AUG-CC-PVTZ-JKFIT
	 Reference Energy          =    -305.0751493162468932 [Eh]
	 Singles Energy            =      -0.0000000000000000 [Eh]
	 Same-Spin Energy          =      -0.3342906061516840 [Eh]
	 Opposite-Spin Energy      =      -1.0146616638157482 [Eh]
	 Correlation Energy        =      -1.3489522699674321 [Eh]
	 Total Energy              =    -306.4241015862143058 [Eh]

	 ================> DF-SCS-MP2 Energies <==================
	-----------------------------------------------------------
	 SCS Same-Spin Scale       =       0.3333333333333333 [-]
	 SCS Opposite-Spin Scale   =       1.2000000000000000 [-]
	 SCS Same-Spin Energy      =      -0.1114302020505613 [Eh]
	 SCS Opposite-Spin Energy  =      -1.2175939965788978 [Eh]
	 SCS Correlation Energy    =      -1.3290241986294591 [Eh]
	 SCS Total Energy          =    -306.4041735148763337 [Eh]
	-----------------------------------------------------------

  Dipole Moment: [D]
     X:    -4.3163      Y:    -0.0186      Z:     0.0000     Total:     4.3164

*** Psi4 exiting successfully. Buy a developer a beer!
