                               Psi4 1.4a3.dev225

  ==> Input File <==

--------------------------------------------------------------------------
#psi4
#
memory 32 gb

molecule  {
-1 1
  C        0.0000010     0.2878930     1.2051000
  C        0.0000010    -1.1055730     1.2008750
  C        0.0000040    -1.8274530     0.0000000
  C        0.0000010    -1.1055730    -1.2008750
  C        0.0000010     0.2878930    -1.2051000
  C        0.0000030     1.0721960     0.0000000
  O       -0.0000095     2.4102180     0.0000000
  H       -0.0000030     0.8289580     2.1521280
  H        0.0000010    -1.6403820     2.1520340
  H        0.0000030    -2.9151880     0.0000000
  H        0.0000010    -1.6403820    -2.1520340
  H       -0.0000030     0.8289580    -2.1521280
units angstrom
no_reorient  #important for SAPT in psi4, default
symmetry c1  #important for SAPT in psi4, default
}

set PROPERTIES_ORIGIN ["COM"]
properties('MP2/aug-cc-pvtz', properties = ['dipole'])
--------------------------------------------------------------------------

    Molecular point group: c1
  Charge       = -1
  Multiplicity = 1
  Basis Set: AUG-CC-PVTZ
    Blend: AUG-CC-PVTZ
  Basis Set: (AUG-CC-PVTZ AUX)
    Blend: AUG-CC-PVTZ-JKFIT

    Orbital Energies [Eh]
    ---------------------

    Doubly Occupied:

       1A    -20.283976     2A    -11.110868     3A    -11.080840
       4A    -11.080824     5A    -11.057550     6A    -11.047400
       7A    -11.047389     8A     -1.075621     9A     -0.957779
      10A     -0.839965    11A     -0.802461    12A     -0.648607
      13A     -0.626021    14A     -0.518095    15A     -0.459304
      16A     -0.452828    17A     -0.412806    18A     -0.383380
      19A     -0.343858    20A     -0.326091    21A     -0.323499
      22A     -0.258082    23A     -0.193932    24A     -0.175811
      25A     -0.095314

  @DF-RHF Final Energy:  -305.08202232176728

   => Energetics <=

    Nuclear Repulsion Energy =            257.5658516898162134
    One-Electron Energy =                -934.0911423995615905
    Two-Electron Energy =                 371.4432683879780939
    Total Energy =                       -305.0820223217672833
  Basis Set: (AUG-CC-PVTZ AUX)
    Blend: AUG-CC-PVTZ-RI
    Molecular point group: c1

    Geometry (in Angstrom), charge = -1, multiplicity = 1:

       Center              X                  Y                   Z               Mass
    ------------   -----------------  -----------------  -----------------  -----------------
         C            0.000001225289     0.231029073000     1.205100000000    12.000000000000
         C            0.000001225289    -1.162436927000     1.200875000000    12.000000000000
         C            0.000004225289    -1.884316927000     0.000000000000    12.000000000000
         C            0.000001225289    -1.162436927000    -1.200875000000    12.000000000000
         C            0.000001225289     0.231029073000    -1.205100000000    12.000000000000
         C            0.000003225289     1.015332073000     0.000000000000    12.000000000000
         O           -0.000009274711     2.353354073000     0.000000000000    15.994914619570
         H           -0.000002774711     0.772094073000     2.152128000000     1.007825032230
         H            0.000001225289    -1.697245927000     2.152034000000     1.007825032230
         H            0.000003225289    -2.972051927000     0.000000000000     1.007825032230
         H            0.000001225289    -1.697245927000    -2.152034000000     1.007825032230
         H           -0.000002774711     0.772094073000    -2.152128000000     1.007825032230

  Basis Set: AUG-CC-PVTZ
    Blend: AUG-CC-PVTZ
  Basis Set: (AUG-CC-PVTZ AUX)
    Blend: AUG-CC-PVTZ-JKFIT
	 Reference Energy          =    -305.0820223217672833 [Eh]
	 Singles Energy            =      -0.0000000000000000 [Eh]
	 Same-Spin Energy          =      -0.3347273316369984 [Eh]
	 Opposite-Spin Energy      =      -1.0163404245457182 [Eh]
	 Correlation Energy        =      -1.3510677561827165 [Eh]
	 Total Energy              =    -306.4330900779499984 [Eh]

	 ================> DF-SCS-MP2 Energies <==================
	-----------------------------------------------------------
	 SCS Same-Spin Scale       =       0.3333333333333333 [-]
	 SCS Opposite-Spin Scale   =       1.2000000000000000 [-]
	 SCS Same-Spin Energy      =      -0.1115757772123328 [Eh]
	 SCS Opposite-Spin Energy  =      -1.2196085094548617 [Eh]
	 SCS Correlation Energy    =      -1.3311842866671943 [Eh]
	 SCS Total Energy          =    -306.4132066084344501 [Eh]
	-----------------------------------------------------------

  Dipole Moment: [D]
     X:     0.0000      Y:    -4.9726      Z:     0.0000     Total:     4.9726

*** Psi4 exiting successfully. Buy a developer a beer!
