                               Psi4 1.3.2 release

  ==> Input File <==

--------------------------------------------------------------------------
#psi4
#
memory 32 gb

molecule  {
-1 1
  C        0.2864700    -1.2064390    -0.0000050
  C       -1.1050350    -1.1994800     0.0000040
  C       -1.8315300     0.0000000    -0.0000020
  C       -1.1050350     1.1994800     0.0000050
  C        0.1647221     1.1166484    -0.0000102
  C        1.0822590     0.0000000    -0.0000150
  O        2.3571420     0.0000000     0.0000100
  H        0.8322390    -2.1510540     0.0000040
  H       -1.6412820    -2.1526450     0.0000040
  H       -2.9206450    -0.0000010     0.0000130
  H       -1.6412830     2.1526450     0.0000060
  H        0.8322370     2.1510550     0.0000020
units angstrom
no_reorient  #important for SAPT in psi4, default
symmetry c1  #important for SAPT in psi4, default
}

set PROPERTIES_ORIGIN ["COM"]
properties('MP2/aug-cc-pvtz', properties = ['dipole'])
--------------------------------------------------------------------------

    Molecular point group: c1
  Charge       = -1
  Multiplicity = 1
  Basis Set: AUG-CC-PVTZ
    Blend: AUG-CC-PVTZ
  Basis Set: (AUG-CC-PVTZ AUX)
    Blend: AUG-CC-PVTZ-JKFIT

    Orbital Energies [Eh]
    ---------------------

    Doubly Occupied:

       1A    -20.298130     2A    -11.113138     3A    -11.075246
       4A    -11.063794     5A    -11.047600     6A    -11.045563
       7A    -11.036173     8A     -1.118583     9A     -0.972056
      10A     -0.848325    11A     -0.797001    12A     -0.637430
      13A     -0.629897    14A     -0.516253    15A     -0.465545
      16A     -0.445320    17A     -0.406681    18A     -0.386321
      19A     -0.358669    20A     -0.344552    21A     -0.291693
      22A     -0.276064    23A     -0.198692    24A     -0.186695
      25A     -0.089427

  @DF-RHF Final Energy:  -305.05792923240790

   => Energetics <=

    Nuclear Repulsion Energy =            260.9370575973318864
    One-Electron Energy =                -940.6922769076223858
    Two-Electron Energy =                 374.6972900778825988
    Total Energy =                       -305.0579292324079006
  Basis Set: (AUG-CC-PVTZ AUX)
    Blend: AUG-CC-PVTZ-RI
    Molecular point group: c1

    Geometry (in Angstrom), charge = -1, multiplicity = 1:

       Center              X                  Y                   Z               Mass
    ------------   -----------------  -----------------  -----------------  -----------------
         C            0.253898604589    -1.194857355233    -0.000004040954    12.000000000000
         C           -1.137606395411    -1.187898355233     0.000004959046    12.000000000000
         C           -1.864101395411     0.011581644767    -0.000001040954    12.000000000000
         C           -1.137606395411     1.211061644767     0.000005959046    12.000000000000
         C            0.132150704589     1.128230044767    -0.000009240954    12.000000000000
         C            1.049687604589     0.011581644767    -0.000014040954    12.000000000000
         O            2.324570604589     0.011581644767     0.000010959046    15.994914619570
         H            0.799667604589    -2.139472355233     0.000004959046     1.007825032230
         H           -1.673853395411    -2.141063355233     0.000004959046     1.007825032230
         H           -2.953216395411     0.011580644767     0.000013959046     1.007825032230
         H           -1.673854395411     2.164226644767     0.000006959046     1.007825032230
         H            0.799665604589     2.162636644767     0.000002959046     1.007825032230

  Basis Set: AUG-CC-PVTZ
    Blend: AUG-CC-PVTZ
  Basis Set: (AUG-CC-PVTZ AUX)
    Blend: AUG-CC-PVTZ-JKFIT
	 Reference Energy          =    -305.0579292324079006 [Eh]
	 Singles Energy            =      -0.0000000000000000 [Eh]
	 Same-Spin Energy          =      -0.3347463641094126 [Eh]
	 Opposite-Spin Energy      =      -1.0154970720298191 [Eh]
	 Correlation Energy        =      -1.3502434361392317 [Eh]
	 Total Energy              =    -306.4081726685471381 [Eh]

	 ================> DF-SCS-MP2 Energies <==================
	-----------------------------------------------------------
	 SCS Same-Spin Scale       =       0.3333333333333333 [-]
	 SCS Opposite-Spin Scale   =       1.2000000000000000 [-]
	 SCS Same-Spin Energy      =      -0.1115821213698042 [Eh]
	 SCS Opposite-Spin Energy  =      -1.2185964864357828 [Eh]
	 SCS Correlation Energy    =      -1.3301786078055871 [Eh]
	 SCS Total Energy          =    -306.3881078402134790 [Eh]
	-----------------------------------------------------------

  Dipole Moment: [D]
     X:    -4.3445      Y:    -0.0591      Z:     0.0000     Total:     4.3449

*** Psi4 exiting successfully. Buy a developer a beer!
