                               Psi4 1.3.2 release

  ==> Input File <==

--------------------------------------------------------------------------
#psi4
#
memory 32 gb

molecule  {
0 1
  O       -0.0101440     2.0708820    -0.1140410
  N        0.2351990    -0.2177110    -0.3583720
  C       -0.4908340    -1.4342940    -0.0290780
  C       -1.9502640    -0.9583450    -0.0482810
  C       -1.8971137     0.5099276     0.2594013
  C       -0.4582930     0.9265630    -0.0509830
  C        1.6617300    -0.1844710    -0.6214880
  C        2.4978900    -0.3314020     0.6460640
  H       -0.2060500    -1.8213230     0.9608810
  H       -0.2853850    -2.2161620    -0.7686800
  H       -2.5951790    -1.5710950     0.5868370
  H       -2.3326610    -1.0086390    -1.0720610
  H       -1.8916900     0.5931740     1.4933710
  H       -2.6106570     1.1621840    -0.0164710
  H        1.8952280    -0.9774960    -1.3410860
  H        1.8622980     0.7788290    -1.0968800
  H        2.2724650     0.4877290     1.3331980
  H        2.2931660    -1.2799200     1.1504100
  H        3.5653110    -0.2984830     0.4074420
units angstrom
no_reorient  #important for SAPT in psi4, default
symmetry c1  #important for SAPT in psi4, default
}

set PROPERTIES_ORIGIN ["COM"]
properties('MP2/aug-cc-pvtz', properties = ['dipole'])
--------------------------------------------------------------------------

    Molecular point group: c1
  Charge       = 0
  Multiplicity = 1
  Basis Set: AUG-CC-PVTZ
    Blend: AUG-CC-PVTZ
  Basis Set: (AUG-CC-PVTZ AUX)
    Blend: AUG-CC-PVTZ-JKFIT

    Orbital Energies [Eh]
    ---------------------

    Doubly Occupied:

       1A    -20.511238     2A    -15.581817     3A    -11.343660
       4A    -11.276947     5A    -11.261322     6A    -11.245490
       7A    -11.242768     8A    -11.218527     9A     -1.366988
      10A     -1.259239    11A     -1.091220    12A     -1.002586
      13A     -0.972819    14A     -0.871750    15A     -0.830736
      16A     -0.730949    17A     -0.690622    18A     -0.673138
      19A     -0.643469    20A     -0.601878    21A     -0.584517
      22A     -0.574148    23A     -0.560885    24A     -0.559707
      25A     -0.531587    26A     -0.515564    27A     -0.513555
      28A     -0.491950    29A     -0.452339    30A     -0.408880
      31A     -0.370737

  @DF-RHF Final Energy:  -363.05461392530998

   => Energetics <=

    Nuclear Repulsion Energy =            394.2494281498968576
    One-Electron Energy =               -1274.6460174340138565
    Two-Electron Energy =                 517.3419753588069625
    Total Energy =                       -363.0546139253100364
  Basis Set: (AUG-CC-PVTZ AUX)
    Blend: AUG-CC-PVTZ-RI
    Molecular point group: c1

    Geometry (in Angstrom), charge = 0, multiplicity = 1:

       Center              X                  Y                   Z               Mass
    ------------   -----------------  -----------------  -----------------  -----------------
         O            0.012220983083     2.015955026559    -0.084638167225    15.994914619570
         N            0.257563983083    -0.272637973441    -0.328969167225    14.003074004430
         C           -0.468469016917    -1.489220973441     0.000324832775    12.000000000000
         C           -1.927899016917    -1.013271973441    -0.018878167225    12.000000000000
         C           -1.874748716917     0.455000626559     0.288804132775    12.000000000000
         C           -0.435928016917     0.871636026559    -0.021580167225    12.000000000000
         C            1.684094983083    -0.239397973441    -0.592085167225    12.000000000000
         C            2.520254983083    -0.386328973441     0.675466832775    12.000000000000
         H           -0.183685016917    -1.876249973441     0.990283832775     1.007825032230
         H           -0.263020016917    -2.271088973441    -0.739277167225     1.007825032230
         H           -2.572814016917    -1.626021973441     0.616239832775     1.007825032230
         H           -2.310296016917    -1.063565973441    -1.042658167225     1.007825032230
         H           -1.869325016917     0.538247026559     1.522773832775     1.007825032230
         H           -2.588292016917     1.107257026559     0.012931832775     1.007825032230
         H            1.917592983083    -1.032422973441    -1.311683167225     1.007825032230
         H            1.884662983083     0.723902026559    -1.067477167225     1.007825032230
         H            2.294829983083     0.432802026559     1.362600832775     1.007825032230
         H            2.315530983083    -1.334846973441     1.179812832775     1.007825032230
         H            3.587675983083    -0.353409973441     0.436844832775     1.007825032230

  Basis Set: AUG-CC-PVTZ
    Blend: AUG-CC-PVTZ
  Basis Set: (AUG-CC-PVTZ AUX)
    Blend: AUG-CC-PVTZ-JKFIT
	 Reference Energy          =    -363.0546139253099795 [Eh]
	 Singles Energy            =      -0.0000000000000000 [Eh]
	 Same-Spin Energy          =      -0.3772344585577529 [Eh]
	 Opposite-Spin Energy      =      -1.2478723775888563 [Eh]
	 Correlation Energy        =      -1.6251068361466092 [Eh]
	 Total Energy              =    -364.6797207614565650 [Eh]

	 ================> DF-SCS-MP2 Energies <==================
	-----------------------------------------------------------
	 SCS Same-Spin Scale       =       0.3333333333333333 [-]
	 SCS Opposite-Spin Scale   =       1.2000000000000000 [-]
	 SCS Same-Spin Energy      =      -0.1257448195192510 [Eh]
	 SCS Opposite-Spin Energy  =      -1.4974468531066274 [Eh]
	 SCS Correlation Energy    =      -1.6231916726258784 [Eh]
	 SCS Total Energy          =    -364.6778055979358442 [Eh]
	-----------------------------------------------------------

  Dipole Moment: [D]
     X:    -0.4870      Y:    -3.9616      Z:     0.1373     Total:     3.9938

*** Psi4 exiting successfully. Buy a developer a beer!
