                               Psi4 1.3.2 release

  ==> Input File <==

--------------------------------------------------------------------------
#psi4
#
memory 32 gb

molecule  {
0 1
  O       -0.0101440     2.0708820    -0.1140410
  N        0.2351990    -0.2177110    -0.3583720
  C       -0.4908340    -1.4342940    -0.0290780
  C       -1.9502640    -0.9583450    -0.0482810
  C       -1.8649772     0.5032879     0.3538638
  C       -0.4582930     0.9265630    -0.0509830
  C        1.6617300    -0.1844710    -0.6214880
  C        2.4978900    -0.3314020     0.6460640
  H       -0.2060500    -1.8213230     0.9608810
  H       -0.2853850    -2.2161620    -0.7686800
  H       -2.5951790    -1.5710950     0.5868370
  H       -2.3326610    -1.0086390    -1.0720610
  H       -1.8916900     0.5931740     1.4933710
  H       -2.6106570     1.1621840    -0.0164710
  H        1.8952280    -0.9774960    -1.3410860
  H        1.8622980     0.7788290    -1.0968800
  H        2.2724650     0.4877290     1.3331980
  H        2.2931660    -1.2799200     1.1504100
  H        3.5653110    -0.2984830     0.4074420
units angstrom
no_reorient  #important for SAPT in psi4, default
symmetry c1  #important for SAPT in psi4, default
}

set PROPERTIES_ORIGIN ["COM"]
properties('MP2/aug-cc-pvtz', properties = ['dipole'])
--------------------------------------------------------------------------

    Molecular point group: c1
  Charge       = 0
  Multiplicity = 1
  Basis Set: AUG-CC-PVTZ
    Blend: AUG-CC-PVTZ
  Basis Set: (AUG-CC-PVTZ AUX)
    Blend: AUG-CC-PVTZ-JKFIT

    Orbital Energies [Eh]
    ---------------------

    Doubly Occupied:

       1A    -20.511420     2A    -15.581174     3A    -11.341724
       4A    -11.275473     5A    -11.260976     6A    -11.242247
       7A    -11.241123     8A    -11.218576     9A     -1.366851
      10A     -1.258691    11A     -1.088973    12A     -1.001085
      13A     -0.972158    14A     -0.870711    15A     -0.829087
      16A     -0.727536    17A     -0.691737    18A     -0.669551
      19A     -0.640664    20A     -0.602625    21A     -0.587604
      22A     -0.572204    23A     -0.563137    24A     -0.556183
      25A     -0.524881    26A     -0.513336    27A     -0.512554
      28A     -0.491206    29A     -0.470781    30A     -0.409377
      31A     -0.369902

  @DF-RHF Final Energy:  -363.07344592599924

   => Energetics <=

    Nuclear Repulsion Energy =            394.3058911361923151
    One-Electron Energy =               -1274.8315780028701738
    Two-Electron Energy =                 517.4522409406787347
    Total Energy =                       -363.0734459259991809
  Basis Set: (AUG-CC-PVTZ AUX)
    Blend: AUG-CC-PVTZ-RI
    Molecular point group: c1

    Geometry (in Angstrom), charge = 0, multiplicity = 1:

       Center              X                  Y                   Z               Mass
    ------------   -----------------  -----------------  -----------------  -----------------
         O            0.008810794357     2.016659603289    -0.094662126041    15.994914619570
         N            0.254153794357    -0.271933396711    -0.338993126041    14.003074004430
         C           -0.471879205643    -1.488516396711    -0.009699126041    12.000000000000
         C           -1.931309205643    -1.012567396711    -0.028902126041    12.000000000000
         C           -1.846022405643     0.449065503289     0.373242673959    12.000000000000
         C           -0.439338205643     0.872340603289    -0.031604126041    12.000000000000
         C            1.680684794357    -0.238693396711    -0.602109126041    12.000000000000
         C            2.516844794357    -0.385624396711     0.665442873959    12.000000000000
         H           -0.187095205643    -1.875545396711     0.980259873959     1.007825032230
         H           -0.266430205643    -2.270384396711    -0.749301126041     1.007825032230
         H           -2.576224205643    -1.625317396711     0.606215873959     1.007825032230
         H           -2.313706205643    -1.062861396711    -1.052682126041     1.007825032230
         H           -1.872735205643     0.538951603289     1.512749873959     1.007825032230
         H           -2.591702205643     1.107961603289     0.002907873959     1.007825032230
         H            1.914182794357    -1.031718396711    -1.321707126041     1.007825032230
         H            1.881252794357     0.724606603289    -1.077501126041     1.007825032230
         H            2.291419794357     0.433506603289     1.352576873959     1.007825032230
         H            2.312120794357    -1.334142396711     1.169788873959     1.007825032230
         H            3.584265794357    -0.352705396711     0.426820873959     1.007825032230

  Basis Set: AUG-CC-PVTZ
    Blend: AUG-CC-PVTZ
  Basis Set: (AUG-CC-PVTZ AUX)
    Blend: AUG-CC-PVTZ-JKFIT
	 Reference Energy          =    -363.0734459259992377 [Eh]
	 Singles Energy            =      -0.0000000000000000 [Eh]
	 Same-Spin Energy          =      -0.3768629141248903 [Eh]
	 Opposite-Spin Energy      =      -1.2470089784389380 [Eh]
	 Correlation Energy        =      -1.6238718925638282 [Eh]
	 Total Energy              =    -364.6973178185630786 [Eh]

	 ================> DF-SCS-MP2 Energies <==================
	-----------------------------------------------------------
	 SCS Same-Spin Scale       =       0.3333333333333333 [-]
	 SCS Opposite-Spin Scale   =       1.2000000000000000 [-]
	 SCS Same-Spin Energy      =      -0.1256209713749634 [Eh]
	 SCS Opposite-Spin Energy  =      -1.4964107741267256 [Eh]
	 SCS Correlation Energy    =      -1.6220317455016890 [Eh]
	 SCS Total Energy          =    -364.6954776715009530 [Eh]
	-----------------------------------------------------------

  Dipole Moment: [D]
     X:    -0.4760      Y:    -3.9482      Z:     0.2208     Total:     3.9829

*** Psi4 exiting successfully. Buy a developer a beer!
