                               Psi4 1.3.2 release

  ==> Input File <==

--------------------------------------------------------------------------
#psi4
#
memory 32 gb

molecule  {
0 1
  O       -0.0101440     2.0708820    -0.1140410
  N        0.2351990    -0.2177110    -0.3583720
  C       -0.4908340    -1.4342940    -0.0290780
  C       -1.9502640    -0.9583450    -0.0482810
  C       -1.9131820     0.5132475     0.2121700
  C       -0.4582930     0.9265630    -0.0509830
  C        1.6617300    -0.1844710    -0.6214880
  C        2.4978900    -0.3314020     0.6460640
  H       -0.2060500    -1.8213230     0.9608810
  H       -0.2853850    -2.2161620    -0.7686800
  H       -2.5951790    -1.5710950     0.5868370
  H       -2.3326610    -1.0086390    -1.0720610
  H       -1.8916900     0.5931740     1.4933710
  H       -2.6106570     1.1621840    -0.0164710
  H        1.8952280    -0.9774960    -1.3410860
  H        1.8622980     0.7788290    -1.0968800
  H        2.2724650     0.4877290     1.3331980
  H        2.2931660    -1.2799200     1.1504100
  H        3.5653110    -0.2984830     0.4074420
units angstrom
no_reorient  #important for SAPT in psi4, default
symmetry c1  #important for SAPT in psi4, default
}

set PROPERTIES_ORIGIN ["COM"]
properties('MP2/aug-cc-pvtz', properties = ['dipole'])
--------------------------------------------------------------------------

    Molecular point group: c1
  Charge       = 0
  Multiplicity = 1
  Basis Set: AUG-CC-PVTZ
    Blend: AUG-CC-PVTZ
  Basis Set: (AUG-CC-PVTZ AUX)
    Blend: AUG-CC-PVTZ-JKFIT

    Orbital Energies [Eh]
    ---------------------

    Doubly Occupied:

       1A    -20.511230     2A    -15.582231     3A    -11.345171
       4A    -11.277825     5A    -11.261594     6A    -11.248486
       7A    -11.243700     8A    -11.218552     9A     -1.367122
      10A     -1.259575    11A     -1.092330    12A     -1.003472
      13A     -0.973353    14A     -0.872288    15A     -0.832667
      16A     -0.732908    17A     -0.691452    18A     -0.674254
      19A     -0.644703    20A     -0.602576    21A     -0.583758
      22A     -0.575699    23A     -0.562861    24A     -0.558013
      25A     -0.534645    26A     -0.515950    27A     -0.513755
      28A     -0.492186    29A     -0.441700    30A     -0.408290
      31A     -0.371132

  @DF-RHF Final Energy:  -363.03928940117248

   => Energetics <=

    Nuclear Repulsion Energy =            394.1704211883587732
    One-Electron Energy =               -1274.4324651640320099
    Two-Electron Energy =                 517.2227545745007546
    Total Energy =                       -363.0392894011724820
  Basis Set: (AUG-CC-PVTZ AUX)
    Blend: AUG-CC-PVTZ-RI
    Molecular point group: c1

    Geometry (in Angstrom), charge = 0, multiplicity = 1:

       Center              X                  Y                   Z               Mass
    ------------   -----------------  -----------------  -----------------  -----------------
         O            0.013926082751     2.015602732889    -0.079626182512    15.994914619570
         N            0.259269082751    -0.272990267111    -0.323957182512    14.003074004430
         C           -0.466763917249    -1.489573267111     0.005336817488    12.000000000000
         C           -1.926193917249    -1.013624267111    -0.013866182512    12.000000000000
         C           -1.889111917249     0.457968232889     0.246584817488    12.000000000000
         C           -0.434222917249     0.871283732889    -0.016568182512    12.000000000000
         C            1.685800082751    -0.239750267111    -0.587073182512    12.000000000000
         C            2.521960082751    -0.386681267111     0.680478817488    12.000000000000
         H           -0.181979917249    -1.876602267111     0.995295817488     1.007825032230
         H           -0.261314917249    -2.271441267111    -0.734265182512     1.007825032230
         H           -2.571108917249    -1.626374267111     0.621251817488     1.007825032230
         H           -2.308590917249    -1.063918267111    -1.037646182512     1.007825032230
         H           -1.867619917249     0.537894732889     1.527785817488     1.007825032230
         H           -2.586586917249     1.106904732889     0.017943817488     1.007825032230
         H            1.919298082751    -1.032775267111    -1.306671182512     1.007825032230
         H            1.886368082751     0.723549732889    -1.062465182512     1.007825032230
         H            2.296535082751     0.432449732889     1.367612817488     1.007825032230
         H            2.317236082751    -1.335199267111     1.184824817488     1.007825032230
         H            3.589381082751    -0.353762267111     0.441856817488     1.007825032230

  Basis Set: AUG-CC-PVTZ
    Blend: AUG-CC-PVTZ
  Basis Set: (AUG-CC-PVTZ AUX)
    Blend: AUG-CC-PVTZ-JKFIT
	 Reference Energy          =    -363.0392894011724820 [Eh]
	 Singles Energy            =      -0.0000000000000000 [Eh]
	 Same-Spin Energy          =      -0.3775258328366744 [Eh]
	 Opposite-Spin Energy      =      -1.2486425035441018 [Eh]
	 Correlation Energy        =      -1.6261683363807762 [Eh]
	 Total Energy              =    -364.6654577375532540 [Eh]

	 ================> DF-SCS-MP2 Energies <==================
	-----------------------------------------------------------
	 SCS Same-Spin Scale       =       0.3333333333333333 [-]
	 SCS Opposite-Spin Scale   =       1.2000000000000000 [-]
	 SCS Same-Spin Energy      =      -0.1258419442788914 [Eh]
	 SCS Opposite-Spin Energy  =      -1.4983710042529221 [Eh]
	 SCS Correlation Energy    =      -1.6242129485318135 [Eh]
	 SCS Total Energy          =    -364.6635023497042880 [Eh]
	-----------------------------------------------------------

  Dipole Moment: [D]
     X:    -0.4863      Y:    -3.9733      Z:     0.0883     Total:     4.0039

*** Psi4 exiting successfully. Buy a developer a beer!
