                               Psi4 1.3.2 release

  ==> Input File <==

--------------------------------------------------------------------------
#psi4
#
memory 32 gb

molecule  {
0 1
  O       -0.0101440     2.0708820    -0.1140410
  N        0.2351990    -0.2177110    -0.3583720
  C       -0.4908340    -1.4342940    -0.0290780
  C       -1.9502640    -0.9583450    -0.0482810
  C       -1.8810455     0.5066077     0.3066325
  C       -0.4582930     0.9265630    -0.0509830
  C        1.6617300    -0.1844710    -0.6214880
  C        2.4978900    -0.3314020     0.6460640
  H       -0.2060500    -1.8213230     0.9608810
  H       -0.2853850    -2.2161620    -0.7686800
  H       -2.5951790    -1.5710950     0.5868370
  H       -2.3326610    -1.0086390    -1.0720610
  H       -1.8916900     0.5931740     1.4933710
  H       -2.6106570     1.1621840    -0.0164710
  H        1.8952280    -0.9774960    -1.3410860
  H        1.8622980     0.7788290    -1.0968800
  H        2.2724650     0.4877290     1.3331980
  H        2.2931660    -1.2799200     1.1504100
  H        3.5653110    -0.2984830     0.4074420
units angstrom
no_reorient  #important for SAPT in psi4, default
symmetry c1  #important for SAPT in psi4, default
}

set PROPERTIES_ORIGIN ["COM"]
properties('MP2/aug-cc-pvtz', properties = ['dipole'])
--------------------------------------------------------------------------

    Molecular point group: c1
  Charge       = 0
  Multiplicity = 1
  Basis Set: AUG-CC-PVTZ
    Blend: AUG-CC-PVTZ
  Basis Set: (AUG-CC-PVTZ AUX)
    Blend: AUG-CC-PVTZ-JKFIT

    Orbital Energies [Eh]
    ---------------------

    Doubly Occupied:

       1A    -20.511300     2A    -15.581462     3A    -11.342501
       4A    -11.276160     5A    -11.261114     6A    -11.243160
       7A    -11.242157     8A    -11.218534     9A     -1.366895
      10A     -1.258943    11A     -1.090097    12A     -1.001785
      13A     -0.972416    14A     -0.871219    15A     -0.829528
      16A     -0.729111    17A     -0.690779    18A     -0.671460
      19A     -0.642089    20A     -0.601818    21A     -0.585859
      22A     -0.572933    23A     -0.561954    24A     -0.558153
      25A     -0.528069    26A     -0.514685    27A     -0.513329
      28A     -0.491674    29A     -0.462223    30A     -0.409219
      31A     -0.370317

  @DF-RHF Final Energy:  -363.06616148554752

   => Energetics <=

    Nuclear Repulsion Energy =            394.2939903002517212
    One-Electron Energy =               -1274.7784222857083023
    Two-Electron Energy =                 517.4182704999091129
    Total Energy =                       -363.0661614855474681
  Basis Set: (AUG-CC-PVTZ AUX)
    Blend: AUG-CC-PVTZ-RI
    Molecular point group: c1

    Geometry (in Angstrom), charge = 0, multiplicity = 1:

       Center              X                  Y                   Z               Mass
    ------------   -----------------  -----------------  -----------------  -----------------
         O            0.010515894026     2.016307320230    -0.089650141327    15.994914619570
         N            0.255858894026    -0.272285679770    -0.333981141327    14.003074004430
         C           -0.470174105974    -1.488868679770    -0.004687141327    12.000000000000
         C           -1.929604105974    -1.012919679770    -0.023890141327    12.000000000000
         C           -1.860385605974     0.452033020230     0.331023358673    12.000000000000
         C           -0.437633105974     0.871988320230    -0.026592141327    12.000000000000
         C            1.682389894026    -0.239045679770    -0.597097141327    12.000000000000
         C            2.518549894026    -0.385976679770     0.670454858673    12.000000000000
         H           -0.185390105974    -1.875897679770     0.985271858673     1.007825032230
         H           -0.264725105974    -2.270736679770    -0.744289141327     1.007825032230
         H           -2.574519105974    -1.625669679770     0.611227858673     1.007825032230
         H           -2.312001105974    -1.063213679770    -1.047670141327     1.007825032230
         H           -1.871030105974     0.538599320230     1.517761858673     1.007825032230
         H           -2.589997105974     1.107609320230     0.007919858673     1.007825032230
         H            1.915887894026    -1.032070679770    -1.316695141327     1.007825032230
         H            1.882957894026     0.724254320230    -1.072489141327     1.007825032230
         H            2.293124894026     0.433154320230     1.357588858673     1.007825032230
         H            2.313825894026    -1.334494679770     1.174800858673     1.007825032230
         H            3.585970894026    -0.353057679770     0.431832858673     1.007825032230

  Basis Set: AUG-CC-PVTZ
    Blend: AUG-CC-PVTZ
  Basis Set: (AUG-CC-PVTZ AUX)
    Blend: AUG-CC-PVTZ-JKFIT
	 Reference Energy          =    -363.0661614855475250 [Eh]
	 Singles Energy            =      -0.0000000000000000 [Eh]
	 Same-Spin Energy          =      -0.3770134072129788 [Eh]
	 Opposite-Spin Energy      =      -1.2473288293437816 [Eh]
	 Correlation Energy        =      -1.6243422365567604 [Eh]
	 Total Energy              =    -364.6905037221042676 [Eh]

	 ================> DF-SCS-MP2 Energies <==================
	-----------------------------------------------------------
	 SCS Same-Spin Scale       =       0.3333333333333333 [-]
	 SCS Opposite-Spin Scale   =       1.2000000000000000 [-]
	 SCS Same-Spin Energy      =      -0.1256711357376596 [Eh]
	 SCS Opposite-Spin Energy  =      -1.4967945952125379 [Eh]
	 SCS Correlation Energy    =      -1.6224657309501975 [Eh]
	 SCS Total Energy          =    -364.6886272164977072 [Eh]
	-----------------------------------------------------------

  Dipole Moment: [D]
     X:    -0.4838      Y:    -3.9532      Z:     0.1818     Total:     3.9868

*** Psi4 exiting successfully. Buy a developer a beer!
