                               Psi4 1.3.2 release

  ==> Input File <==

--------------------------------------------------------------------------
#psi4
#
memory 32 gb

molecule  {
0 1
  O       -0.0101440     2.0708820    -0.1140410
  N        0.2351990    -0.2177110    -0.3583720
  C       -0.4908340    -1.4342940    -0.0290780
  C       -1.9502640    -0.9583450    -0.0482810
  C       -1.9453185     0.5198872     0.1177076
  C       -0.4582930     0.9265630    -0.0509830
  C        1.6617300    -0.1844710    -0.6214880
  C        2.4978900    -0.3314020     0.6460640
  H       -0.2060500    -1.8213230     0.9608810
  H       -0.2853850    -2.2161620    -0.7686800
  H       -2.5951790    -1.5710950     0.5868370
  H       -2.3326610    -1.0086390    -1.0720610
  H       -1.8916900     0.5931740     1.4933710
  H       -2.6106570     1.1621840    -0.0164710
  H        1.8952280    -0.9774960    -1.3410860
  H        1.8622980     0.7788290    -1.0968800
  H        2.2724650     0.4877290     1.3331980
  H        2.2931660    -1.2799200     1.1504100
  H        3.5653110    -0.2984830     0.4074420
units angstrom
no_reorient  #important for SAPT in psi4, default
symmetry c1  #important for SAPT in psi4, default
}

set PROPERTIES_ORIGIN ["COM"]
properties('MP2/aug-cc-pvtz', properties = ['dipole'])
--------------------------------------------------------------------------

    Molecular point group: c1
  Charge       = 0
  Multiplicity = 1
  Basis Set: AUG-CC-PVTZ
    Blend: AUG-CC-PVTZ
  Basis Set: (AUG-CC-PVTZ AUX)
    Blend: AUG-CC-PVTZ-JKFIT

    Orbital Energies [Eh]
    ---------------------

    Doubly Occupied:

       1A    -20.511360     2A    -15.583195     3A    -11.349108
       4A    -11.279795     5A    -11.262299     6A    -11.256209
       7A    -11.246604     8A    -11.218675     9A     -1.367488
      10A     -1.260323    11A     -1.094444    12A     -1.005431
      13A     -0.974744    14A     -0.873320    15A     -0.838419
      16A     -0.736608    17A     -0.695656    18A     -0.674478
      19A     -0.646650    20A     -0.605493    21A     -0.584180
      22A     -0.579423    23A     -0.565499    24A     -0.554448
      25A     -0.538719    26A     -0.516254    27A     -0.513942
      28A     -0.492684    29A     -0.421137    30A     -0.405230
      31A     -0.371603

  @DF-RHF Final Energy:  -362.99928496282831

   => Energetics <=

    Nuclear Repulsion Energy =            393.9029324969797017
    One-Electron Energy =               -1273.7575967329007653
    Two-Electron Energy =                 516.8553792730928080
    Total Energy =                       -362.9992849628282556
  Basis Set: (AUG-CC-PVTZ AUX)
    Blend: AUG-CC-PVTZ-RI
    Molecular point group: c1

    Geometry (in Angstrom), charge = 0, multiplicity = 1:

       Center              X                  Y                   Z               Mass
    ------------   -----------------  -----------------  -----------------  -----------------
         O            0.017336271476     2.014898156159    -0.069602234308    15.994914619570
         N            0.262679271476    -0.273694843841    -0.313933234308    14.003074004430
         C           -0.463353728524    -1.490277843841     0.015360765692    12.000000000000
         C           -1.922783728524    -1.014328843841    -0.003842234308    12.000000000000
         C           -1.917838228524     0.463903356159     0.162146365692    12.000000000000
         C           -0.430812728524     0.870579156159    -0.006544234308    12.000000000000
         C            1.689210271476    -0.240454843841    -0.577049234308    12.000000000000
         C            2.525370271476    -0.387385843841     0.690502765692    12.000000000000
         H           -0.178569728524    -1.877306843841     1.005319765692     1.007825032230
         H           -0.257904728524    -2.272145843841    -0.724241234308     1.007825032230
         H           -2.567698728524    -1.627078843841     0.631275765692     1.007825032230
         H           -2.305180728524    -1.064622843841    -1.027622234308     1.007825032230
         H           -1.864209728524     0.537190156159     1.537809765692     1.007825032230
         H           -2.583176728524     1.106200156159     0.027967765692     1.007825032230
         H            1.922708271476    -1.033479843841    -1.296647234308     1.007825032230
         H            1.889778271476     0.722845156159    -1.052441234308     1.007825032230
         H            2.299945271476     0.431745156159     1.377636765692     1.007825032230
         H            2.320646271476    -1.335903843841     1.194848765692     1.007825032230
         H            3.592791271476    -0.354466843841     0.451880765692     1.007825032230

  Basis Set: AUG-CC-PVTZ
    Blend: AUG-CC-PVTZ
  Basis Set: (AUG-CC-PVTZ AUX)
    Blend: AUG-CC-PVTZ-JKFIT
	 Reference Energy          =    -362.9992849628283125 [Eh]
	 Singles Energy            =      -0.0000000000000000 [Eh]
	 Same-Spin Energy          =      -0.3783240039342268 [Eh]
	 Opposite-Spin Energy      =      -1.2509084600931466 [Eh]
	 Correlation Energy        =      -1.6292324640273734 [Eh]
	 Total Energy              =    -364.6285174268556943 [Eh]

	 ================> DF-SCS-MP2 Energies <==================
	-----------------------------------------------------------
	 SCS Same-Spin Scale       =       0.3333333333333333 [-]
	 SCS Opposite-Spin Scale   =       1.2000000000000000 [-]
	 SCS Same-Spin Energy      =      -0.1261080013114089 [Eh]
	 SCS Opposite-Spin Energy  =      -1.5010901521117759 [Eh]
	 SCS Correlation Energy    =      -1.6271981534231847 [Eh]
	 SCS Total Energy          =    -364.6264831162515065 [Eh]
	-----------------------------------------------------------

  Dipole Moment: [D]
     X:    -0.4758      Y:    -4.0041      Z:    -0.0166     Total:     4.0323

*** Psi4 exiting successfully. Buy a developer a beer!
