                               Psi4 1.3.2 release

  ==> Input File <==

--------------------------------------------------------------------------
#psi4
#
memory 32 gb

molecule  {
0 1
  O       -0.0101440     2.0708820    -0.1140410
  N        0.2351990    -0.2177110    -0.3583720
  C       -0.4908340    -1.4342940    -0.0290780
  C       -1.9502640    -0.9583450    -0.0482810
  C       -1.9292502     0.5165673     0.1649388
  C       -0.4582930     0.9265630    -0.0509830
  C        1.6617300    -0.1844710    -0.6214880
  C        2.4978900    -0.3314020     0.6460640
  H       -0.2060500    -1.8213230     0.9608810
  H       -0.2853850    -2.2161620    -0.7686800
  H       -2.5951790    -1.5710950     0.5868370
  H       -2.3326610    -1.0086390    -1.0720610
  H       -1.8916900     0.5931740     1.4933710
  H       -2.6106570     1.1621840    -0.0164710
  H        1.8952280    -0.9774960    -1.3410860
  H        1.8622980     0.7788290    -1.0968800
  H        2.2724650     0.4877290     1.3331980
  H        2.2931660    -1.2799200     1.1504100
  H        3.5653110    -0.2984830     0.4074420
units angstrom
no_reorient  #important for SAPT in psi4, default
symmetry c1  #important for SAPT in psi4, default
}

set PROPERTIES_ORIGIN ["COM"]
properties('MP2/aug-cc-pvtz', properties = ['dipole'])
--------------------------------------------------------------------------

    Molecular point group: c1
  Charge       = 0
  Multiplicity = 1
  Basis Set: AUG-CC-PVTZ
    Blend: AUG-CC-PVTZ
  Basis Set: (AUG-CC-PVTZ AUX)
    Blend: AUG-CC-PVTZ-JKFIT

    Orbital Energies [Eh]
    ---------------------

    Doubly Occupied:

       1A    -20.511272     2A    -15.582695     3A    -11.347001
       4A    -11.278780     5A    -11.261923     6A    -11.252076
       7A    -11.244988     8A    -11.218602     9A     -1.367292
      10A     -1.259939    11A     -1.093412    12A     -1.004426
      13A     -0.974002    14A     -0.872816    15A     -0.835261
      16A     -0.734842    17A     -0.693228    18A     -0.674663
      19A     -0.645762    20A     -0.603799    21A     -0.583628
      22A     -0.577544    23A     -0.564562    24A     -0.556154
      25A     -0.537006    26A     -0.516130    27A     -0.513903
      28A     -0.492427    29A     -0.430962    30A     -0.407260
      31A     -0.371452

  @DF-RHF Final Energy:  -363.02067645331186

   => Energetics <=

    Nuclear Repulsion Energy =            394.0553870878839575
    One-Electron Energy =               -1274.1365140150248862
    Two-Electron Energy =                 517.0604504738291780
    Total Energy =                       -363.0206764533118076
  Basis Set: (AUG-CC-PVTZ AUX)
    Blend: AUG-CC-PVTZ-RI
    Molecular point group: c1

    Geometry (in Angstrom), charge = 0, multiplicity = 1:

       Center              X                  Y                   Z               Mass
    ------------   -----------------  -----------------  -----------------  -----------------
         O            0.015631171808     2.015250449829    -0.074614208410    15.994914619570
         N            0.260974171808    -0.273342550171    -0.318945208410    14.003074004430
         C           -0.465058828192    -1.489925550171     0.010348791590    12.000000000000
         C           -1.924488828192    -1.013976550171    -0.008854208410    12.000000000000
         C           -1.903475028192     0.460935749829     0.204365591590    12.000000000000
         C           -0.432517828192     0.870931449829    -0.011556208410    12.000000000000
         C            1.687505171808    -0.240102550171    -0.582061208410    12.000000000000
         C            2.523665171808    -0.387033550171     0.685490791590    12.000000000000
         H           -0.180274828192    -1.876954550171     1.000307791590     1.007825032230
         H           -0.259609828192    -2.271793550171    -0.729253208410     1.007825032230
         H           -2.569403828192    -1.626726550171     0.626263791590     1.007825032230
         H           -2.306885828192    -1.064270550171    -1.032634208410     1.007825032230
         H           -1.865914828192     0.537542449829     1.532797791590     1.007825032230
         H           -2.584881828192     1.106552449829     0.022955791590     1.007825032230
         H            1.921003171808    -1.033127550171    -1.301659208410     1.007825032230
         H            1.888073171808     0.723197449829    -1.057453208410     1.007825032230
         H            2.298240171808     0.432097449829     1.372624791590     1.007825032230
         H            2.318941171808    -1.335551550171     1.189836791590     1.007825032230
         H            3.591086171808    -0.354114550171     0.446868791590     1.007825032230

  Basis Set: AUG-CC-PVTZ
    Blend: AUG-CC-PVTZ
  Basis Set: (AUG-CC-PVTZ AUX)
    Blend: AUG-CC-PVTZ-JKFIT
	 Reference Energy          =    -363.0206764533118644 [Eh]
	 Singles Energy            =      -0.0000000000000000 [Eh]
	 Same-Spin Energy          =      -0.3778884640340564 [Eh]
	 Opposite-Spin Energy      =      -1.2496504111758227 [Eh]
	 Correlation Energy        =      -1.6275388752098792 [Eh]
	 Total Energy              =    -364.6482153285217578 [Eh]

	 ================> DF-SCS-MP2 Energies <==================
	-----------------------------------------------------------
	 SCS Same-Spin Scale       =       0.3333333333333333 [-]
	 SCS Opposite-Spin Scale   =       1.2000000000000000 [-]
	 SCS Same-Spin Energy      =      -0.1259628213446854 [Eh]
	 SCS Opposite-Spin Energy  =      -1.4995804934109871 [Eh]
	 SCS Correlation Energy    =      -1.6255433147556726 [Eh]
	 SCS Total Energy          =    -364.6462197680675104 [Eh]
	-----------------------------------------------------------

  Dipole Moment: [D]
     X:    -0.4823      Y:    -3.9876      Z:     0.0363     Total:     4.0168

*** Psi4 exiting successfully. Buy a developer a beer!
