                               Psi4 1.3.2 release

  ==> Input File <==

--------------------------------------------------------------------------
#psi4
#
memory 32 gb

molecule  {
-1 1
  O       -0.4223990     1.5478120    -0.0024970
  O        2.2587260     0.7160740     0.0027440
  O        1.4389110    -1.4330490    -0.0022200
  C       -1.1980010    -0.7166360     0.0011530
  C       -2.6041790    -0.1343280     0.0009050
  C       -0.1110720     0.3537600    -0.0005690
  C        1.3671383    -0.1672031     0.1500878
  H       -1.0203320    -1.3658690    -0.8629620
  H       -1.0198480    -1.3637170     0.8668160
  H       -2.7610710     0.4967440    -0.8780030
  H       -3.3633830    -0.9249560     0.0021580
  H       -2.7605070     0.4989750     0.8783160
units angstrom
no_reorient  #important for SAPT in psi4, default
symmetry c1  #important for SAPT in psi4, default
}

set PROPERTIES_ORIGIN ["COM"]
properties('MP2/aug-cc-pvtz', properties = ['dipole'])
--------------------------------------------------------------------------

    Molecular point group: c1
  Charge       = -1
  Multiplicity = 1
  Basis Set: AUG-CC-PVTZ
    Blend: AUG-CC-PVTZ
  Basis Set: (AUG-CC-PVTZ AUX)
    Blend: AUG-CC-PVTZ-JKFIT

    Orbital Energies [Eh]
    ---------------------

    Doubly Occupied:

       1A    -20.399190     2A    -20.323010     3A    -20.319594
       4A    -11.174753     5A    -11.167394     6A    -11.098542
       7A    -11.094932     8A     -1.225769     9A     -1.178310
      10A     -1.087516    11A     -0.914422    12A     -0.771025
      13A     -0.655280    14A     -0.545074    15A     -0.492146
      16A     -0.491086    17A     -0.469399    18A     -0.421229
      19A     -0.400924    20A     -0.396138    21A     -0.381724
      22A     -0.359435    23A     -0.331831    24A     -0.310131
      25A     -0.236254    26A     -0.211103    27A     -0.208135

  @DF-RHF Final Energy:  -379.14075265586496

   => Energetics <=

    Nuclear Repulsion Energy =            284.3987478704293039
    One-Electron Energy =               -1093.7503146041424316
    Two-Electron Energy =                 430.2108140778481129
    Total Energy =                       -379.1407526558649579
  Basis Set: (AUG-CC-PVTZ AUX)
    Blend: AUG-CC-PVTZ-RI
    Molecular point group: c1

    Geometry (in Angstrom), charge = -1, multiplicity = 1:

       Center              X                  Y                   Z               Mass
    ------------   -----------------  -----------------  -----------------  -----------------
         O           -0.529533653358     1.521712689731    -0.020252587310    15.994914619570
         O            2.151591346642     0.689974689731    -0.015011587310    15.994914619570
         O            1.331776346642    -1.459148310269    -0.019975587310    15.994914619570
         C           -1.305135653358    -0.742735310269    -0.016602587310    12.000000000000
         C           -2.711313653358    -0.160427310269    -0.016850587310    12.000000000000
         C           -0.218206653358     0.327660689731    -0.018324587310    12.000000000000
         C            1.260003646642    -0.193302410269     0.132332212690    12.000000000000
         H           -1.127466653358    -1.391968310269    -0.880717587310     1.007825032230
         H           -1.126982653358    -1.389816310269     0.849060412690     1.007825032230
         H           -2.868205653358     0.470644689731    -0.895758587310     1.007825032230
         H           -3.470517653358    -0.951055310269    -0.015597587310     1.007825032230
         H           -2.867641653358     0.472875689731     0.860560412690     1.007825032230

  Basis Set: AUG-CC-PVTZ
    Blend: AUG-CC-PVTZ
  Basis Set: (AUG-CC-PVTZ AUX)
    Blend: AUG-CC-PVTZ-JKFIT
	 Reference Energy          =    -379.1407526558649579 [Eh]
	 Singles Energy            =      -0.0000000000000000 [Eh]
	 Same-Spin Energy          =      -0.3745646878758389 [Eh]
	 Opposite-Spin Energy      =      -1.1416466541034276 [Eh]
	 Correlation Energy        =      -1.5162113419792664 [Eh]
	 Total Energy              =    -380.6569639978442297 [Eh]

	 ================> DF-SCS-MP2 Energies <==================
	-----------------------------------------------------------
	 SCS Same-Spin Scale       =       0.3333333333333333 [-]
	 SCS Opposite-Spin Scale   =       1.2000000000000000 [-]
	 SCS Same-Spin Energy      =      -0.1248548959586129 [Eh]
	 SCS Opposite-Spin Energy  =      -1.3699759849241131 [Eh]
	 SCS Correlation Energy    =      -1.4948308808827260 [Eh]
	 SCS Total Energy          =    -380.6355835367476743 [Eh]
	-----------------------------------------------------------

  Dipole Moment: [D]
     X:    -6.5983      Y:    -0.8132      Z:     0.1454     Total:     6.6498

*** Psi4 exiting successfully. Buy a developer a beer!
