                               Psi4 1.3.2 release

  ==> Input File <==

--------------------------------------------------------------------------
#psi4
#
memory 32 gb

molecule  {
-1 1
  O       -0.4223990     1.5478120    -0.0024970
  O        2.2587260     0.7160740     0.0027440
  O        1.4389110    -1.4330490    -0.0022200
  C       -1.1980010    -0.7166360     0.0011530
  C       -2.6041790    -0.1343280     0.0009050
  C       -0.1110720     0.3537600    -0.0005690
  C        1.3671459    -0.1670445     0.2500877
  H       -1.0203320    -1.3658690    -0.8629620
  H       -1.0198480    -1.3637170     0.8668160
  H       -2.7610710     0.4967440    -0.8780030
  H       -3.3633830    -0.9249560     0.0021580
  H       -2.7605070     0.4989750     0.8783160
units angstrom
no_reorient  #important for SAPT in psi4, default
symmetry c1  #important for SAPT in psi4, default
}

set PROPERTIES_ORIGIN ["COM"]
properties('MP2/aug-cc-pvtz', properties = ['dipole'])
--------------------------------------------------------------------------

    Molecular point group: c1
  Charge       = -1
  Multiplicity = 1
  Basis Set: AUG-CC-PVTZ
    Blend: AUG-CC-PVTZ
  Basis Set: (AUG-CC-PVTZ AUX)
    Blend: AUG-CC-PVTZ-JKFIT

    Orbital Energies [Eh]
    ---------------------

    Doubly Occupied:

       1A    -20.399573     2A    -20.324517     3A    -20.321840
       4A    -11.178421     5A    -11.171863     6A    -11.099008
       7A    -11.095846     8A     -1.225565     9A     -1.171639
      10A     -1.078210    11A     -0.914835    12A     -0.770346
      13A     -0.652932    14A     -0.545511    15A     -0.492461
      16A     -0.490689    17A     -0.467196    18A     -0.418586
      19A     -0.399703    20A     -0.393222    21A     -0.381645
      22A     -0.357344    23A     -0.331567    24A     -0.308432
      25A     -0.234464    26A     -0.207115    27A     -0.206518

  @DF-RHF Final Energy:  -379.12061952514512

   => Energetics <=

    Nuclear Repulsion Energy =            283.7495389270305282
    One-Electron Energy =               -1092.4622203558353704
    Two-Electron Energy =                 429.5920619036597827
    Total Energy =                       -379.1206195251451163
  Basis Set: (AUG-CC-PVTZ AUX)
    Blend: AUG-CC-PVTZ-RI
    Molecular point group: c1

    Geometry (in Angstrom), charge = -1, multiplicity = 1:

       Center              X                  Y                   Z               Mass
    ------------   -----------------  -----------------  -----------------  -----------------
         O           -0.529534556115     1.521693850619    -0.032130956369    15.994914619570
         O            2.151590443885     0.689955850619    -0.026889956369    15.994914619570
         O            1.331775443885    -1.459167149381    -0.031853956369    15.994914619570
         C           -1.305136556115    -0.742754149381    -0.028480956369    12.000000000000
         C           -2.711314556115    -0.160446149381    -0.028728956369    12.000000000000
         C           -0.218207556115     0.327641850619    -0.030202956369    12.000000000000
         C            1.260010343885    -0.193162649381     0.220453743631    12.000000000000
         H           -1.127467556115    -1.391987149381    -0.892595956369     1.007825032230
         H           -1.126983556115    -1.389835149381     0.837182043631     1.007825032230
         H           -2.868206556115     0.470625850619    -0.907636956369     1.007825032230
         H           -3.470518556115    -0.951074149381    -0.027475956369     1.007825032230
         H           -2.867642556115     0.472856850619     0.848682043631     1.007825032230

  Basis Set: AUG-CC-PVTZ
    Blend: AUG-CC-PVTZ
  Basis Set: (AUG-CC-PVTZ AUX)
    Blend: AUG-CC-PVTZ-JKFIT
	 Reference Energy          =    -379.1206195251451163 [Eh]
	 Singles Energy            =      -0.0000000000000000 [Eh]
	 Same-Spin Energy          =      -0.3761587966248949 [Eh]
	 Opposite-Spin Energy      =      -1.1455261474911023 [Eh]
	 Correlation Energy        =      -1.5216849441159972 [Eh]
	 Total Energy              =    -380.6423044692610915 [Eh]

	 ================> DF-SCS-MP2 Energies <==================
	-----------------------------------------------------------
	 SCS Same-Spin Scale       =       0.3333333333333333 [-]
	 SCS Opposite-Spin Scale   =       1.2000000000000000 [-]
	 SCS Same-Spin Energy      =      -0.1253862655416316 [Eh]
	 SCS Opposite-Spin Energy  =      -1.3746313769893226 [Eh]
	 SCS Correlation Energy    =      -1.5000176425309542 [Eh]
	 SCS Total Energy          =    -380.6206371676760796 [Eh]
	-----------------------------------------------------------

  Dipole Moment: [D]
     X:    -6.6491      Y:    -0.7891      Z:     0.2194     Total:     6.6993

*** Psi4 exiting successfully. Buy a developer a beer!
