                               Psi4 1.3.2 release

  ==> Input File <==

--------------------------------------------------------------------------
#psi4
#
memory 32 gb

molecule  {
-1 1
  O       -0.4223990     1.5478120    -0.0024970
  O        2.2587260     0.7160740     0.0027440
  O        1.4389110    -1.4330490    -0.0022200
  C       -1.1980010    -0.7166360     0.0011530
  C       -2.6041790    -0.1343280     0.0009050
  C       -0.1110165     0.3538543    -0.0505689
  C        1.3671270    -0.1674410     0.0000880
  H       -1.0203320    -1.3658690    -0.8629620
  H       -1.0198480    -1.3637170     0.8668160
  H       -2.7610710     0.4967440    -0.8780030
  H       -3.3633830    -0.9249560     0.0021580
  H       -2.7605070     0.4989750     0.8783160
units angstrom
no_reorient  #important for SAPT in psi4, default
symmetry c1  #important for SAPT in psi4, default
}

set PROPERTIES_ORIGIN ["COM"]
properties('MP2/aug-cc-pvtz', properties = ['dipole'])
--------------------------------------------------------------------------

    Molecular point group: c1
  Charge       = -1
  Multiplicity = 1
  Basis Set: AUG-CC-PVTZ
    Blend: AUG-CC-PVTZ
  Basis Set: (AUG-CC-PVTZ AUX)
    Blend: AUG-CC-PVTZ-JKFIT

    Orbital Energies [Eh]
    ---------------------

    Doubly Occupied:

       1A    -20.399192     2A    -20.322268     3A    -20.318283
       4A    -11.172853     5A    -11.164872     6A    -11.098237
       7A    -11.094459     8A     -1.225610     9A     -1.182005
      10A     -1.093074    11A     -0.914042    12A     -0.771281
      13A     -0.656477    14A     -0.544720    15A     -0.492282
      16A     -0.490860    17A     -0.470492    18A     -0.422965
      19A     -0.401584    20A     -0.397595    21A     -0.381709
      22A     -0.360639    23A     -0.331612    24A     -0.310957
      25A     -0.237329    26A     -0.213733    27A     -0.208793

  @DF-RHF Final Energy:  -379.15092353808473

   => Energetics <=

    Nuclear Repulsion Energy =            284.7372319787269248
    One-Electron Energy =               -1094.4204623148791597
    Two-Electron Energy =                 430.5323067980675660
    Total Energy =                       -379.1509235380847258
  Basis Set: (AUG-CC-PVTZ AUX)
    Blend: AUG-CC-PVTZ-RI
    Molecular point group: c1

    Geometry (in Angstrom), charge = -1, multiplicity = 1:

       Center              X                  Y                   Z               Mass
    ------------   -----------------  -----------------  -----------------  -----------------
         O           -0.529538903602     1.521729747086     0.003504138930    15.994914619570
         O            2.151586096398     0.689991747086     0.008745138930    15.994914619570
         O            1.331771096398    -1.459131252914     0.003781138930    15.994914619570
         C           -1.305140903602    -0.742718252914     0.007154138930    12.000000000000
         C           -2.711318903602    -0.160410252914     0.006906138930    12.000000000000
         C           -0.218156403602     0.327772047086    -0.044567761070    12.000000000000
         C            1.259987096398    -0.193523252914     0.006089138930    12.000000000000
         H           -1.127471903602    -1.391951252914    -0.856960861070     1.007825032230
         H           -1.126987903602    -1.389799252914     0.872817138930     1.007825032230
         H           -2.868210903602     0.470661747086    -0.872001861070     1.007825032230
         H           -3.470522903602    -0.951038252914     0.008159138930     1.007825032230
         H           -2.867646903602     0.472892747086     0.884317138930     1.007825032230

  Basis Set: AUG-CC-PVTZ
    Blend: AUG-CC-PVTZ
  Basis Set: (AUG-CC-PVTZ AUX)
    Blend: AUG-CC-PVTZ-JKFIT
	 Reference Energy          =    -379.1509235380847258 [Eh]
	 Singles Energy            =      -0.0000000000000000 [Eh]
	 Same-Spin Energy          =      -0.3737408481710571 [Eh]
	 Opposite-Spin Energy      =      -1.1397430651737599 [Eh]
	 Correlation Energy        =      -1.5134839133448170 [Eh]
	 Total Energy              =    -380.6644074514295539 [Eh]

	 ================> DF-SCS-MP2 Energies <==================
	-----------------------------------------------------------
	 SCS Same-Spin Scale       =       0.3333333333333333 [-]
	 SCS Opposite-Spin Scale   =       1.2000000000000000 [-]
	 SCS Same-Spin Energy      =      -0.1245802827236857 [Eh]
	 SCS Opposite-Spin Energy  =      -1.3676916782085118 [Eh]
	 SCS Correlation Energy    =      -1.4922719609321975 [Eh]
	 SCS Total Energy          =    -380.6431954990169402 [Eh]
	-----------------------------------------------------------

  Dipole Moment: [D]
     X:    -6.5655      Y:    -0.8272      Z:    -0.0692     Total:     6.6177

*** Psi4 exiting successfully. Buy a developer a beer!
