                               Psi4 1.3.2 release

  ==> Input File <==

--------------------------------------------------------------------------
#psi4
#
memory 32 gb

molecule  {
-1 1
  O       -0.4223990     1.5478120    -0.0024970
  O        2.2587260     0.7160740     0.0027440
  O        1.4389110    -1.4330490    -0.0022200
  C       -1.1980010    -0.7166360     0.0011530
  C       -2.6041790    -0.1343280     0.0009050
  C       -0.1110720     0.3537600    -0.0005690
  C        1.3671346    -0.1672824     0.1000879
  H       -1.0203320    -1.3658690    -0.8629620
  H       -1.0198480    -1.3637170     0.8668160
  H       -2.7610710     0.4967440    -0.8780030
  H       -3.3633830    -0.9249560     0.0021580
  H       -2.7605070     0.4989750     0.8783160
units angstrom
no_reorient  #important for SAPT in psi4, default
symmetry c1  #important for SAPT in psi4, default
}

set PROPERTIES_ORIGIN ["COM"]
properties('MP2/aug-cc-pvtz', properties = ['dipole'])
--------------------------------------------------------------------------

    Molecular point group: c1
  Charge       = -1
  Multiplicity = 1
  Basis Set: AUG-CC-PVTZ
    Blend: AUG-CC-PVTZ
  Basis Set: (AUG-CC-PVTZ AUX)
    Blend: AUG-CC-PVTZ-JKFIT

    Orbital Energies [Eh]
    ---------------------

    Doubly Occupied:

       1A    -20.399093     2A    -20.322529     3A    -20.318858
       4A    -11.173598     5A    -11.165890     6A    -11.098401
       7A    -11.094655     8A     -1.225888     9A     -1.180372
      10A     -1.090549    11A     -0.914301    12A     -0.771267
      13A     -0.656039    14A     -0.544950    15A     -0.492031
      16A     -0.491266    17A     -0.470081    18A     -0.422179
      19A     -0.401322    20A     -0.397002    21A     -0.381741
      22A     -0.360124    23A     -0.331868    24A     -0.310674
      25A     -0.236818    26A     -0.212518    27A     -0.208556

  @DF-RHF Final Energy:  -379.14703873535672

   => Energetics <=

    Nuclear Repulsion Energy =            284.6059479182196128
    One-Electron Energy =               -1094.1608259828171867
    Two-Electron Energy =                 430.4078393292408578
    Total Energy =                       -379.1470387353567162
  Basis Set: (AUG-CC-PVTZ AUX)
    Blend: AUG-CC-PVTZ-RI
    Molecular point group: c1

    Geometry (in Angstrom), charge = -1, multiplicity = 1:

       Center              X                  Y                   Z               Mass
    ------------   -----------------  -----------------  -----------------  -----------------
         O           -0.529533213858     1.521722109287    -0.014313408720    15.994914619570
         O            2.151591786142     0.689984109287    -0.009072408720    15.994914619570
         O            1.331776786142    -1.459138890713    -0.014036408720    15.994914619570
         C           -1.305135213858    -0.742725890713    -0.010663408720    12.000000000000
         C           -2.711313213858    -0.160417890713    -0.010911408720    12.000000000000
         C           -0.218206213858     0.327670109287    -0.012385408720    12.000000000000
         C            1.260000386142    -0.193372290713     0.088271491280    12.000000000000
         H           -1.127466213858    -1.391958890713    -0.874778408720     1.007825032230
         H           -1.126982213858    -1.389806890713     0.854999591280     1.007825032230
         H           -2.868205213858     0.470654109287    -0.889819408720     1.007825032230
         H           -3.470517213858    -0.951045890713    -0.009658408720     1.007825032230
         H           -2.867641213858     0.472885109287     0.866499591280     1.007825032230

  Basis Set: AUG-CC-PVTZ
    Blend: AUG-CC-PVTZ
  Basis Set: (AUG-CC-PVTZ AUX)
    Blend: AUG-CC-PVTZ-JKFIT
	 Reference Energy          =    -379.1470387353567162 [Eh]
	 Singles Energy            =      -0.0000000000000000 [Eh]
	 Same-Spin Energy          =      -0.3740678165546691 [Eh]
	 Opposite-Spin Energy      =      -1.1404711883645007 [Eh]
	 Correlation Energy        =      -1.5145390049191698 [Eh]
	 Total Energy              =    -380.6615777402759022 [Eh]

	 ================> DF-SCS-MP2 Energies <==================
	-----------------------------------------------------------
	 SCS Same-Spin Scale       =       0.3333333333333333 [-]
	 SCS Opposite-Spin Scale   =       1.2000000000000000 [-]
	 SCS Same-Spin Energy      =      -0.1246892721848897 [Eh]
	 SCS Opposite-Spin Energy  =      -1.3685654260374007 [Eh]
	 SCS Correlation Energy    =      -1.4932546982222905 [Eh]
	 SCS Total Energy          =    -380.6402934335790178 [Eh]
	-----------------------------------------------------------

  Dipole Moment: [D]
     X:    -6.5837      Y:    -0.8210      Z:     0.1004     Total:     6.6354

*** Psi4 exiting successfully. Buy a developer a beer!
