                               Psi4 1.3.2 release

  ==> Input File <==

--------------------------------------------------------------------------
#psi4
#
memory 32 gb

molecule  {
-1 1
  O       -0.4223990     1.5478120    -0.0024970
  O        2.2587260     0.7160740     0.0027440
  O        1.4389110    -1.4330490    -0.0022200
  C       -1.1980010    -0.7166360     0.0011530
  C       -2.6041790    -0.1343280     0.0009050
  C       -0.1109056     0.3540430    -0.1505686
  C        1.3671270    -0.1674410     0.0000880
  H       -1.0203320    -1.3658690    -0.8629620
  H       -1.0198480    -1.3637170     0.8668160
  H       -2.7610710     0.4967440    -0.8780030
  H       -3.3633830    -0.9249560     0.0021580
  H       -2.7605070     0.4989750     0.8783160
units angstrom
no_reorient  #important for SAPT in psi4, default
symmetry c1  #important for SAPT in psi4, default
}

set PROPERTIES_ORIGIN ["COM"]
properties('MP2/aug-cc-pvtz', properties = ['dipole'])
--------------------------------------------------------------------------

    Molecular point group: c1
  Charge       = -1
  Multiplicity = 1
  Basis Set: AUG-CC-PVTZ
    Blend: AUG-CC-PVTZ
  Basis Set: (AUG-CC-PVTZ AUX)
    Blend: AUG-CC-PVTZ-JKFIT

    Orbital Energies [Eh]
    ---------------------

    Doubly Occupied:

       1A    -20.400507     2A    -20.323019     3A    -20.318846
       4A    -11.174340     5A    -11.166697     6A    -11.097805
       7A    -11.094619     8A     -1.222070     9A     -1.181797
      10A     -1.093600    11A     -0.912839    12A     -0.769910
      13A     -0.655094    14A     -0.543636    15A     -0.492585
      16A     -0.488727    17A     -0.469351    18A     -0.422903
      19A     -0.400830    20A     -0.397146    21A     -0.381280
      22A     -0.360375    23A     -0.329159    24A     -0.309623
      25A     -0.237876    26A     -0.214241    27A     -0.208129

  @DF-RHF Final Energy:  -379.14172279591065

   => Energetics <=

    Nuclear Repulsion Energy =            284.4473790292580588
    One-Electron Energy =               -1093.8441984246460379
    Two-Electron Energy =                 430.2550965994773264
    Total Energy =                       -379.1417227959106526
  Basis Set: (AUG-CC-PVTZ AUX)
    Blend: AUG-CC-PVTZ-RI
    Molecular point group: c1

    Geometry (in Angstrom), charge = -1, multiplicity = 1:

       Center              X                  Y                   Z               Mass
    ------------   -----------------  -----------------  -----------------  -----------------
         O           -0.529552076727     1.521707332581     0.015382484232    15.994914619570
         O            2.151572923273     0.689969332581     0.020623484232    15.994914619570
         O            1.331757923273    -1.459153667419     0.015659484232    15.994914619570
         C           -1.305154076727    -0.742740667419     0.019032484232    12.000000000000
         C           -2.711332076727    -0.160432667419     0.018784484232    12.000000000000
         C           -0.218058676727     0.327938332581    -0.132689115768    12.000000000000
         C            1.259973923273    -0.193545667419     0.017967484232    12.000000000000
         H           -1.127485076727    -1.391973667419    -0.845082515768     1.007825032230
         H           -1.127001076727    -1.389821667419     0.884695484232     1.007825032230
         H           -2.868224076727     0.470639332581    -0.860123515768     1.007825032230
         H           -3.470536076727    -0.951060667419     0.020037484232     1.007825032230
         H           -2.867660076727     0.472870332581     0.896195484232     1.007825032230

  Basis Set: AUG-CC-PVTZ
    Blend: AUG-CC-PVTZ
  Basis Set: (AUG-CC-PVTZ AUX)
    Blend: AUG-CC-PVTZ-JKFIT
	 Reference Energy          =    -379.1417227959106526 [Eh]
	 Singles Energy            =      -0.0000000000000000 [Eh]
	 Same-Spin Energy          =      -0.3743308611241678 [Eh]
	 Opposite-Spin Energy      =      -1.1412685610421467 [Eh]
	 Correlation Energy        =      -1.5155994221663145 [Eh]
	 Total Energy              =    -380.6573222180769562 [Eh]

	 ================> DF-SCS-MP2 Energies <==================
	-----------------------------------------------------------
	 SCS Same-Spin Scale       =       0.3333333333333333 [-]
	 SCS Opposite-Spin Scale   =       1.2000000000000000 [-]
	 SCS Same-Spin Energy      =      -0.1247769537080559 [Eh]
	 SCS Opposite-Spin Energy  =      -1.3695222732505761 [Eh]
	 SCS Correlation Energy    =      -1.4942992269586319 [Eh]
	 SCS Total Energy          =    -380.6360220228692697 [Eh]
	-----------------------------------------------------------

  Dipole Moment: [D]
     X:    -6.5046      Y:    -0.8189      Z:    -0.2066     Total:     6.5592

*** Psi4 exiting successfully. Buy a developer a beer!
