                               Psi4 1.3.2 release

  ==> Input File <==

--------------------------------------------------------------------------
#psi4
#
memory 32 gb

molecule  {
-1 1
  O       -0.4223990     1.5478120    -0.0024970
  O        2.2587260     0.7160740     0.0027440
  O        1.4389110    -1.4330490    -0.0022200
  C       -1.1980010    -0.7166360     0.0011530
  C       -2.6041790    -0.1343280     0.0009050
  C       -0.1109610     0.3539487    -0.1005688
  C        1.3671270    -0.1674410     0.0000880
  H       -1.0203320    -1.3658690    -0.8629620
  H       -1.0198480    -1.3637170     0.8668160
  H       -2.7610710     0.4967440    -0.8780030
  H       -3.3633830    -0.9249560     0.0021580
  H       -2.7605070     0.4989750     0.8783160
units angstrom
no_reorient  #important for SAPT in psi4, default
symmetry c1  #important for SAPT in psi4, default
}

set PROPERTIES_ORIGIN ["COM"]
properties('MP2/aug-cc-pvtz', properties = ['dipole'])
--------------------------------------------------------------------------

    Molecular point group: c1
  Charge       = -1
  Multiplicity = 1
  Basis Set: AUG-CC-PVTZ
    Blend: AUG-CC-PVTZ
  Basis Set: (AUG-CC-PVTZ AUX)
    Blend: AUG-CC-PVTZ-JKFIT

    Orbital Energies [Eh]
    ---------------------

    Doubly Occupied:

       1A    -20.399690     2A    -20.322543     3A    -20.318490
       4A    -11.173420     5A    -11.165553     6A    -11.098074
       7A    -11.094521     8A     -1.224283     9A     -1.181938
      10A     -1.093267    11A     -0.913582    12A     -0.770758
      13A     -0.655952    14A     -0.544313    15A     -0.492572
      16A     -0.489867    17A     -0.470079    18A     -0.422936
      19A     -0.401293    20A     -0.397430    21A     -0.381556
      22A     -0.360535    23A     -0.330696    24A     -0.310456
      25A     -0.237531    26A     -0.213920    27A     -0.208538

  @DF-RHF Final Energy:  -379.14747461728302

   => Energetics <=

    Nuclear Repulsion Energy =            284.6282288411193235
    One-Electron Energy =               -1094.2038198749780804
    Two-Electron Energy =                 430.4281164165756763
    Total Energy =                       -379.1474746172830237
  Basis Set: (AUG-CC-PVTZ AUX)
    Blend: AUG-CC-PVTZ-RI
    Molecular point group: c1

    Geometry (in Angstrom), charge = -1, multiplicity = 1:

       Center              X                  Y                   Z               Mass
    ------------   -----------------  -----------------  -----------------  -----------------
         O           -0.529545496104     1.521718533895     0.009443317520    15.994914619570
         O            2.151579503896     0.689980533895     0.014684317520    15.994914619570
         O            1.331764503896    -1.459142466105     0.009720317520    15.994914619570
         C           -1.305147496104    -0.742729466105     0.013093317520    12.000000000000
         C           -2.711325496104    -0.160421466105     0.012845317520    12.000000000000
         C           -0.218107496104     0.327855233895    -0.088628482480    12.000000000000
         C            1.259980503896    -0.193534466105     0.012028317520    12.000000000000
         H           -1.127478496104    -1.391962466105    -0.851021682480     1.007825032230
         H           -1.126994496104    -1.389810466105     0.878756317520     1.007825032230
         H           -2.868217496104     0.470650533895    -0.866062682480     1.007825032230
         H           -3.470529496104    -0.951049466105     0.014098317520     1.007825032230
         H           -2.867653496104     0.472881533895     0.890256317520     1.007825032230

  Basis Set: AUG-CC-PVTZ
    Blend: AUG-CC-PVTZ
  Basis Set: (AUG-CC-PVTZ AUX)
    Blend: AUG-CC-PVTZ-JKFIT
	 Reference Energy          =    -379.1474746172830237 [Eh]
	 Singles Energy            =      -0.0000000000000000 [Eh]
	 Same-Spin Energy          =      -0.3739598352006147 [Eh]
	 Opposite-Spin Energy      =      -1.1403109965458977 [Eh]
	 Correlation Energy        =      -1.5142708317465123 [Eh]
	 Total Energy              =    -380.6617454490295245 [Eh]

	 ================> DF-SCS-MP2 Energies <==================
	-----------------------------------------------------------
	 SCS Same-Spin Scale       =       0.3333333333333333 [-]
	 SCS Opposite-Spin Scale   =       1.2000000000000000 [-]
	 SCS Same-Spin Energy      =      -0.1246532784002049 [Eh]
	 SCS Opposite-Spin Energy  =      -1.3683731958550773 [Eh]
	 SCS Correlation Energy    =      -1.4930264742552821 [Eh]
	 SCS Total Energy          =    -380.6405010915382832 [Eh]
	-----------------------------------------------------------

  Dipole Moment: [D]
     X:    -6.5428      Y:    -0.8238      Z:    -0.1393     Total:     6.5959

*** Psi4 exiting successfully. Buy a developer a beer!
