                               Psi4 1.3.2 release

  ==> Input File <==

--------------------------------------------------------------------------
#psi4
#
memory 32 gb

molecule  {
-1 1
  O       -0.4223990     1.5478120    -0.0024970
  O        2.2587260     0.7160740     0.0027440
  O        1.4389110    -1.4330490    -0.0022200
  C       -1.1980010    -0.7166360     0.0011530
  C       -2.6041790    -0.1343280     0.0009050
  C       -0.1110720     0.3537600    -0.0005690
  C        1.3671497    -0.1669652     0.3000876
  H       -1.0203320    -1.3658690    -0.8629620
  H       -1.0198480    -1.3637170     0.8668160
  H       -2.7610710     0.4967440    -0.8780030
  H       -3.3633830    -0.9249560     0.0021580
  H       -2.7605070     0.4989750     0.8783160
units angstrom
no_reorient  #important for SAPT in psi4, default
symmetry c1  #important for SAPT in psi4, default
}

set PROPERTIES_ORIGIN ["COM"]
properties('MP2/aug-cc-pvtz', properties = ['dipole'])
--------------------------------------------------------------------------

    Molecular point group: c1
  Charge       = -1
  Multiplicity = 1
  Basis Set: AUG-CC-PVTZ
    Blend: AUG-CC-PVTZ
  Basis Set: (AUG-CC-PVTZ AUX)
    Blend: AUG-CC-PVTZ-JKFIT

    Orbital Energies [Eh]
    ---------------------

    Doubly Occupied:

       1A    -20.399903     2A    -20.325504     3A    -20.323322
       4A    -11.180924     5A    -11.174652     6A    -11.099342
       7A    -11.096491     8A     -1.225562     9A     -1.167018
      10A     -1.072160    11A     -0.915140    12A     -0.769957
      13A     -0.651390    14A     -0.545845    15A     -0.492678
      16A     -0.490515    17A     -0.465677    18A     -0.417140
      19A     -0.398878    20A     -0.391081    21A     -0.381562
      22A     -0.356041    23A     -0.331251    24A     -0.307279
      25A     -0.233256    26A     -0.206106    27A     -0.203899

  @DF-RHF Final Energy:  -379.10679529176150

   => Energetics <=

    Nuclear Repulsion Energy =            283.3149684056799629
    One-Electron Energy =               -1091.5983847786339993
    Two-Electron Energy =                 429.1766210811924793
    Total Energy =                       -379.1067952917615003
  Basis Set: (AUG-CC-PVTZ AUX)
    Blend: AUG-CC-PVTZ-RI
    Molecular point group: c1

    Geometry (in Angstrom), charge = -1, multiplicity = 1:

       Center              X                  Y                   Z               Mass
    ------------   -----------------  -----------------  -----------------  -----------------
         O           -0.529535007493     1.521684431063    -0.038070134960    15.994914619570
         O            2.151589992507     0.689946431063    -0.032829134960    15.994914619570
         O            1.331774992507    -1.459176568937    -0.037793134960    15.994914619570
         C           -1.305137007493    -0.742763568937    -0.034420134960    12.000000000000
         C           -2.711315007493    -0.160455568937    -0.034668134960    12.000000000000
         C           -0.218208007493     0.327632431063    -0.036142134960    12.000000000000
         C            1.260013692507    -0.193092768937     0.264514465040    12.000000000000
         H           -1.127468007493    -1.391996568937    -0.898535134960     1.007825032230
         H           -1.126984007493    -1.389844568937     0.831242865040     1.007825032230
         H           -2.868207007493     0.470616431063    -0.913576134960     1.007825032230
         H           -3.470519007493    -0.951083568937    -0.033415134960     1.007825032230
         H           -2.867643007493     0.472847431063     0.842742865040     1.007825032230

  Basis Set: AUG-CC-PVTZ
    Blend: AUG-CC-PVTZ
  Basis Set: (AUG-CC-PVTZ AUX)
    Blend: AUG-CC-PVTZ-JKFIT
	 Reference Energy          =    -379.1067952917615003 [Eh]
	 Singles Energy            =      -0.0000000000000000 [Eh]
	 Same-Spin Energy          =      -0.3772556220425123 [Eh]
	 Opposite-Spin Energy      =      -1.1482514474718910 [Eh]
	 Correlation Energy        =      -1.5255070695144033 [Eh]
	 Total Energy              =    -380.6323023612758902 [Eh]

	 ================> DF-SCS-MP2 Energies <==================
	-----------------------------------------------------------
	 SCS Same-Spin Scale       =       0.3333333333333333 [-]
	 SCS Opposite-Spin Scale   =       1.2000000000000000 [-]
	 SCS Same-Spin Energy      =      -0.1257518740141708 [Eh]
	 SCS Opposite-Spin Energy  =      -1.3779017369662692 [Eh]
	 SCS Correlation Energy    =      -1.5036536109804399 [Eh]
	 SCS Total Energy          =    -380.6104489027419504 [Eh]
	-----------------------------------------------------------

  Dipole Moment: [D]
     X:    -6.6872      Y:    -0.7721      Z:     0.2456     Total:     6.7361

*** Psi4 exiting successfully. Buy a developer a beer!
