                               Psi4 1.3.2 release

  ==> Input File <==

--------------------------------------------------------------------------
#psi4
#
memory 32 gb

molecule  {
-1 1
  O       -0.4223990     1.5478120    -0.0024970
  O        2.2587260     0.7160740     0.0027440
  O        1.4389110    -1.4330490    -0.0022200
  C       -1.1980010    -0.7166360     0.0011530
  C       -2.6041790    -0.1343280     0.0009050
  C       -0.1107391     0.3543260    -0.3005683
  C        1.3671270    -0.1674410     0.0000880
  H       -1.0203320    -1.3658690    -0.8629620
  H       -1.0198480    -1.3637170     0.8668160
  H       -2.7610710     0.4967440    -0.8780030
  H       -3.3633830    -0.9249560     0.0021580
  H       -2.7605070     0.4989750     0.8783160
units angstrom
no_reorient  #important for SAPT in psi4, default
symmetry c1  #important for SAPT in psi4, default
}

set PROPERTIES_ORIGIN ["COM"]
properties('MP2/aug-cc-pvtz', properties = ['dipole'])
--------------------------------------------------------------------------

    Molecular point group: c1
  Charge       = -1
  Multiplicity = 1
  Basis Set: AUG-CC-PVTZ
    Blend: AUG-CC-PVTZ
  Basis Set: (AUG-CC-PVTZ AUX)
    Blend: AUG-CC-PVTZ-JKFIT

    Orbital Energies [Eh]
    ---------------------

    Doubly Occupied:

       1A    -20.404763     2A    -20.325888     3A    -20.321036
       4A    -11.178653     5A    -11.172960     6A    -11.096356
       7A    -11.094903     8A     -1.211514     9A     -1.180216
      10A     -1.095618    11A     -0.908968    12A     -0.765439
      13A     -0.650793    14A     -0.540083    15A     -0.491013
      16A     -0.485074    17A     -0.464908    18A     -0.423036
      19A     -0.398933    20A     -0.395424    21A     -0.379440
      22A     -0.359509    23A     -0.321253    24A     -0.305183
      25A     -0.239897    26A     -0.216189    27A     -0.206003

  @DF-RHF Final Energy:  -379.11086285569235

   => Energetics <=

    Nuclear Repulsion Energy =            283.4957406710313990
    One-Electron Energy =               -1091.9471025055242990
    Two-Electron Energy =                 429.3404989788005537
    Total Energy =                       -379.1108628556923463
  Basis Set: (AUG-CC-PVTZ AUX)
    Blend: AUG-CC-PVTZ-RI
    Molecular point group: c1

    Geometry (in Angstrom), charge = -1, multiplicity = 1:

       Center              X                  Y                   Z               Mass
    ------------   -----------------  -----------------  -----------------  -----------------
         O           -0.529571854231     1.521673716763     0.033200020003    15.994914619570
         O            2.151553145769     0.689935716763     0.038441020003    15.994914619570
         O            1.331738145769    -1.459187283237     0.033477020003    15.994914619570
         C           -1.305173854231    -0.742774283237     0.036850020003    12.000000000000
         C           -2.711351854231    -0.160466283237     0.036602020003    12.000000000000
         C           -0.217911954231     0.328187716763    -0.264871279997    12.000000000000
         C            1.259954145769    -0.193579283237     0.035785020003    12.000000000000
         H           -1.127504854231    -1.392007283237    -0.827264979997     1.007825032230
         H           -1.127020854231    -1.389855283237     0.902513020003     1.007825032230
         H           -2.868243854231     0.470605716763    -0.842305979997     1.007825032230
         H           -3.470555854231    -0.951094283237     0.037855020003     1.007825032230
         H           -2.867679854231     0.472836716763     0.914013020003     1.007825032230

  Basis Set: AUG-CC-PVTZ
    Blend: AUG-CC-PVTZ
  Basis Set: (AUG-CC-PVTZ AUX)
    Blend: AUG-CC-PVTZ-JKFIT
	 Reference Energy          =    -379.1108628556923463 [Eh]
	 Singles Energy            =      -0.0000000000000000 [Eh]
	 Same-Spin Energy          =      -0.3763946767850306 [Eh]
	 Opposite-Spin Energy      =      -1.1465527412230374 [Eh]
	 Correlation Energy        =      -1.5229474180080680 [Eh]
	 Total Energy              =    -380.6338102737004192 [Eh]

	 ================> DF-SCS-MP2 Energies <==================
	-----------------------------------------------------------
	 SCS Same-Spin Scale       =       0.3333333333333333 [-]
	 SCS Opposite-Spin Scale   =       1.2000000000000000 [-]
	 SCS Same-Spin Energy      =      -0.1254648922616768 [Eh]
	 SCS Opposite-Spin Energy  =      -1.3758632894676448 [Eh]
	 SCS Correlation Energy    =      -1.5013281817293216 [Eh]
	 SCS Total Energy          =    -380.6121910374216668 [Eh]
	-----------------------------------------------------------

  Dipole Moment: [D]
     X:    -6.2823      Y:    -0.8030      Z:    -0.3771     Total:     6.3446

*** Psi4 exiting successfully. Buy a developer a beer!
