                               Psi4 1.3.2 release

  ==> Input File <==

--------------------------------------------------------------------------
#psi4
#
memory 32 gb

molecule  {
-1 1
  O       -0.4223990     1.5478120    -0.0024970
  O        2.2587260     0.7160740     0.0027440
  O        1.4389110    -1.4330490    -0.0022200
  C       -1.1980010    -0.7166360     0.0011530
  C       -2.6041790    -0.1343280     0.0009050
  C       -0.1107946     0.3542316    -0.2505684
  C        1.3671270    -0.1674410     0.0000880
  H       -1.0203320    -1.3658690    -0.8629620
  H       -1.0198480    -1.3637170     0.8668160
  H       -2.7610710     0.4967440    -0.8780030
  H       -3.3633830    -0.9249560     0.0021580
  H       -2.7605070     0.4989750     0.8783160
units angstrom
no_reorient  #important for SAPT in psi4, default
symmetry c1  #important for SAPT in psi4, default
}

set PROPERTIES_ORIGIN ["COM"]
properties('MP2/aug-cc-pvtz', properties = ['dipole'])
--------------------------------------------------------------------------

    Molecular point group: c1
  Charge       = -1
  Multiplicity = 1
  Basis Set: AUG-CC-PVTZ
    Blend: AUG-CC-PVTZ
  Basis Set: (AUG-CC-PVTZ AUX)
    Blend: AUG-CC-PVTZ-JKFIT

    Orbital Energies [Eh]
    ---------------------

    Doubly Occupied:

       1A    -20.403058     2A    -20.324659     3A    -20.320089
       4A    -11.177027     5A    -11.170392     6A    -11.096946
       7A    -11.094842     8A     -1.215466     9A     -1.181065
      10A     -1.094751    11A     -0.910524    12A     -0.767246
      13A     -0.652480    14A     -0.541504    15A     -0.491775
      16A     -0.486289    17A     -0.466796    18A     -0.422918
      19A     -0.399582    20A     -0.396160    21A     -0.380250
      22A     -0.359875    23A     -0.324382    24A     -0.306983
      25A     -0.239041    26A     -0.215352    27A     -0.206859

  @DF-RHF Final Energy:  -379.12338019822215

   => Energetics <=

    Nuclear Repulsion Energy =            283.8782961792015271
    One-Electron Energy =               -1092.7107288729050651
    Two-Electron Energy =                 429.7090524954814441
    Total Energy =                       -379.1233801982221507
  Basis Set: (AUG-CC-PVTZ AUX)
    Blend: AUG-CC-PVTZ-RI
    Molecular point group: c1

    Geometry (in Angstrom), charge = -1, multiplicity = 1:

       Center              X                  Y                   Z               Mass
    ------------   -----------------  -----------------  -----------------  -----------------
         O           -0.529565261730     1.521684929955     0.027260841413    15.994914619570
         O            2.151559738270     0.689946929955     0.032501841413    15.994914619570
         O            1.331744738270    -1.459176070045     0.027537841413    15.994914619570
         C           -1.305167261730    -0.742763070045     0.030910841413    12.000000000000
         C           -2.711345261730    -0.160455070045     0.030662841413    12.000000000000
         C           -0.217960861730     0.328104529955    -0.220810558587    12.000000000000
         C            1.259960738270    -0.193568070045     0.029845841413    12.000000000000
         H           -1.127498261730    -1.391996070045    -0.833204158587     1.007825032230
         H           -1.127014261730    -1.389844070045     0.896573841413     1.007825032230
         H           -2.868237261730     0.470616929955    -0.848245158587     1.007825032230
         H           -3.470549261730    -0.951083070045     0.031915841413     1.007825032230
         H           -2.867673261730     0.472847929955     0.908073841413     1.007825032230

  Basis Set: AUG-CC-PVTZ
    Blend: AUG-CC-PVTZ
  Basis Set: (AUG-CC-PVTZ AUX)
    Blend: AUG-CC-PVTZ-JKFIT
	 Reference Energy          =    -379.1233801982221507 [Eh]
	 Singles Energy            =      -0.0000000000000000 [Eh]
	 Same-Spin Energy          =      -0.3755439701827112 [Eh]
	 Opposite-Spin Energy      =      -1.1443766397834696 [Eh]
	 Correlation Energy        =      -1.5199206099661808 [Eh]
	 Total Energy              =    -380.6433008081883145 [Eh]

	 ================> DF-SCS-MP2 Energies <==================
	-----------------------------------------------------------
	 SCS Same-Spin Scale       =       0.3333333333333333 [-]
	 SCS Opposite-Spin Scale   =       1.2000000000000000 [-]
	 SCS Same-Spin Energy      =      -0.1251813233942371 [Eh]
	 SCS Opposite-Spin Energy  =      -1.3732519677401636 [Eh]
	 SCS Correlation Energy    =      -1.4984332911344007 [Eh]
	 SCS Total Energy          =    -380.6218134893565548 [Eh]
	-----------------------------------------------------------

  Dipole Moment: [D]
     X:    -6.3762      Y:    -0.8076      Z:    -0.3270     Total:     6.4354

*** Psi4 exiting successfully. Buy a developer a beer!
