                               Psi4 1.3.2 release

  ==> Input File <==

--------------------------------------------------------------------------
#psi4
#
memory 32 gb

molecule  {
-1 1
  O       -0.4223990     1.5478120    -0.0024970
  O        2.2587260     0.7160740     0.0027440
  O        1.4389110    -1.4330490    -0.0022200
  C       -1.1980010    -0.7166360     0.0011530
  C       -2.6041790    -0.1343280     0.0009050
  C       -0.1108501     0.3541373    -0.2005685
  C        1.3671270    -0.1674410     0.0000880
  H       -1.0203320    -1.3658690    -0.8629620
  H       -1.0198480    -1.3637170     0.8668160
  H       -2.7610710     0.4967440    -0.8780030
  H       -3.3633830    -0.9249560     0.0021580
  H       -2.7605070     0.4989750     0.8783160
units angstrom
no_reorient  #important for SAPT in psi4, default
symmetry c1  #important for SAPT in psi4, default
}

set PROPERTIES_ORIGIN ["COM"]
properties('MP2/aug-cc-pvtz', properties = ['dipole'])
--------------------------------------------------------------------------

    Molecular point group: c1
  Charge       = -1
  Multiplicity = 1
  Basis Set: AUG-CC-PVTZ
    Blend: AUG-CC-PVTZ
  Basis Set: (AUG-CC-PVTZ AUX)
    Blend: AUG-CC-PVTZ-JKFIT

    Orbital Energies [Eh]
    ---------------------

    Doubly Occupied:

       1A    -20.401634     2A    -20.323715     3A    -20.319371
       4A    -11.175564     5A    -11.168307     6A    -11.097430
       7A    -11.094735     8A     -1.219075     9A     -1.181536
      10A     -1.094087    11A     -0.911817    12A     -0.768738
      13A     -0.653926    14A     -0.542695    15A     -0.492314
      16A     -0.487515    17A     -0.468270    18A     -0.422887
      19A     -0.400239    20A     -0.396729    21A     -0.380854
      22A     -0.360157    23A     -0.327038    24A     -0.308463
      25A     -0.238374    26A     -0.214712    27A     -0.207568

  @DF-RHF Final Energy:  -379.13368229420894

   => Energetics <=

    Nuclear Repulsion Energy =            284.1965537127767902
    One-Electron Energy =               -1093.3449738057413470
    Two-Electron Energy =                 430.0147377987556183
    Total Energy =                       -379.1336822942089384
  Basis Set: (AUG-CC-PVTZ AUX)
    Blend: AUG-CC-PVTZ-RI
    Molecular point group: c1

    Geometry (in Angstrom), charge = -1, multiplicity = 1:

       Center              X                  Y                   Z               Mass
    ------------   -----------------  -----------------  -----------------  -----------------
         O           -0.529558669228     1.521696131268     0.021321662823    15.994914619570
         O            2.151566330772     0.689958131268     0.026562662823    15.994914619570
         O            1.331751330772    -1.459164868732     0.021598662823    15.994914619570
         C           -1.305160669228    -0.742751868732     0.024971662823    12.000000000000
         C           -2.711338669228    -0.160443868732     0.024723662823    12.000000000000
         C           -0.218009769228     0.328021431268    -0.176749837177    12.000000000000
         C            1.259967330772    -0.193556868732     0.023906662823    12.000000000000
         H           -1.127491669228    -1.391984868732    -0.839143337177     1.007825032230
         H           -1.127007669228    -1.389832868732     0.890634662823     1.007825032230
         H           -2.868230669228     0.470628131268    -0.854184337177     1.007825032230
         H           -3.470542669228    -0.951071868732     0.025976662823     1.007825032230
         H           -2.867666669228     0.472859131268     0.902134662823     1.007825032230

  Basis Set: AUG-CC-PVTZ
    Blend: AUG-CC-PVTZ
  Basis Set: (AUG-CC-PVTZ AUX)
    Blend: AUG-CC-PVTZ-JKFIT
	 Reference Energy          =    -379.1336822942089384 [Eh]
	 Singles Energy            =      -0.0000000000000000 [Eh]
	 Same-Spin Energy          =      -0.3748575263554896 [Eh]
	 Opposite-Spin Energy      =      -1.1426205768519715 [Eh]
	 Correlation Energy        =      -1.5174781032074611 [Eh]
	 Total Energy              =    -380.6511603974163904 [Eh]

	 ================> DF-SCS-MP2 Energies <==================
	-----------------------------------------------------------
	 SCS Same-Spin Scale       =       0.3333333333333333 [-]
	 SCS Opposite-Spin Scale   =       1.2000000000000000 [-]
	 SCS Same-Spin Energy      =      -0.1249525087851632 [Eh]
	 SCS Opposite-Spin Energy  =      -1.3711446922223658 [Eh]
	 SCS Correlation Energy    =      -1.4960972010075291 [Eh]
	 SCS Total Energy          =    -380.6297794952164395 [Eh]
	-----------------------------------------------------------

  Dipole Moment: [D]
     X:    -6.4496      Y:    -0.8133      Z:    -0.2697     Total:     6.5062

*** Psi4 exiting successfully. Buy a developer a beer!
