                               Psi4 1.3.2 release

  ==> Input File <==

--------------------------------------------------------------------------
#psi4
#
memory 32 gb

molecule  {
-1 1
  O       -0.4223990     1.5478120    -0.0024970
  O        2.2587260     0.7160740     0.0027440
  O        1.4389110    -1.4330490    -0.0022200
  C       -1.1980010    -0.7166360     0.0011530
  C       -2.6041790    -0.1343280     0.0009050
  C       -0.1110720     0.3537600    -0.0005690
  C        1.3671421    -0.1671238     0.2000877
  H       -1.0203320    -1.3658690    -0.8629620
  H       -1.0198480    -1.3637170     0.8668160
  H       -2.7610710     0.4967440    -0.8780030
  H       -3.3633830    -0.9249560     0.0021580
  H       -2.7605070     0.4989750     0.8783160
units angstrom
no_reorient  #important for SAPT in psi4, default
symmetry c1  #important for SAPT in psi4, default
}

set PROPERTIES_ORIGIN ["COM"]
properties('MP2/aug-cc-pvtz', properties = ['dipole'])
--------------------------------------------------------------------------

    Molecular point group: c1
  Charge       = -1
  Multiplicity = 1
  Basis Set: AUG-CC-PVTZ
    Blend: AUG-CC-PVTZ
  Basis Set: (AUG-CC-PVTZ AUX)
    Blend: AUG-CC-PVTZ-JKFIT

    Orbital Energies [Eh]
    ---------------------

    Doubly Occupied:

       1A    -20.399344     2A    -20.323678     3A    -20.320592
       4A    -11.176362     5A    -11.169412     6A    -11.098743
       7A    -11.095328     8A     -1.225648     9A     -1.175402
      10A     -1.083369    11A     -0.914598    12A     -0.770711
      13A     -0.654237    14A     -0.545258    15A     -0.492287
      16A     -0.490887    17A     -0.468437    18A     -0.419995
      19A     -0.400386    20A     -0.394888    21A     -0.381695
      22A     -0.358496    23A     -0.331744    24A     -0.309382
      25A     -0.235467    26A     -0.209191    27A     -0.207545

  @DF-RHF Final Energy:  -379.13194511554912

   => Energetics <=

    Nuclear Repulsion Energy =            284.1121643134952706
    One-Electron Energy =               -1093.1820548888972553
    Two-Electron Energy =                 429.9379454598529264
    Total Energy =                       -379.1319451155491151
  Basis Set: (AUG-CC-PVTZ AUX)
    Blend: AUG-CC-PVTZ-RI
    Molecular point group: c1

    Geometry (in Angstrom), charge = -1, multiplicity = 1:

       Center              X                  Y                   Z               Mass
    ------------   -----------------  -----------------  -----------------  -----------------
         O           -0.529534104736     1.521703270175    -0.026191765900    15.994914619570
         O            2.151590895264     0.689965270175    -0.020950765900    15.994914619570
         O            1.331775895264    -1.459157729825    -0.025914765900    15.994914619570
         C           -1.305136104736    -0.742744729825    -0.022541765900    12.000000000000
         C           -2.711314104736    -0.160436729825    -0.022789765900    12.000000000000
         C           -0.218207104736     0.327651270175    -0.024263765900    12.000000000000
         C            1.260006995264    -0.193232529825     0.176392934100    12.000000000000
         H           -1.127467104736    -1.391977729825    -0.886656765900     1.007825032230
         H           -1.126983104736    -1.389825729825     0.843121234100     1.007825032230
         H           -2.868206104736     0.470635270175    -0.901697765900     1.007825032230
         H           -3.470518104736    -0.951064729825    -0.021536765900     1.007825032230
         H           -2.867642104736     0.472866270175     0.854621234100     1.007825032230

  Basis Set: AUG-CC-PVTZ
    Blend: AUG-CC-PVTZ
  Basis Set: (AUG-CC-PVTZ AUX)
    Blend: AUG-CC-PVTZ-JKFIT
	 Reference Energy          =    -379.1319451155491151 [Eh]
	 Singles Energy            =      -0.0000000000000000 [Eh]
	 Same-Spin Energy          =      -0.3752616457311002 [Eh]
	 Opposite-Spin Energy      =      -1.1433280288304606 [Eh]
	 Correlation Energy        =      -1.5185896745615608 [Eh]
	 Total Energy              =    -380.6505347901106688 [Eh]

	 ================> DF-SCS-MP2 Energies <==================
	-----------------------------------------------------------
	 SCS Same-Spin Scale       =       0.3333333333333333 [-]
	 SCS Opposite-Spin Scale   =       1.2000000000000000 [-]
	 SCS Same-Spin Energy      =      -0.1250872152437001 [Eh]
	 SCS Opposite-Spin Energy  =      -1.3719936345965527 [Eh]
	 SCS Correlation Energy    =      -1.4970808498402528 [Eh]
	 SCS Total Energy          =    -380.6290259653893600 [Eh]
	-----------------------------------------------------------

  Dipole Moment: [D]
     X:    -6.6198      Y:    -0.8027      Z:     0.1855     Total:     6.6709

*** Psi4 exiting successfully. Buy a developer a beer!
