                               Psi4 1.3.2 release

  ==> Input File <==

--------------------------------------------------------------------------
#psi4
#
memory 32 gb

molecule  {
-1 1
  O       -0.4223990     1.5478120    -0.0024970
  O        2.2587260     0.7160740     0.0027440
  O        1.4389110    -1.4330490    -0.0022200
  C       -1.1980010    -0.7166360     0.0011530
  C       -2.6041790    -0.1343280     0.0009050
  C       -0.1110720     0.3537600    -0.0005690
  C        1.3671308    -0.1673617     0.0500879
  H       -1.0203320    -1.3658690    -0.8629620
  H       -1.0198480    -1.3637170     0.8668160
  H       -2.7610710     0.4967440    -0.8780030
  H       -3.3633830    -0.9249560     0.0021580
  H       -2.7605070     0.4989750     0.8783160
units angstrom
no_reorient  #important for SAPT in psi4, default
symmetry c1  #important for SAPT in psi4, default
}

set PROPERTIES_ORIGIN ["COM"]
properties('MP2/aug-cc-pvtz', properties = ['dipole'])
--------------------------------------------------------------------------

    Molecular point group: c1
  Charge       = -1
  Multiplicity = 1
  Basis Set: AUG-CC-PVTZ
    Blend: AUG-CC-PVTZ
  Basis Set: (AUG-CC-PVTZ AUX)
    Blend: AUG-CC-PVTZ-JKFIT

    Orbital Energies [Eh]
    ---------------------

    Doubly Occupied:

       1A    -20.399038     2A    -20.322250     3A    -20.318396
       4A    -11.172903     5A    -11.164963     6A    -11.098320
       7A    -11.094493     8A     -1.225972     9A     -1.181604
      10A     -1.092397    11A     -0.914233    12A     -0.771422
      13A     -0.656500    14A     -0.544879    15A     -0.491943
      16A     -0.491406    17A     -0.470487    18A     -0.422775
      19A     -0.401578    20A     -0.397499    21A     -0.381750
      22A     -0.360543    23A     -0.331881    24A     -0.311007
      25A     -0.237155    26A     -0.213384    27A     -0.208810

  @DF-RHF Final Energy:  -379.15080725342438

   => Energetics <=

    Nuclear Repulsion Energy =            284.7312895563234179
    One-Electron Energy =               -1094.4090161921824347
    Two-Electron Energy =                 430.5269193824346416
    Total Energy =                       -379.1508072534243752
  Basis Set: (AUG-CC-PVTZ AUX)
    Blend: AUG-CC-PVTZ-RI
    Molecular point group: c1

    Geometry (in Angstrom), charge = -1, multiplicity = 1:

       Center              X                  Y                   Z               Mass
    ------------   -----------------  -----------------  -----------------  -----------------
         O           -0.529532762479     1.521731528843    -0.008374218251    15.994914619570
         O            2.151592237521     0.689993528843    -0.003133218251    15.994914619570
         O            1.331777237521    -1.459129471157    -0.008097218251    15.994914619570
         C           -1.305134762479    -0.742716471157    -0.004724218251    12.000000000000
         C           -2.711312762479    -0.160408471157    -0.004972218251    12.000000000000
         C           -0.218205762479     0.327679528843    -0.006446218251    12.000000000000
         C            1.259997037521    -0.193442171157     0.044210681749    12.000000000000
         H           -1.127465762479    -1.391949471157    -0.868839218251     1.007825032230
         H           -1.126981762479    -1.389797471157     0.860938781749     1.007825032230
         H           -2.868204762479     0.470663528843    -0.883880218251     1.007825032230
         H           -3.470516762479    -0.951036471157    -0.003719218251     1.007825032230
         H           -2.867640762479     0.472894528843     0.872438781749     1.007825032230

  Basis Set: AUG-CC-PVTZ
    Blend: AUG-CC-PVTZ
  Basis Set: (AUG-CC-PVTZ AUX)
    Blend: AUG-CC-PVTZ-JKFIT
	 Reference Energy          =    -379.1508072534243752 [Eh]
	 Singles Energy            =      -0.0000000000000000 [Eh]
	 Same-Spin Energy          =      -0.3737703295484752 [Eh]
	 Opposite-Spin Energy      =      -1.1397847064940918 [Eh]
	 Correlation Energy        =      -1.5135550360425669 [Eh]
	 Total Energy              =    -380.6643622894669647 [Eh]

	 ================> DF-SCS-MP2 Energies <==================
	-----------------------------------------------------------
	 SCS Same-Spin Scale       =       0.3333333333333333 [-]
	 SCS Opposite-Spin Scale   =       1.2000000000000000 [-]
	 SCS Same-Spin Energy      =      -0.1245901098494917 [Eh]
	 SCS Opposite-Spin Energy  =      -1.3677416477929101 [Eh]
	 SCS Correlation Energy    =      -1.4923317576424018 [Eh]
	 SCS Total Energy          =    -380.6431390110667508 [Eh]
	-----------------------------------------------------------

  Dipole Moment: [D]
     X:    -6.5754      Y:    -0.8262      Z:     0.0522     Total:     6.6273

*** Psi4 exiting successfully. Buy a developer a beer!
