                               Psi4 1.3.2 release

  ==> Input File <==

--------------------------------------------------------------------------
#psi4
#
memory 32 gb

molecule  {
0 1
  O        1.3421004    -0.3947029    -0.9314842
  O        3.2020570     1.9012130    -0.2995130
  O        2.7994070    -2.7489470    -0.4002010
  O       -1.3621860     2.3740050     0.1547830
  N       -0.7910979     0.1764528    -0.2380213
  N       -3.0541720     0.8052390     0.2400120
  N       -4.6734100    -0.8124350     0.4126370
  C        2.7015950     0.8755540     0.5594740
  C        1.2368440     1.1072260     0.8878520
  C        2.6518190    -0.3922910    -0.2854700
  C        0.5739580     0.6830040    -0.4149160
  C        2.8020980    -1.6600160     0.5224700
  C       -1.1273370    -1.1158190    -0.3082760
  C       -1.7446880     1.2038920     0.0820450
  C       -2.4173070    -1.5045610    -0.1045420
  C       -3.3619920    -0.4731600     0.1685110
  H        3.3343810     0.7567850     1.4508530
  H        0.9047070     0.4438290     1.6934890
  H        0.9853290     2.1340670     1.1581470
  H        0.5274540     1.5132540    -1.1249130
  H        3.4174920    -0.3642830    -1.0666260
  H        1.9707490    -1.7331840     1.2432230
  H        3.7460890    -1.6095150     1.0882890
  H        3.1038510     2.7463240     0.1779830
  H       -0.3107400    -1.7892010    -0.5436980
  H        2.9100300    -3.5650720     0.1192120
  H       -2.7034680    -2.5490840    -0.1532500
  H       -5.0287110    -1.6377420    -0.0567190
  H       -5.2994710    -0.0137980     0.3861010
units angstrom
no_reorient  #important for SAPT in psi4, default
symmetry c1  #important for SAPT in psi4, default
}

set PROPERTIES_ORIGIN ["COM"]
properties('MP2/aug-cc-pvtz', properties = ['dipole'])
--------------------------------------------------------------------------

    Molecular point group: c1
  Charge       = 0
  Multiplicity = 1
  Basis Set: AUG-CC-PVTZ
    Blend: AUG-CC-PVTZ
  Basis Set: (AUG-CC-PVTZ AUX)
    Blend: AUG-CC-PVTZ-JKFIT

    Orbital Energies [Eh]
    ---------------------

    Doubly Occupied:

       1A    -20.577961     2A    -20.575474     3A    -20.573035
       4A    -20.506430     5A    -15.621405     6A    -15.587090
       7A    -15.539999     8A    -11.372421     9A    -11.343671
      10A    -11.331060    11A    -11.315099    12A    -11.302532
      13A    -11.297631    14A    -11.294875    15A    -11.238074
      16A    -11.233168    17A     -1.414248    18A     -1.381858
      19A     -1.374170    20A     -1.365567    21A     -1.293098
      22A     -1.262177    23A     -1.168445    24A     -1.079713
      25A     -1.068869    26A     -1.026147    27A     -0.927145
      28A     -0.894938    29A     -0.868791    30A     -0.830693
      31A     -0.806520    32A     -0.752869    33A     -0.739537
      34A     -0.720839    35A     -0.706000    36A     -0.692866
      37A     -0.689589    38A     -0.674940    39A     -0.654484
      40A     -0.636505    41A     -0.627108    42A     -0.618413
      43A     -0.603241    44A     -0.593394    45A     -0.588132
      46A     -0.575061    47A     -0.568546    48A     -0.544655
      49A     -0.532081    50A     -0.523582    51A     -0.510981
      52A     -0.488745    53A     -0.485017    54A     -0.468914
      55A     -0.462827    56A     -0.445676    57A     -0.438300
      58A     -0.415327    59A     -0.383457    60A     -0.332274

  @DF-RHF Final Energy:  -811.47713237034770

   => Energetics <=

    Nuclear Repulsion Energy =           1169.7541654069148080
    One-Electron Energy =               -3434.5712666641552460
    Two-Electron Energy =                1453.3399688868926205
    Total Energy =                       -811.4771323703475900
  Basis Set: (AUG-CC-PVTZ AUX)
    Blend: AUG-CC-PVTZ-RI
    Molecular point group: c1

    Geometry (in Angstrom), charge = 0, multiplicity = 1:

       Center              X                  Y                   Z               Mass
    ------------   -----------------  -----------------  -----------------  -----------------
         O            1.343066345113    -0.392252025095    -0.930969013798    15.994914619570
         O            3.203022945113     1.903663874905    -0.298997813798    15.994914619570
         O            2.800372945113    -2.746496125095    -0.399685813798    15.994914619570
         O           -1.361220054887     2.376455874905     0.155298186202    15.994914619570
         N           -0.790131954887     0.178903674905    -0.237506113798    14.003074004430
         N           -3.053206054887     0.807689874905     0.240527186202    14.003074004430
         N           -4.672444054887    -0.809984125095     0.413152186202    14.003074004430
         C            2.702560945113     0.878004874905     0.559989186202    12.000000000000
         C            1.237809945113     1.109676874905     0.888367186202    12.000000000000
         C            2.652784945113    -0.389840125095    -0.284954813798    12.000000000000
         C            0.574923945113     0.685454874905    -0.414400813798    12.000000000000
         C            2.803063945113    -1.657565125095     0.522985186202    12.000000000000
         C           -1.126371054887    -1.113368125095    -0.307760813798    12.000000000000
         C           -1.743722054887     1.206342874905     0.082560186202    12.000000000000
         C           -2.416341054887    -1.502110125095    -0.104026813798    12.000000000000
         C           -3.361026054887    -0.470709125095     0.169026186202    12.000000000000
         H            3.335346945113     0.759235874905     1.451368186202     1.007825032230
         H            0.905672945113     0.446279874905     1.694004186202     1.007825032230
         H            0.986294945113     2.136517874905     1.158662186202     1.007825032230
         H            0.528419945113     1.515704874905    -1.124397813798     1.007825032230
         H            3.418457945113    -0.361832125095    -1.066110813798     1.007825032230
         H            1.971714945113    -1.730733125095     1.243738186202     1.007825032230
         H            3.747054945113    -1.607064125095     1.088804186202     1.007825032230
         H            3.104816945113     2.748774874905     0.178498186202     1.007825032230
         H           -0.309774054887    -1.786750125095    -0.543182813798     1.007825032230
         H            2.910995945113    -3.562621125095     0.119727186202     1.007825032230
         H           -2.702502054887    -2.546633125095    -0.152734813798     1.007825032230
         H           -5.027745054887    -1.635291125095    -0.056203813798     1.007825032230
         H           -5.298505054887    -0.011347125095     0.386616186202     1.007825032230

  Basis Set: AUG-CC-PVTZ
    Blend: AUG-CC-PVTZ
  Basis Set: (AUG-CC-PVTZ AUX)
    Blend: AUG-CC-PVTZ-JKFIT
	 Reference Energy          =    -811.4771323703477037 [Eh]
	 Singles Energy            =      -0.0000000000000000 [Eh]
	 Same-Spin Energy          =      -0.8300184316504876 [Eh]
	 Opposite-Spin Energy      =      -2.5258508907569643 [Eh]
	 Correlation Energy        =      -3.3558693224074521 [Eh]
	 Total Energy              =    -814.8330016927551469 [Eh]

	 ================> DF-SCS-MP2 Energies <==================
	-----------------------------------------------------------
	 SCS Same-Spin Scale       =       0.3333333333333333 [-]
	 SCS Opposite-Spin Scale   =       1.2000000000000000 [-]
	 SCS Same-Spin Energy      =      -0.2766728105501625 [Eh]
	 SCS Opposite-Spin Energy  =      -3.0310210689083572 [Eh]
	 SCS Correlation Energy    =      -3.3076938794585198 [Eh]
	 SCS Total Energy          =    -814.7848262498062013 [Eh]
	-----------------------------------------------------------

  Dipole Moment: [D]
     X:     1.2213      Y:    -4.5305      Z:     2.5111     Total:     5.3219

*** Psi4 exiting successfully. Buy a developer a beer!
