                               Psi4 1.3.2 release

  ==> Input File <==

--------------------------------------------------------------------------
#psi4
#
memory 32 gb

molecule  {
0 1
  O        1.3521341    -0.4247172    -0.9109041
  O        3.2020570     1.9012130    -0.2995130
  O        2.7994070    -2.7489470    -0.4002010
  O       -1.3621860     2.3740050     0.1547830
  N       -0.7982440     0.1994180    -0.2292560
  N       -3.0541720     0.8052390     0.2400120
  N       -4.6734100    -0.8124350     0.4126370
  C        2.7015950     0.8755540     0.5594740
  C        1.2368440     1.1072260     0.8878520
  C        2.6518190    -0.3922910    -0.2854700
  C        0.5739580     0.6830040    -0.4149160
  C        2.7538365    -1.6745328     0.5069478
  C       -1.1273370    -1.1158190    -0.3082760
  C       -1.7446880     1.2038920     0.0820450
  C       -2.4173070    -1.5045610    -0.1045420
  C       -3.3619920    -0.4731600     0.1685110
  H        3.3343810     0.7567850     1.4508530
  H        0.9047070     0.4438290     1.6934890
  H        0.9853290     2.1340670     1.1581470
  H        0.5274540     1.5132540    -1.1249130
  H        3.4174920    -0.3642830    -1.0666260
  H        1.9707490    -1.7331840     1.2432230
  H        3.7460890    -1.6095150     1.0882890
  H        3.1038510     2.7463240     0.1779830
  H       -0.3107400    -1.7892010    -0.5436980
  H        2.9100300    -3.5650720     0.1192120
  H       -2.7034680    -2.5490840    -0.1532500
  H       -5.0287110    -1.6377420    -0.0567190
  H       -5.2994710    -0.0137980     0.3861010
units angstrom
no_reorient  #important for SAPT in psi4, default
symmetry c1  #important for SAPT in psi4, default
}

set PROPERTIES_ORIGIN ["COM"]
properties('MP2/aug-cc-pvtz', properties = ['dipole'])
--------------------------------------------------------------------------

    Molecular point group: c1
  Charge       = 0
  Multiplicity = 1
  Basis Set: AUG-CC-PVTZ
    Blend: AUG-CC-PVTZ
  Basis Set: (AUG-CC-PVTZ AUX)
    Blend: AUG-CC-PVTZ-JKFIT

    Orbital Energies [Eh]
    ---------------------

    Doubly Occupied:

       1A    -20.578775     2A    -20.575013     3A    -20.572592
       4A    -20.503561     5A    -15.622082     6A    -15.588448
       7A    -15.540905     8A    -11.370174     9A    -11.345124
      10A    -11.333079    11A    -11.317907    12A    -11.301506
      13A    -11.296333    14A    -11.291901    15A    -11.237639
      16A    -11.236926    17A     -1.413607    18A     -1.384000
      19A     -1.378151    20A     -1.365873    21A     -1.292370
      22A     -1.261522    23A     -1.169296    24A     -1.079784
      25A     -1.067237    26A     -1.026901    27A     -0.925221
      28A     -0.897181    29A     -0.869858    30A     -0.830564
      31A     -0.805928    32A     -0.754008    33A     -0.738201
      34A     -0.724781    35A     -0.707167    36A     -0.692277
      37A     -0.688664    38A     -0.675444    39A     -0.656778
      40A     -0.636221    41A     -0.627618    42A     -0.618072
      43A     -0.606138    44A     -0.596115    45A     -0.587907
      46A     -0.573087    47A     -0.567794    48A     -0.544955
      49A     -0.533374    50A     -0.523828    51A     -0.510476
      52A     -0.486914    53A     -0.482117    54A     -0.465076
      55A     -0.461812    56A     -0.443695    57A     -0.435747
      58A     -0.416899    59A     -0.384070    60A     -0.335187

  @DF-RHF Final Energy:  -811.47443247601552

   => Energetics <=

    Nuclear Repulsion Energy =           1170.4645086526702471
    One-Electron Energy =               -3435.9701223774100072
    Two-Electron Energy =                1454.0311812487241241
    Total Energy =                       -811.4744324760156360
  Basis Set: (AUG-CC-PVTZ AUX)
    Blend: AUG-CC-PVTZ-RI
    Molecular point group: c1

    Geometry (in Angstrom), charge = 0, multiplicity = 1:

       Center              X                  Y                   Z               Mass
    ------------   -----------------  -----------------  -----------------  -----------------
         O            1.355384231155    -0.420801295886    -0.911558718625    15.994914619570
         O            3.205307131155     1.905128904114    -0.300167618625    15.994914619570
         O            2.802657131155    -2.745031095886    -0.400855618625    15.994914619570
         O           -1.358935868845     2.377920904114     0.154128381375    15.994914619570
         N           -0.794993868845     0.203333904114    -0.229910618625    14.003074004430
         N           -3.050921868845     0.809154904114     0.239357381375    14.003074004430
         N           -4.670159868845    -0.808519095886     0.411982381375    14.003074004430
         C            2.704845131155     0.879469904114     0.558819381375    12.000000000000
         C            1.240094131155     1.111141904114     0.887197381375    12.000000000000
         C            2.655069131155    -0.388375095886    -0.286124618625    12.000000000000
         C            0.577208131155     0.686919904114    -0.415570618625    12.000000000000
         C            2.757086631155    -1.670616895886     0.506293181375    12.000000000000
         C           -1.124086868845    -1.111903095886    -0.308930618625    12.000000000000
         C           -1.741437868845     1.207807904114     0.081390381375    12.000000000000
         C           -2.414056868845    -1.500645095886    -0.105196618625    12.000000000000
         C           -3.358741868845    -0.469244095886     0.167856381375    12.000000000000
         H            3.337631131155     0.760700904114     1.450198381375     1.007825032230
         H            0.907957131155     0.447744904114     1.692834381375     1.007825032230
         H            0.988579131155     2.137982904114     1.157492381375     1.007825032230
         H            0.530704131155     1.517169904114    -1.125567618625     1.007825032230
         H            3.420742131155    -0.360367095886    -1.067280618625     1.007825032230
         H            1.973999131155    -1.729268095886     1.242568381375     1.007825032230
         H            3.749339131155    -1.605599095886     1.087634381375     1.007825032230
         H            3.107101131155     2.750239904114     0.177328381375     1.007825032230
         H           -0.307489868845    -1.785285095886    -0.544352618625     1.007825032230
         H            2.913280131155    -3.561156095886     0.118557381375     1.007825032230
         H           -2.700217868845    -2.545168095886    -0.153904618625     1.007825032230
         H           -5.025460868845    -1.633826095886    -0.057373618625     1.007825032230
         H           -5.296220868845    -0.009882095886     0.385446381375     1.007825032230

  Basis Set: AUG-CC-PVTZ
    Blend: AUG-CC-PVTZ
  Basis Set: (AUG-CC-PVTZ AUX)
    Blend: AUG-CC-PVTZ-JKFIT
	 Reference Energy          =    -811.4744324760155223 [Eh]
	 Singles Energy            =      -0.0000000000000000 [Eh]
	 Same-Spin Energy          =      -0.8299380232844547 [Eh]
	 Opposite-Spin Energy      =      -2.5257342644589444 [Eh]
	 Correlation Energy        =      -3.3556722877433991 [Eh]
	 Total Energy              =    -814.8301047637588681 [Eh]

	 ================> DF-SCS-MP2 Energies <==================
	-----------------------------------------------------------
	 SCS Same-Spin Scale       =       0.3333333333333333 [-]
	 SCS Opposite-Spin Scale   =       1.2000000000000000 [-]
	 SCS Same-Spin Energy      =      -0.2766460077614848 [Eh]
	 SCS Opposite-Spin Energy  =      -3.0308811173507331 [Eh]
	 SCS Correlation Energy    =      -3.3075271251122178 [Eh]
	 SCS Total Energy          =    -814.7819596011277099 [Eh]
	-----------------------------------------------------------

  Dipole Moment: [D]
     X:     0.9763      Y:    -4.6349      Z:     2.4046     Total:     5.3120

*** Psi4 exiting successfully. Buy a developer a beer!
