                               Psi4 1.3.2 release

  ==> Input File <==

--------------------------------------------------------------------------
#psi4
#
memory 32 gb

molecule  {
0 1
  O        1.3620710    -0.3800110    -0.9318440
  O        3.2050609     1.8677127    -0.3363164
  O        2.7994070    -2.7489470    -0.4002010
  O       -1.3621860     2.3740050     0.1547830
  N       -0.7982440     0.1994180    -0.2292560
  N       -3.0541720     0.8052390     0.2400120
  N       -4.6734100    -0.8124350     0.4126370
  C        2.7015950     0.8755540     0.5594740
  C        1.2368440     1.1072260     0.8878520
  C        2.6707412    -0.3644534    -0.3266799
  C        0.5739580     0.6830040    -0.4149160
  C        2.8020980    -1.6600160     0.5224700
  C       -1.1273370    -1.1158190    -0.3082760
  C       -1.7446880     1.2038920     0.0820450
  C       -2.4173070    -1.5045610    -0.1045420
  C       -3.3619920    -0.4731600     0.1685110
  H        3.3343810     0.7567850     1.4508530
  H        0.9047070     0.4438290     1.6934890
  H        0.9853290     2.1340670     1.1581470
  H        0.5274540     1.5132540    -1.1249130
  H        3.4174920    -0.3642830    -1.0666260
  H        1.9707490    -1.7331840     1.2432230
  H        3.7460890    -1.6095150     1.0882890
  H        3.1038510     2.7463240     0.1779830
  H       -0.3107400    -1.7892010    -0.5436980
  H        2.9100300    -3.5650720     0.1192120
  H       -2.7034680    -2.5490840    -0.1532500
  H       -5.0287110    -1.6377420    -0.0567190
  H       -5.2994710    -0.0137980     0.3861010
units angstrom
no_reorient  #important for SAPT in psi4, default
symmetry c1  #important for SAPT in psi4, default
}

set PROPERTIES_ORIGIN ["COM"]
properties('MP2/aug-cc-pvtz', properties = ['dipole'])
--------------------------------------------------------------------------

    Molecular point group: c1
  Charge       = 0
  Multiplicity = 1
  Basis Set: AUG-CC-PVTZ
    Blend: AUG-CC-PVTZ
  Basis Set: (AUG-CC-PVTZ AUX)
    Blend: AUG-CC-PVTZ-JKFIT

    Orbital Energies [Eh]
    ---------------------

    Doubly Occupied:

       1A    -20.579525     2A    -20.575678     3A    -20.572379
       4A    -20.503157     5A    -15.621943     6A    -15.588370
       7A    -15.540850     8A    -11.370030     9A    -11.345065
      10A    -11.330917    11A    -11.318259    12A    -11.299769
      13A    -11.295759    14A    -11.290750    15A    -11.237345
      16A    -11.236984    17A     -1.415879    18A     -1.381759
      19A     -1.369878    20A     -1.361170    21A     -1.292261
      22A     -1.261434    23A     -1.169143    24A     -1.077727
      25A     -1.064388    26A     -1.024795    27A     -0.922306
      28A     -0.897176    29A     -0.868444    30A     -0.829840
      31A     -0.810806    32A     -0.754347    33A     -0.738757
      34A     -0.718695    35A     -0.704351    36A     -0.692855
      37A     -0.681105    38A     -0.675514    39A     -0.655790
      40A     -0.635402    41A     -0.627878    42A     -0.618350
      43A     -0.602188    44A     -0.594209    45A     -0.585772
      46A     -0.574717    47A     -0.571670    48A     -0.544471
      49A     -0.532278    50A     -0.523101    51A     -0.509955
      52A     -0.486896    53A     -0.482539    54A     -0.467227
      55A     -0.459645    56A     -0.444324    57A     -0.433746
      58A     -0.416401    59A     -0.383730    60A     -0.334979

  @DF-RHF Final Energy:  -811.47014850566836

   => Energetics <=

    Nuclear Repulsion Energy =           1169.6868518111002686
    One-Electron Energy =               -3434.5046465820105368
    Two-Electron Energy =                1453.3476462652415648
    Total Energy =                       -811.4701485056684760
  Basis Set: (AUG-CC-PVTZ AUX)
    Blend: AUG-CC-PVTZ-RI
    Molecular point group: c1

    Geometry (in Angstrom), charge = 0, multiplicity = 1:

       Center              X                  Y                   Z               Mass
    ------------   -----------------  -----------------  -----------------  -----------------
         O            1.360859513788    -0.379122478771    -0.927074124959    15.994914619570
         O            3.203849413788     1.868601221229    -0.331546524959    15.994914619570
         O            2.798195513788    -2.748058478771    -0.395431124959    15.994914619570
         O           -1.363397486212     2.374893521229     0.159552875041    15.994914619570
         N           -0.799455486212     0.200306521229    -0.224486124959    14.003074004430
         N           -3.055383486212     0.806127521229     0.244781875041    14.003074004430
         N           -4.674621486212    -0.811546478771     0.417406875041    14.003074004430
         C            2.700383513788     0.876442521229     0.564243875041    12.000000000000
         C            1.235632513788     1.108114521229     0.892621875041    12.000000000000
         C            2.669529713788    -0.363564878771    -0.321910024959    12.000000000000
         C            0.572746513788     0.683892521229    -0.410146124959    12.000000000000
         C            2.800886513788    -1.659127478771     0.527239875041    12.000000000000
         C           -1.128548486212    -1.114930478771    -0.303506124959    12.000000000000
         C           -1.745899486212     1.204780521229     0.086814875041    12.000000000000
         C           -2.418518486212    -1.503672478771    -0.099772124959    12.000000000000
         C           -3.363203486212    -0.472271478771     0.173280875041    12.000000000000
         H            3.333169513788     0.757673521229     1.455622875041     1.007825032230
         H            0.903495513788     0.444717521229     1.698258875041     1.007825032230
         H            0.984117513788     2.134955521229     1.162916875041     1.007825032230
         H            0.526242513788     1.514142521229    -1.120143124959     1.007825032230
         H            3.416280513788    -0.363394478771    -1.061856124959     1.007825032230
         H            1.969537513788    -1.732295478771     1.247992875041     1.007825032230
         H            3.744877513788    -1.608626478771     1.093058875041     1.007825032230
         H            3.102639513788     2.747212521229     0.182752875041     1.007825032230
         H           -0.311951486212    -1.788312478771    -0.538928124959     1.007825032230
         H            2.908818513788    -3.564183478771     0.123981875041     1.007825032230
         H           -2.704679486212    -2.548195478771    -0.148480124959     1.007825032230
         H           -5.029922486212    -1.636853478771    -0.051949124959     1.007825032230
         H           -5.300682486212    -0.012909478771     0.390870875041     1.007825032230

  Basis Set: AUG-CC-PVTZ
    Blend: AUG-CC-PVTZ
  Basis Set: (AUG-CC-PVTZ AUX)
    Blend: AUG-CC-PVTZ-JKFIT
	 Reference Energy          =    -811.4701485056683623 [Eh]
	 Singles Energy            =      -0.0000000000000000 [Eh]
	 Same-Spin Energy          =      -0.8301478446558946 [Eh]
	 Opposite-Spin Energy      =      -2.5269937951840244 [Eh]
	 Correlation Energy        =      -3.3571416398399192 [Eh]
	 Total Energy              =    -814.8272901455083002 [Eh]

	 ================> DF-SCS-MP2 Energies <==================
	-----------------------------------------------------------
	 SCS Same-Spin Scale       =       0.3333333333333333 [-]
	 SCS Opposite-Spin Scale   =       1.2000000000000000 [-]
	 SCS Same-Spin Energy      =      -0.2767159482186315 [Eh]
	 SCS Opposite-Spin Energy  =      -3.0323925542208294 [Eh]
	 SCS Correlation Energy    =      -3.3091085024394609 [Eh]
	 SCS Total Energy          =    -814.7792570081078338 [Eh]
	-----------------------------------------------------------

  Dipole Moment: [D]
     X:     1.0754      Y:    -4.5808      Z:     2.4716     Total:     5.3150

*** Psi4 exiting successfully. Buy a developer a beer!
