                               Psi4 1.3.2 release

  ==> Input File <==

--------------------------------------------------------------------------
#psi4
#
memory 32 gb

molecule  {
0 1
  O        1.4205184    -0.3340110    -0.9319785
  O        3.2020570     1.9012130    -0.2995130
  O        2.7994070    -2.7489470    -0.4002010
  O       -1.3621860     2.3740050     0.1547830
  N       -0.8171664     0.2691691    -0.2033100
  N       -3.0541720     0.8052390     0.2400120
  N       -4.6734100    -0.8124350     0.4126370
  C        2.7015950     0.8755540     0.5594740
  C        1.2368440     1.1072260     0.8878520
  C        2.6518190    -0.3922910    -0.2854700
  C        0.5739580     0.6830040    -0.4149160
  C        2.8020980    -1.6600160     0.5224700
  C       -1.1273370    -1.1158190    -0.3082760
  C       -1.7446880     1.2038920     0.0820450
  C       -2.4173070    -1.5045610    -0.1045420
  C       -3.3619920    -0.4731600     0.1685110
  H        3.3343810     0.7567850     1.4508530
  H        0.9047070     0.4438290     1.6934890
  H        0.9853290     2.1340670     1.1581470
  H        0.5274540     1.5132540    -1.1249130
  H        3.4174920    -0.3642830    -1.0666260
  H        1.9707490    -1.7331840     1.2432230
  H        3.7460890    -1.6095150     1.0882890
  H        3.1038510     2.7463240     0.1779830
  H       -0.3107400    -1.7892010    -0.5436980
  H        2.9100300    -3.5650720     0.1192120
  H       -2.7034680    -2.5490840    -0.1532500
  H       -5.0287110    -1.6377420    -0.0567190
  H       -5.2994710    -0.0137980     0.3861010
units angstrom
no_reorient  #important for SAPT in psi4, default
symmetry c1  #important for SAPT in psi4, default
}

set PROPERTIES_ORIGIN ["COM"]
properties('MP2/aug-cc-pvtz', properties = ['dipole'])
--------------------------------------------------------------------------

    Molecular point group: c1
  Charge       = 0
  Multiplicity = 1
  Basis Set: AUG-CC-PVTZ
    Blend: AUG-CC-PVTZ
  Basis Set: (AUG-CC-PVTZ AUX)
    Blend: AUG-CC-PVTZ-JKFIT

    Orbital Energies [Eh]
    ---------------------

    Doubly Occupied:

       1A    -20.577272     2A    -20.572591     3A    -20.571153
       4A    -20.492097     5A    -15.622366     6A    -15.591921
       7A    -15.543013     8A    -11.361278     9A    -11.348788
      10A    -11.330946    11A    -11.326890    12A    -11.296004
      13A    -11.294736    14A    -11.288015    15A    -11.248395
      16A    -11.233373    17A     -1.426432    18A     -1.386121
      19A     -1.372203    20A     -1.365456    21A     -1.290469
      22A     -1.258464    23A     -1.171045    24A     -1.079675
      25A     -1.066818    26A     -1.034228    27A     -0.928016
      28A     -0.904329    29A     -0.868934    30A     -0.830727
      31A     -0.806158    32A     -0.758662    33A     -0.736398
      34A     -0.721959    35A     -0.709875    36A     -0.693683
      37A     -0.688352    38A     -0.678365    39A     -0.662898
      40A     -0.639370    41A     -0.630263    42A     -0.618690
      43A     -0.609650    44A     -0.599373    45A     -0.589418
      46A     -0.569313    47A     -0.563493    48A     -0.545962
      49A     -0.533885    50A     -0.522823    51A     -0.508701
      52A     -0.477592    53A     -0.473138    54A     -0.467459
      55A     -0.455790    56A     -0.440831    57A     -0.436992
      58A     -0.416626    59A     -0.384680    60A     -0.342308

  @DF-RHF Final Energy:  -811.47140892535072

   => Energetics <=

    Nuclear Repulsion Energy =           1170.6223906000709576
    One-Electron Energy =               -3436.2586847676352590
    Two-Electron Energy =                1454.1648852422135860
    Total Energy =                       -811.4714089253507154
  Basis Set: (AUG-CC-PVTZ AUX)
    Blend: AUG-CC-PVTZ-RI
    Molecular point group: c1

    Geometry (in Angstrom), charge = 0, multiplicity = 1:

       Center              X                  Y                   Z               Mass
    ------------   -----------------  -----------------  -----------------  -----------------
         O            1.417568506867    -0.341552061836    -0.933568898988    15.994914619570
         O            3.199107106867     1.893671938164    -0.301103398988    15.994914619570
         O            2.796457106867    -2.756488061836    -0.401791398988    15.994914619570
         O           -1.365135893133     2.366463938164     0.153192601012    15.994914619570
         N           -0.820116293133     0.261628038164    -0.204900398988    14.003074004430
         N           -3.057121893133     0.797697938164     0.238421601012    14.003074004430
         N           -4.676359893133    -0.819976061836     0.411046601012    14.003074004430
         C            2.698645106867     0.868012938164     0.557883601012    12.000000000000
         C            1.233894106867     1.099684938164     0.886261601012    12.000000000000
         C            2.648869106867    -0.399832061836    -0.287060398988    12.000000000000
         C            0.571008106867     0.675462938164    -0.416506398988    12.000000000000
         C            2.799148106867    -1.667557061836     0.520879601012    12.000000000000
         C           -1.130286893133    -1.123360061836    -0.309866398988    12.000000000000
         C           -1.747637893133     1.196350938164     0.080454601012    12.000000000000
         C           -2.420256893133    -1.512102061836    -0.106132398988    12.000000000000
         C           -3.364941893133    -0.480701061836     0.166920601012    12.000000000000
         H            3.331431106867     0.749243938164     1.449262601012     1.007825032230
         H            0.901757106867     0.436287938164     1.691898601012     1.007825032230
         H            0.982379106867     2.126525938164     1.156556601012     1.007825032230
         H            0.524504106867     1.505712938164    -1.126503398988     1.007825032230
         H            3.414542106867    -0.371824061836    -1.068216398988     1.007825032230
         H            1.967799106867    -1.740725061836     1.241632601012     1.007825032230
         H            3.743139106867    -1.617056061836     1.086698601012     1.007825032230
         H            3.100901106867     2.738782938164     0.176392601012     1.007825032230
         H           -0.313689893133    -1.796742061836    -0.545288398988     1.007825032230
         H            2.907080106867    -3.572613061836     0.117621601012     1.007825032230
         H           -2.706417893133    -2.556625061836    -0.154840398988     1.007825032230
         H           -5.031660893133    -1.645283061836    -0.058309398988     1.007825032230
         H           -5.302420893133    -0.021339061836     0.384510601012     1.007825032230

  Basis Set: AUG-CC-PVTZ
    Blend: AUG-CC-PVTZ
  Basis Set: (AUG-CC-PVTZ AUX)
    Blend: AUG-CC-PVTZ-JKFIT
	 Reference Energy          =    -811.4714089253507154 [Eh]
	 Singles Energy            =      -0.0000000000000000 [Eh]
	 Same-Spin Energy          =      -0.8290218339850111 [Eh]
	 Opposite-Spin Energy      =      -2.5240605863913648 [Eh]
	 Correlation Energy        =      -3.3530824203763760 [Eh]
	 Total Energy              =    -814.8244913457270968 [Eh]

	 ================> DF-SCS-MP2 Energies <==================
	-----------------------------------------------------------
	 SCS Same-Spin Scale       =       0.3333333333333333 [-]
	 SCS Opposite-Spin Scale   =       1.2000000000000000 [-]
	 SCS Same-Spin Energy      =      -0.2763406113283370 [Eh]
	 SCS Opposite-Spin Energy  =      -3.0288727036696375 [Eh]
	 SCS Correlation Energy    =      -3.3052133149979745 [Eh]
	 SCS Total Energy          =    -814.7766222403487291 [Eh]
	-----------------------------------------------------------

  Dipole Moment: [D]
     X:     0.6607      Y:    -5.1285      Z:     2.4157     Total:     5.7073

*** Psi4 exiting successfully. Buy a developer a beer!
