                               Psi4 1.3.2 release

  ==> Input File <==

--------------------------------------------------------------------------
#psi4
#
memory 32 gb

molecule  {
0 1
  O        1.3620710    -0.3800110    -0.9318440
  O        3.2020570     1.9012130    -0.2995130
  O        2.7994070    -2.7489470    -0.4002010
  O       -1.3621860     2.3740050     0.1547830
  N       -0.7982440     0.1994180    -0.2292560
  N       -3.0541720     0.8052390     0.2400120
  N       -4.6734100    -0.8124350     0.4126370
  C        2.7015950     0.8755540     0.5594740
  C        1.2368440     1.1072260     0.8878520
  C        2.6518190    -0.3922910    -0.2854700
  C        0.5739580     0.6830040    -0.4149160
  C        2.8035858    -1.6680537     0.5318676
  C       -1.1273370    -1.1158190    -0.3082760
  C       -1.7446880     1.2038920     0.0820450
  C       -2.4173070    -1.5045610    -0.1045420
  C       -3.3619920    -0.4731600     0.1685110
  H        3.3343810     0.7567850     1.4508530
  H        0.9047070     0.4438290     1.6934890
  H        0.9853290     2.1340670     1.1581470
  H        0.5274540     1.5132540    -1.1249130
  H        3.4174920    -0.3642830    -1.0666260
  H        1.9707490    -1.7331840     1.2432230
  H        3.7460890    -1.6095150     1.0882890
  H        3.1038510     2.7463240     0.1779830
  H       -0.3107400    -1.7892010    -0.5436980
  H        2.9103399    -3.5604516     0.1263363
  H       -2.7034680    -2.5490840    -0.1532500
  H       -5.0287110    -1.6377420    -0.0567190
  H       -5.2994710    -0.0137980     0.3861010
units angstrom
no_reorient  #important for SAPT in psi4, default
symmetry c1  #important for SAPT in psi4, default
}

set PROPERTIES_ORIGIN ["COM"]
properties('MP2/aug-cc-pvtz', properties = ['dipole'])
--------------------------------------------------------------------------

    Molecular point group: c1
  Charge       = 0
  Multiplicity = 1
  Basis Set: AUG-CC-PVTZ
    Blend: AUG-CC-PVTZ
  Basis Set: (AUG-CC-PVTZ AUX)
    Blend: AUG-CC-PVTZ-JKFIT

    Orbital Energies [Eh]
    ---------------------

    Doubly Occupied:

       1A    -20.578331     2A    -20.574160     3A    -20.572876
       4A    -20.503026     5A    -15.621708     6A    -15.588350
       7A    -15.540789     8A    -11.369875     9A    -11.345027
      10A    -11.330677    11A    -11.318285    12A    -11.300525
      13A    -11.296381    14A    -11.293373    15A    -11.237022
      16A    -11.236721    17A     -1.416433    18A     -1.382406
      19A     -1.373937    20A     -1.365805    21A     -1.292207
      22A     -1.261386    23A     -1.169086    24A     -1.078812
      25A     -1.068029    26A     -1.026882    27A     -0.926744
      28A     -0.897580    29A     -0.868979    30A     -0.830673
      31A     -0.806371    32A     -0.754220    33A     -0.738737
      34A     -0.720373    35A     -0.706519    36A     -0.692687
      37A     -0.689238    38A     -0.675943    39A     -0.656858
      40A     -0.637541    41A     -0.627552    42A     -0.618587
      43A     -0.603967    44A     -0.594996    45A     -0.588595
      46A     -0.572747    47A     -0.568991    48A     -0.545767
      49A     -0.532478    50A     -0.523327    51A     -0.510094
      52A     -0.485520    53A     -0.482062    54A     -0.469909
      55A     -0.460852    56A     -0.444327    57A     -0.437262
      58A     -0.416282    59A     -0.383717    60A     -0.334917

  @DF-RHF Final Energy:  -811.47912876661633

   => Energetics <=

    Nuclear Repulsion Energy =           1169.7236341471045762
    One-Electron Energy =               -3434.5124770885672660
    Two-Electron Energy =                1453.3097141748460217
    Total Energy =                       -811.4791287666164408
  Basis Set: (AUG-CC-PVTZ AUX)
    Blend: AUG-CC-PVTZ-RI
    Molecular point group: c1

    Geometry (in Angstrom), charge = 0, multiplicity = 1:

       Center              X                  Y                   Z               Mass
    ------------   -----------------  -----------------  -----------------  -----------------
         O            1.361990989914    -0.379606811412    -0.932372174536    15.994914619570
         O            3.201976989914     1.901617188588    -0.300041174536    15.994914619570
         O            2.799326989914    -2.748542811412    -0.400729174536    15.994914619570
         O           -1.362266010086     2.374409188588     0.154254825464    15.994914619570
         N           -0.798324010086     0.199822188588    -0.229784174536    14.003074004430
         N           -3.054252010086     0.805643188588     0.239483825464    14.003074004430
         N           -4.673490010086    -0.812030811412     0.412108825464    14.003074004430
         C            2.701514989914     0.875958188588     0.558945825464    12.000000000000
         C            1.236763989914     1.107630188588     0.887323825464    12.000000000000
         C            2.651738989914    -0.391886811412    -0.285998174536    12.000000000000
         C            0.573877989914     0.683408188588    -0.415444174536    12.000000000000
         C            2.803505789914    -1.667649511412     0.531339425464    12.000000000000
         C           -1.127417010086    -1.115414811412    -0.308804174536    12.000000000000
         C           -1.744768010086     1.204296188588     0.081516825464    12.000000000000
         C           -2.417387010086    -1.504156811412    -0.105070174536    12.000000000000
         C           -3.362072010086    -0.472755811412     0.167982825464    12.000000000000
         H            3.334300989914     0.757189188588     1.450324825464     1.007825032230
         H            0.904626989914     0.444233188588     1.692960825464     1.007825032230
         H            0.985248989914     2.134471188588     1.157618825464     1.007825032230
         H            0.527373989914     1.513658188588    -1.125441174536     1.007825032230
         H            3.417411989914    -0.363878811412    -1.067154174536     1.007825032230
         H            1.970668989914    -1.732779811412     1.242694825464     1.007825032230
         H            3.746008989914    -1.609110811412     1.087760825464     1.007825032230
         H            3.103770989914     2.746728188588     0.177454825464     1.007825032230
         H           -0.310820010086    -1.788796811412    -0.544226174536     1.007825032230
         H            2.910259889914    -3.560047411412     0.125808125464     1.007825032230
         H           -2.703548010086    -2.548679811412    -0.153778174536     1.007825032230
         H           -5.028791010086    -1.637337811412    -0.057247174536     1.007825032230
         H           -5.299551010086    -0.013393811412     0.385572825464     1.007825032230

  Basis Set: AUG-CC-PVTZ
    Blend: AUG-CC-PVTZ
  Basis Set: (AUG-CC-PVTZ AUX)
    Blend: AUG-CC-PVTZ-JKFIT
	 Reference Energy          =    -811.4791287666163271 [Eh]
	 Singles Energy            =      -0.0000000000000000 [Eh]
	 Same-Spin Energy          =      -0.8296379865988059 [Eh]
	 Opposite-Spin Energy      =      -2.5252144008322617 [Eh]
	 Correlation Energy        =      -3.3548523874310678 [Eh]
	 Total Energy              =    -814.8339811540473647 [Eh]

	 ================> DF-SCS-MP2 Energies <==================
	-----------------------------------------------------------
	 SCS Same-Spin Scale       =       0.3333333333333333 [-]
	 SCS Opposite-Spin Scale   =       1.2000000000000000 [-]
	 SCS Same-Spin Energy      =      -0.2765459955329353 [Eh]
	 SCS Opposite-Spin Energy  =      -3.0302572809987138 [Eh]
	 SCS Correlation Energy    =      -3.3068032765316491 [Eh]
	 SCS Total Energy          =    -814.7859320431480228 [Eh]
	-----------------------------------------------------------

  Dipole Moment: [D]
     X:     1.0756      Y:    -4.6815      Z:     2.4992     Total:     5.4147

*** Psi4 exiting successfully. Buy a developer a beer!
