                               Psi4 1.3.2 release

  ==> Input File <==

--------------------------------------------------------------------------
#psi4
#
memory 32 gb

molecule  {
0 1
  O        1.3620710    -0.3800110    -0.9318440
  O        3.2020570     1.9012130    -0.2995130
  O        2.7994070    -2.7489470    -0.4002010
  O       -1.3621860     2.3740050     0.1547830
  N       -0.7310158     0.1815592    -0.2439800
  N       -3.0541720     0.8052390     0.2400120
  N       -4.6734100    -0.8124350     0.4126370
  C        2.7015950     0.8755540     0.5594740
  C        1.2368440     1.1072260     0.8878520
  C        2.6518190    -0.3922910    -0.2854700
  C        0.5739580     0.6830040    -0.4149160
  C        2.8020980    -1.6600160     0.5224700
  C       -1.1273370    -1.1158190    -0.3082760
  C       -1.7446880     1.2038920     0.0820450
  C       -2.3967860    -1.5719637    -0.1157099
  C       -3.3619920    -0.4731600     0.1685110
  H        3.3343810     0.7567850     1.4508530
  H        0.9047070     0.4438290     1.6934890
  H        0.9853290     2.1340670     1.1581470
  H        0.5274540     1.5132540    -1.1249130
  H        3.4174920    -0.3642830    -1.0666260
  H        1.9707490    -1.7331840     1.2432230
  H        3.7460890    -1.6095150     1.0882890
  H        3.1038510     2.7463240     0.1779830
  H       -0.3107400    -1.7892010    -0.5436980
  H        2.9100300    -3.5650720     0.1192120
  H       -2.7034680    -2.5490840    -0.1532500
  H       -5.0287110    -1.6377420    -0.0567190
  H       -5.2994710    -0.0137980     0.3861010
units angstrom
no_reorient  #important for SAPT in psi4, default
symmetry c1  #important for SAPT in psi4, default
}

set PROPERTIES_ORIGIN ["COM"]
properties('MP2/aug-cc-pvtz', properties = ['dipole'])
--------------------------------------------------------------------------

    Molecular point group: c1
  Charge       = 0
  Multiplicity = 1
  Basis Set: AUG-CC-PVTZ
    Blend: AUG-CC-PVTZ
  Basis Set: (AUG-CC-PVTZ AUX)
    Blend: AUG-CC-PVTZ-JKFIT

    Orbital Energies [Eh]
    ---------------------

    Doubly Occupied:

       1A    -20.575608     2A    -20.572835     3A    -20.568223
       4A    -20.511945     5A    -15.619159     6A    -15.592290
       7A    -15.546805     8A    -11.378513     9A    -11.353902
      10A    -11.325022    11A    -11.315670    12A    -11.298865
      13A    -11.294587    14A    -11.290116    15A    -11.237469
      16A    -11.234365    17A     -1.415992    18A     -1.381391
      19A     -1.371627    20A     -1.364483    21A     -1.290840
      22A     -1.263227    23A     -1.173849    24A     -1.078274
      25A     -1.067808    26A     -1.022170    27A     -0.927366
      28A     -0.885202    29A     -0.869442    30A     -0.833402
      31A     -0.803332    32A     -0.752395    33A     -0.740426
      34A     -0.719489    35A     -0.705861    36A     -0.692680
      37A     -0.688476    38A     -0.675507    39A     -0.661920
      40A     -0.641891    41A     -0.624755    42A     -0.617411
      43A     -0.600870    44A     -0.596537    45A     -0.581547
      46A     -0.579474    47A     -0.565332    48A     -0.543582
      49A     -0.531419    50A     -0.523468    51A     -0.509624
      52A     -0.484507    53A     -0.483144    54A     -0.466363
      55A     -0.459605    56A     -0.447903    57A     -0.435909
      58A     -0.416712    59A     -0.385448    60A     -0.334006

  @DF-RHF Final Energy:  -811.46697885258254

   => Energetics <=

    Nuclear Repulsion Energy =           1168.8970264578294973
    One-Electron Energy =               -3432.8679252171618828
    Two-Electron Energy =                1452.5039199067496156
    Total Energy =                       -811.4669788525825425
  Basis Set: (AUG-CC-PVTZ AUX)
    Blend: AUG-CC-PVTZ-RI
    Molecular point group: c1

    Geometry (in Angstrom), charge = 0, multiplicity = 1:

       Center              X                  Y                   Z               Mass
    ------------   -----------------  -----------------  -----------------  -----------------
         O            1.356841117994    -0.375348094285    -0.930345902654    15.994914619570
         O            3.196827117994     1.905875905715    -0.298014902654    15.994914619570
         O            2.794177117994    -2.744284094285    -0.398702902654    15.994914619570
         O           -1.367415882006     2.378667905715     0.156281097346    15.994914619570
         N           -0.736245682006     0.186222105715    -0.242481902654    14.003074004430
         N           -3.059401882006     0.809901905715     0.241510097346    14.003074004430
         N           -4.678639882006    -0.807772094285     0.414135097346    14.003074004430
         C            2.696365117994     0.880216905715     0.560972097346    12.000000000000
         C            1.231614117994     1.111888905715     0.889350097346    12.000000000000
         C            2.646589117994    -0.387628094285    -0.283971902654    12.000000000000
         C            0.568728117994     0.687666905715    -0.413417902654    12.000000000000
         C            2.796868117994    -1.655353094285     0.523968097346    12.000000000000
         C           -1.132566882006    -1.111156094285    -0.306777902654    12.000000000000
         C           -1.749917882006     1.208554905715     0.083543097346    12.000000000000
         C           -2.402015882006    -1.567300794285    -0.114211802654    12.000000000000
         C           -3.367221882006    -0.468497094285     0.170009097346    12.000000000000
         H            3.329151117994     0.761447905715     1.452351097346     1.007825032230
         H            0.899477117994     0.448491905715     1.694987097346     1.007825032230
         H            0.980099117994     2.138729905715     1.159645097346     1.007825032230
         H            0.522224117994     1.517916905715    -1.123414902654     1.007825032230
         H            3.412262117994    -0.359620094285    -1.065127902654     1.007825032230
         H            1.965519117994    -1.728521094285     1.244721097346     1.007825032230
         H            3.740859117994    -1.604852094285     1.089787097346     1.007825032230
         H            3.098621117994     2.750986905715     0.179481097346     1.007825032230
         H           -0.315969882006    -1.784538094285    -0.542199902654     1.007825032230
         H            2.904800117994    -3.560409094285     0.120710097346     1.007825032230
         H           -2.708697882006    -2.544421094285    -0.151751902654     1.007825032230
         H           -5.033940882006    -1.633079094285    -0.055220902654     1.007825032230
         H           -5.304700882006    -0.009135094285     0.387599097346     1.007825032230

  Basis Set: AUG-CC-PVTZ
    Blend: AUG-CC-PVTZ
  Basis Set: (AUG-CC-PVTZ AUX)
    Blend: AUG-CC-PVTZ-JKFIT
	 Reference Energy          =    -811.4669788525825425 [Eh]
	 Singles Energy            =      -0.0000000000000000 [Eh]
	 Same-Spin Energy          =      -0.8293078325399811 [Eh]
	 Opposite-Spin Energy      =      -2.5258488084202719 [Eh]
	 Correlation Energy        =      -3.3551566409602529 [Eh]
	 Total Energy              =    -814.8221354935427598 [Eh]

	 ================> DF-SCS-MP2 Energies <==================
	-----------------------------------------------------------
	 SCS Same-Spin Scale       =       0.3333333333333333 [-]
	 SCS Opposite-Spin Scale   =       1.2000000000000000 [-]
	 SCS Same-Spin Energy      =      -0.2764359441799937 [Eh]
	 SCS Opposite-Spin Energy  =      -3.0310185701043264 [Eh]
	 SCS Correlation Energy    =      -3.3074545142843199 [Eh]
	 SCS Total Energy          =    -814.7744333668669015 [Eh]
	-----------------------------------------------------------

  Dipole Moment: [D]
     X:     0.6610      Y:    -4.4037      Z:     2.5707     Total:     5.1418

*** Psi4 exiting successfully. Buy a developer a beer!
