                               Psi4 1.3.2 release

  ==> Input File <==

--------------------------------------------------------------------------
#psi4
#
memory 32 gb

molecule  {
0 1
  O        1.3620710    -0.3800110    -0.9318440
  O        3.2685379     1.8669880    -0.2983905
  O        2.7994070    -2.7489470    -0.4002010
  O       -1.3621860     2.3740050     0.1547830
  N       -0.7982440     0.1994180    -0.2292560
  N       -3.0541720     0.8052390     0.2400120
  N       -4.6734100    -0.8124350     0.4126370
  C        2.7015950     0.8755540     0.5594740
  C        1.2384455     1.0411136     0.9320099
  C        2.6518190    -0.3922910    -0.2854700
  C        0.5739580     0.6830040    -0.4149160
  C        2.8020980    -1.6600160     0.5224700
  C       -1.1273370    -1.1158190    -0.3082760
  C       -1.7446880     1.2038920     0.0820450
  C       -2.4173070    -1.5045610    -0.1045420
  C       -3.3619920    -0.4731600     0.1685110
  H        3.3343810     0.7567850     1.4508530
  H        0.9047070     0.4438290     1.6934890
  H        0.9853290     2.1340670     1.1581470
  H        0.5274540     1.5132540    -1.1249130
  H        3.4174920    -0.3642830    -1.0666260
  H        1.9707490    -1.7331840     1.2432230
  H        3.7460890    -1.6095150     1.0882890
  H        3.1038510     2.7463240     0.1779830
  H       -0.3107400    -1.7892010    -0.5436980
  H        2.9100300    -3.5650720     0.1192120
  H       -2.7034680    -2.5490840    -0.1532500
  H       -5.0287110    -1.6377420    -0.0567190
  H       -5.2994710    -0.0137980     0.3861010
units angstrom
no_reorient  #important for SAPT in psi4, default
symmetry c1  #important for SAPT in psi4, default
}

set PROPERTIES_ORIGIN ["COM"]
properties('MP2/aug-cc-pvtz', properties = ['dipole'])
--------------------------------------------------------------------------

    Molecular point group: c1
  Charge       = 0
  Multiplicity = 1
  Basis Set: AUG-CC-PVTZ
    Blend: AUG-CC-PVTZ
  Basis Set: (AUG-CC-PVTZ AUX)
    Blend: AUG-CC-PVTZ-JKFIT

    Orbital Energies [Eh]
    ---------------------

    Doubly Occupied:

       1A    -20.581509     2A    -20.576997     3A    -20.571748
       4A    -20.503380     5A    -15.621998     6A    -15.588720
       7A    -15.541237     8A    -11.370302     9A    -11.345447
      10A    -11.333066    11A    -11.318601    12A    -11.299991
      13A    -11.295922    14A    -11.290906    15A    -11.238385
      16A    -11.237468    17A     -1.415986    18A     -1.382178
      19A     -1.371369    20A     -1.362830    21A     -1.292618
      22A     -1.261822    23A     -1.169473    24A     -1.078904
      25A     -1.068846    26A     -1.026470    27A     -0.925711
      28A     -0.897825    29A     -0.868805    30A     -0.832897
      31A     -0.804540    32A     -0.754973    33A     -0.738402
      34A     -0.719212    35A     -0.704508    36A     -0.690544
      37A     -0.687132    38A     -0.676775    39A     -0.656155
      40A     -0.639949    41A     -0.631219    42A     -0.619548
      43A     -0.603813    44A     -0.595064    45A     -0.586892
      46A     -0.572468    47A     -0.568470    48A     -0.545428
      49A     -0.537458    50A     -0.518901    51A     -0.510431
      52A     -0.483010    53A     -0.481055    54A     -0.468881
      55A     -0.460507    56A     -0.444238    57A     -0.437394
      58A     -0.416624    59A     -0.384056    60A     -0.335092

  @DF-RHF Final Energy:  -811.46625342278742

   => Energetics <=

    Nuclear Repulsion Energy =           1169.0842099874594169
    One-Electron Energy =               -3433.2126210823303154
    Two-Electron Energy =                1452.6621576720833673
    Total Energy =                       -811.4662534227875312
  Basis Set: (AUG-CC-PVTZ AUX)
    Blend: AUG-CC-PVTZ-RI
    Molecular point group: c1

    Geometry (in Angstrom), charge = 0, multiplicity = 1:

       Center              X                  Y                   Z               Mass
    ------------   -----------------  -----------------  -----------------  -----------------
         O            1.357303837004    -0.374106896950    -0.934256434971    15.994914619570
         O            3.263770737004     1.872892103050    -0.300802934971    15.994914619570
         O            2.794639837004    -2.743042896950    -0.402613434971    15.994914619570
         O           -1.366953162996     2.379909103050     0.152370565029    15.994914619570
         N           -0.803011162996     0.205322103050    -0.231668434971    14.003074004430
         N           -3.058939162996     0.811143103050     0.237599565029    14.003074004430
         N           -4.678177162996    -0.806530896950     0.410224565029    14.003074004430
         C            2.696827837004     0.881458103050     0.557061565029    12.000000000000
         C            1.233678337004     1.047017703050     0.929597465029    12.000000000000
         C            2.647051837004    -0.386386896950    -0.287882434971    12.000000000000
         C            0.569190837004     0.688908103050    -0.417328434971    12.000000000000
         C            2.797330837004    -1.654111896950     0.520057565029    12.000000000000
         C           -1.132104162996    -1.109914896950    -0.310688434971    12.000000000000
         C           -1.749455162996     1.209796103050     0.079632565029    12.000000000000
         C           -2.422074162996    -1.498656896950    -0.106954434971    12.000000000000
         C           -3.366759162996    -0.467255896950     0.166098565029    12.000000000000
         H            3.329613837004     0.762689103050     1.448440565029     1.007825032230
         H            0.899939837004     0.449733103050     1.691076565029     1.007825032230
         H            0.980561837004     2.139971103050     1.155734565029     1.007825032230
         H            0.522686837004     1.519158103050    -1.127325434971     1.007825032230
         H            3.412724837004    -0.358378896950    -1.069038434971     1.007825032230
         H            1.965981837004    -1.727279896950     1.240810565029     1.007825032230
         H            3.741321837004    -1.603610896950     1.085876565029     1.007825032230
         H            3.099083837004     2.752228103050     0.175570565029     1.007825032230
         H           -0.315507162996    -1.783296896950    -0.546110434971     1.007825032230
         H            2.905262837004    -3.559167896950     0.116799565029     1.007825032230
         H           -2.708235162996    -2.543179896950    -0.155662434971     1.007825032230
         H           -5.033478162996    -1.631837896950    -0.059131434971     1.007825032230
         H           -5.304238162996    -0.007893896950     0.383688565029     1.007825032230

  Basis Set: AUG-CC-PVTZ
    Blend: AUG-CC-PVTZ
  Basis Set: (AUG-CC-PVTZ AUX)
    Blend: AUG-CC-PVTZ-JKFIT
	 Reference Energy          =    -811.4662534227874175 [Eh]
	 Singles Energy            =      -0.0000000000000000 [Eh]
	 Same-Spin Energy          =      -0.8304934425774291 [Eh]
	 Opposite-Spin Energy      =      -2.5272303289565605 [Eh]
	 Correlation Energy        =      -3.3577237715339896 [Eh]
	 Total Energy              =    -814.8239771943214009 [Eh]

	 ================> DF-SCS-MP2 Energies <==================
	-----------------------------------------------------------
	 SCS Same-Spin Scale       =       0.3333333333333333 [-]
	 SCS Opposite-Spin Scale   =       1.2000000000000000 [-]
	 SCS Same-Spin Energy      =      -0.2768311475258097 [Eh]
	 SCS Opposite-Spin Energy  =      -3.0326763947478725 [Eh]
	 SCS Correlation Energy    =      -3.3095075422736824 [Eh]
	 SCS Total Energy          =    -814.7757609650610675 [Eh]
	-----------------------------------------------------------

  Dipole Moment: [D]
     X:     0.9012      Y:    -4.6349      Z:     2.4494     Total:     5.3192

*** Psi4 exiting successfully. Buy a developer a beer!
