                               Psi4 1.3.2 release

  ==> Input File <==

--------------------------------------------------------------------------
#psi4
#
memory 32 gb

molecule  {
0 1
  O        1.3620710    -0.3800110    -0.9318440
  O        3.2020570     1.9012130    -0.2995130
  O        2.7994070    -2.7489470    -0.4002010
  O       -1.3621860     2.3740050     0.1547830
  N       -0.7982440     0.1994180    -0.2292560
  N       -3.0541720     0.8052390     0.2400120
  N       -4.6734100    -0.8124350     0.4126370
  C        2.7015950     0.8755540     0.5594740
  C        1.2368440     1.1072260     0.8878520
  C        2.6518190    -0.3922910    -0.2854700
  C        0.5739580     0.6830040    -0.4149160
  C        2.8020980    -1.6600160     0.5224700
  C       -1.1273370    -1.1158190    -0.3082760
  C       -1.7446880     1.2038920     0.0820450
  C       -2.4173070    -1.5045610    -0.1045420
  C       -3.4572697    -0.4978092     0.1862473
  H        3.3343810     0.7567850     1.4508530
  H        0.9047070     0.4438290     1.6934890
  H        0.9853290     2.1340670     1.1581470
  H        0.5274540     1.5132540    -1.1249130
  H        3.4174920    -0.3642830    -1.0666260
  H        1.9707490    -1.7331840     1.2432230
  H        3.7460890    -1.6095150     1.0882890
  H        3.1038510     2.7463240     0.1779830
  H       -0.3107400    -1.7892010    -0.5436980
  H        2.9100300    -3.5650720     0.1192120
  H       -2.7034680    -2.5490840    -0.1532500
  H       -5.0287110    -1.6377420    -0.0567190
  H       -5.2994710    -0.0137980     0.3861010
units angstrom
no_reorient  #important for SAPT in psi4, default
symmetry c1  #important for SAPT in psi4, default
}

set PROPERTIES_ORIGIN ["COM"]
properties('MP2/aug-cc-pvtz', properties = ['dipole'])
--------------------------------------------------------------------------

    Molecular point group: c1
  Charge       = 0
  Multiplicity = 1
  Basis Set: AUG-CC-PVTZ
    Blend: AUG-CC-PVTZ
  Basis Set: (AUG-CC-PVTZ AUX)
    Blend: AUG-CC-PVTZ-JKFIT

    Orbital Energies [Eh]
    ---------------------

    Doubly Occupied:

       1A    -20.575584     2A    -20.571623     3A    -20.569119
       4A    -20.496242     5A    -15.613297     6A    -15.607426
       7A    -15.532520     8A    -11.364177     9A    -11.350671
      10A    -11.325808    11A    -11.313041    12A    -11.297796
      13A    -11.294398    14A    -11.290125    15A    -11.237552
      16A    -11.232892    17A     -1.412429    18A     -1.375718
      19A     -1.371159    20A     -1.362058    21A     -1.314294
      22A     -1.267200    23A     -1.163687    24A     -1.073553
      25A     -1.061059    26A     -1.022090    27A     -0.923411
      28A     -0.890804    29A     -0.868203    30A     -0.830596
      31A     -0.804253    32A     -0.763985    33A     -0.734529
      34A     -0.730405    35A     -0.717124    36A     -0.691443
      37A     -0.688727    38A     -0.677208    39A     -0.653454
      40A     -0.633002    41A     -0.623464    42A     -0.611504
      43A     -0.601024    44A     -0.596158    45A     -0.581961
      46A     -0.571893    47A     -0.567658    48A     -0.548690
      49A     -0.538408    50A     -0.519549    51A     -0.509674
      52A     -0.482642    53A     -0.476897    54A     -0.466016
      55A     -0.457994    56A     -0.439086    57A     -0.427325
      58A     -0.404086    59A     -0.374091    60A     -0.329148

  @DF-RHF Final Energy:  -811.46430947375939

   => Energetics <=

    Nuclear Repulsion Energy =           1168.6388614141808375
    One-Electron Energy =               -3432.5464817580923409
    Two-Electron Energy =                1452.4433108701523452
    Total Energy =                       -811.4643094737593856
  Basis Set: (AUG-CC-PVTZ AUX)
    Blend: AUG-CC-PVTZ-RI
    Molecular point group: c1

    Geometry (in Angstrom), charge = 0, multiplicity = 1:

       Center              X                  Y                   Z               Mass
    ------------   -----------------  -----------------  -----------------  -----------------
         O            1.367105681120    -0.378708515536    -0.932781193447    15.994914619570
         O            3.207091681120     1.902515484464    -0.300450193447    15.994914619570
         O            2.804441681120    -2.747644515536    -0.401138193447    15.994914619570
         O           -1.357151318880     2.375307484464     0.153845806553    15.994914619570
         N           -0.793209318880     0.200720484464    -0.230193193447    14.003074004430
         N           -3.049137318880     0.806541484464     0.239074806553    14.003074004430
         N           -4.668375318880    -0.811132515536     0.411699806553    14.003074004430
         C            2.706629681120     0.876856484464     0.558536806553    12.000000000000
         C            1.241878681120     1.108528484464     0.886914806553    12.000000000000
         C            2.656853681120    -0.390988515536    -0.286407193447    12.000000000000
         C            0.578992681120     0.684306484464    -0.415853193447    12.000000000000
         C            2.807132681120    -1.658713515536     0.521532806553    12.000000000000
         C           -1.122302318880    -1.114516515536    -0.309213193447    12.000000000000
         C           -1.739653318880     1.205194484464     0.081107806553    12.000000000000
         C           -2.412272318880    -1.503258515536    -0.105479193447    12.000000000000
         C           -3.452235018880    -0.496506715536     0.185310106553    12.000000000000
         H            3.339415681120     0.758087484464     1.449915806553     1.007825032230
         H            0.909741681120     0.445131484464     1.692551806553     1.007825032230
         H            0.990363681120     2.135369484464     1.157209806553     1.007825032230
         H            0.532488681120     1.514556484464    -1.125850193447     1.007825032230
         H            3.422526681120    -0.362980515536    -1.067563193447     1.007825032230
         H            1.975783681120    -1.731881515536     1.242285806553     1.007825032230
         H            3.751123681120    -1.608212515536     1.087351806553     1.007825032230
         H            3.108885681120     2.747626484464     0.177045806553     1.007825032230
         H           -0.305705318880    -1.787898515536    -0.544635193447     1.007825032230
         H            2.915064681120    -3.563769515536     0.118274806553     1.007825032230
         H           -2.698433318880    -2.547781515536    -0.154187193447     1.007825032230
         H           -5.023676318880    -1.636439515536    -0.057656193447     1.007825032230
         H           -5.294436318880    -0.012495515536     0.385163806553     1.007825032230

  Basis Set: AUG-CC-PVTZ
    Blend: AUG-CC-PVTZ
  Basis Set: (AUG-CC-PVTZ AUX)
    Blend: AUG-CC-PVTZ-JKFIT
	 Reference Energy          =    -811.4643094737593856 [Eh]
	 Singles Energy            =      -0.0000000000000000 [Eh]
	 Same-Spin Energy          =      -0.8299060159065836 [Eh]
	 Opposite-Spin Energy      =      -2.5253754855052257 [Eh]
	 Correlation Energy        =      -3.3552815014118096 [Eh]
	 Total Energy              =    -814.8195909751711952 [Eh]

	 ================> DF-SCS-MP2 Energies <==================
	-----------------------------------------------------------
	 SCS Same-Spin Scale       =       0.3333333333333333 [-]
	 SCS Opposite-Spin Scale   =       1.2000000000000000 [-]
	 SCS Same-Spin Energy      =      -0.2766353386355279 [Eh]
	 SCS Opposite-Spin Energy  =      -3.0304505826062709 [Eh]
	 SCS Correlation Energy    =      -3.3070859212417987 [Eh]
	 SCS Total Energy          =    -814.7713953950011501 [Eh]
	-----------------------------------------------------------

  Dipole Moment: [D]
     X:     0.0589      Y:    -4.9994      Z:     2.6280     Total:     5.6484

*** Psi4 exiting successfully. Buy a developer a beer!
