                               Psi4 1.3.2 release

  ==> Input File <==

--------------------------------------------------------------------------
#psi4
#
memory 32 gb

molecule  {
0 1
  O        1.3620710    -0.3800110    -0.9318440
  O        3.2020570     1.9012130    -0.2995130
  O        2.7994070    -2.7489470    -0.4002010
  O       -1.3621860     2.3740050     0.1547830
  N       -0.7982440     0.1994180    -0.2292560
  N       -3.0541720     0.8052390     0.2400120
  N       -4.6734100    -0.8124350     0.4126370
  C        2.7015950     0.8755540     0.5594740
  C        1.2351737     1.0949470     0.8926326
  C        2.6518190    -0.3922910    -0.2854700
  C        0.5739580     0.6830040    -0.4149160
  C        2.8020980    -1.6600160     0.5224700
  C       -1.1273370    -1.1158190    -0.3082760
  C       -1.7446880     1.2038920     0.0820450
  C       -2.4173070    -1.5045610    -0.1045420
  C       -3.3619920    -0.4731600     0.1685110
  H        3.3343810     0.7567850     1.4508530
  H        0.9047070     0.4438290     1.6934890
  H        0.9853290     2.1340670     1.1581470
  H        0.5231544     1.5075489    -1.1312386
  H        3.4174920    -0.3642830    -1.0666260
  H        1.9707490    -1.7331840     1.2432230
  H        3.7460890    -1.6095150     1.0882890
  H        3.1038510     2.7463240     0.1779830
  H       -0.3107400    -1.7892010    -0.5436980
  H        2.9100300    -3.5650720     0.1192120
  H       -2.7034680    -2.5490840    -0.1532500
  H       -5.0287110    -1.6377420    -0.0567190
  H       -5.2994710    -0.0137980     0.3861010
units angstrom
no_reorient  #important for SAPT in psi4, default
symmetry c1  #important for SAPT in psi4, default
}

set PROPERTIES_ORIGIN ["COM"]
properties('MP2/aug-cc-pvtz', properties = ['dipole'])
--------------------------------------------------------------------------

    Molecular point group: c1
  Charge       = 0
  Multiplicity = 1
  Basis Set: AUG-CC-PVTZ
    Blend: AUG-CC-PVTZ
  Basis Set: (AUG-CC-PVTZ AUX)
    Blend: AUG-CC-PVTZ-JKFIT

    Orbital Energies [Eh]
    ---------------------

    Doubly Occupied:

       1A    -20.577708     2A    -20.574731     3A    -20.572544
       4A    -20.502943     5A    -15.621503     6A    -15.588315
       7A    -15.540749     8A    -11.369811     9A    -11.344980
      10A    -11.330794    11A    -11.318201    12A    -11.300853
      13A    -11.296832    14A    -11.292850    15A    -11.236959
      16A    -11.236798    17A     -1.416638    18A     -1.382365
      19A     -1.373562    20A     -1.365708    21A     -1.292159
      22A     -1.261379    23A     -1.169067    24A     -1.079045
      25A     -1.068997    26A     -1.027748    27A     -0.926772
      28A     -0.897439    29A     -0.868939    30A     -0.831067
      31A     -0.806072    32A     -0.754246    33A     -0.738654
      34A     -0.720704    35A     -0.706725    36A     -0.692585
      37A     -0.689459    38A     -0.675965    39A     -0.656553
      40A     -0.637193    41A     -0.628143    42A     -0.618652
      43A     -0.604490    44A     -0.595181    45A     -0.588437
      46A     -0.572433    47A     -0.568795    48A     -0.544328
      49A     -0.533305    50A     -0.521798    51A     -0.511777
      52A     -0.485672    53A     -0.481885    54A     -0.468698
      55A     -0.461080    56A     -0.444441    57A     -0.437953
      58A     -0.416239    59A     -0.383739    60A     -0.334846

  @DF-RHF Final Energy:  -811.47913637580950

   => Energetics <=

    Nuclear Repulsion Energy =           1169.9928727467472527
    One-Electron Energy =               -3435.0490119818773564
    Two-Electron Energy =                1453.5770028593206007
    Total Energy =                       -811.4791363758095031
  Basis Set: (AUG-CC-PVTZ AUX)
    Blend: AUG-CC-PVTZ-RI
    Molecular point group: c1

    Geometry (in Angstrom), charge = 0, multiplicity = 1:

       Center              X                  Y                   Z               Mass
    ------------   -----------------  -----------------  -----------------  -----------------
         O            1.362178328221    -0.379336866748    -0.932068510959    15.994914619570
         O            3.202164328221     1.901887133252    -0.299737510959    15.994914619570
         O            2.799514328221    -2.748272866748    -0.400425510959    15.994914619570
         O           -1.362078671779     2.374679133252     0.154558489041    15.994914619570
         N           -0.798136671779     0.200092133252    -0.229480510959    14.003074004430
         N           -3.054064671779     0.805913133252     0.239787489041    14.003074004430
         N           -4.673302671779    -0.811760866748     0.412412489041    14.003074004430
         C            2.701702328221     0.876228133252     0.559249489041    12.000000000000
         C            1.235281028221     1.095621133252     0.892408089041    12.000000000000
         C            2.651926328221    -0.391616866748    -0.285694510959    12.000000000000
         C            0.574065328221     0.683678133252    -0.415140510959    12.000000000000
         C            2.802205328221    -1.659341866748     0.522245489041    12.000000000000
         C           -1.127229671779    -1.115144866748    -0.308500510959    12.000000000000
         C           -1.744580671779     1.204566133252     0.081820489041    12.000000000000
         C           -2.417199671779    -1.503886866748    -0.104766510959    12.000000000000
         C           -3.361884671779    -0.472485866748     0.168286489041    12.000000000000
         H            3.334488328221     0.757459133252     1.450628489041     1.007825032230
         H            0.904814328221     0.444503133252     1.693264489041     1.007825032230
         H            0.985436328221     2.134741133252     1.157922489041     1.007825032230
         H            0.523261728221     1.508223033252    -1.131463110959     1.007825032230
         H            3.417599328221    -0.363608866748    -1.066850510959     1.007825032230
         H            1.970856328221    -1.732509866748     1.242998489041     1.007825032230
         H            3.746196328221    -1.608840866748     1.088064489041     1.007825032230
         H            3.103958328221     2.746998133252     0.177758489041     1.007825032230
         H           -0.310632671779    -1.788526866748    -0.543922510959     1.007825032230
         H            2.910137328221    -3.564397866748     0.118987489041     1.007825032230
         H           -2.703360671779    -2.548409866748    -0.153474510959     1.007825032230
         H           -5.028603671779    -1.637067866748    -0.056943510959     1.007825032230
         H           -5.299363671779    -0.013123866748     0.385876489041     1.007825032230

  Basis Set: AUG-CC-PVTZ
    Blend: AUG-CC-PVTZ
  Basis Set: (AUG-CC-PVTZ AUX)
    Blend: AUG-CC-PVTZ-JKFIT
	 Reference Energy          =    -811.4791363758095031 [Eh]
	 Singles Energy            =      -0.0000000000000000 [Eh]
	 Same-Spin Energy          =      -0.8296917188622451 [Eh]
	 Opposite-Spin Energy      =      -2.5251943066369225 [Eh]
	 Correlation Energy        =      -3.3548860254991677 [Eh]
	 Total Energy              =    -814.8340224013086299 [Eh]

	 ================> DF-SCS-MP2 Energies <==================
	-----------------------------------------------------------
	 SCS Same-Spin Scale       =       0.3333333333333333 [-]
	 SCS Opposite-Spin Scale   =       1.2000000000000000 [-]
	 SCS Same-Spin Energy      =      -0.2765639062874150 [Eh]
	 SCS Opposite-Spin Energy  =      -3.0302331679643069 [Eh]
	 SCS Correlation Energy    =      -3.3067970742517216 [Eh]
	 SCS Total Energy          =    -814.7859334500611794 [Eh]
	-----------------------------------------------------------

  Dipole Moment: [D]
     X:     1.0770      Y:    -4.6782      Z:     2.4904     Total:     5.4081

*** Psi4 exiting successfully. Buy a developer a beer!
