                               Psi4 1.3.2 release

  ==> Input File <==

--------------------------------------------------------------------------
#psi4
#
memory 32 gb

molecule  {
0 1
  O        1.3620710    -0.3800110    -0.9318440
  O        3.2020570     1.9012130    -0.2995130
  O        2.7791705    -2.7581410    -0.3889550
  O       -1.3621860     2.3740050     0.1547830
  N       -0.7982440     0.1994180    -0.2292560
  N       -3.0541720     0.8052390     0.2400120
  N       -4.6734100    -0.8124350     0.4126370
  C        2.7015950     0.8755540     0.5594740
  C        1.2368440     1.1072260     0.8878520
  C        2.6518190    -0.3922910    -0.2854700
  C        0.5739580     0.6830040    -0.4149160
  C        2.8020980    -1.6600160     0.5224700
  C       -1.1273370    -1.1158190    -0.3082760
  C       -1.7446880     1.2038920     0.0820450
  C       -2.4173070    -1.5045610    -0.1045420
  C       -3.3619920    -0.4731600     0.1685110
  H        3.3343810     0.7567850     1.4508530
  H        0.9047070     0.4438290     1.6934890
  H        0.9853290     2.1340670     1.1581470
  H        0.5274540     1.5132540    -1.1249130
  H        3.4174920    -0.3642830    -1.0666260
  H        1.9650492    -1.7494901     1.2347363
  H        3.7460890    -1.6095150     1.0882890
  H        3.1038510     2.7463240     0.1779830
  H       -0.3107400    -1.7892010    -0.5436980
  H        2.9100300    -3.5650720     0.1192120
  H       -2.7034680    -2.5490840    -0.1532500
  H       -5.0287110    -1.6377420    -0.0567190
  H       -5.2994710    -0.0137980     0.3861010
units angstrom
no_reorient  #important for SAPT in psi4, default
symmetry c1  #important for SAPT in psi4, default
}

set PROPERTIES_ORIGIN ["COM"]
properties('MP2/aug-cc-pvtz', properties = ['dipole'])
--------------------------------------------------------------------------

    Molecular point group: c1
  Charge       = 0
  Multiplicity = 1
  Basis Set: AUG-CC-PVTZ
    Blend: AUG-CC-PVTZ
  Basis Set: (AUG-CC-PVTZ AUX)
    Blend: AUG-CC-PVTZ-JKFIT

    Orbital Energies [Eh]
    ---------------------

    Doubly Occupied:

       1A    -20.575669     2A    -20.574533     3A    -20.572957
       4A    -20.502983     5A    -15.621651     6A    -15.588269
       7A    -15.540707     8A    -11.369822     9A    -11.344937
      10A    -11.330750    11A    -11.318135    12A    -11.301153
      13A    -11.297024    14A    -11.293611    15A    -11.236888
      16A    -11.236797    17A     -1.416755    18A     -1.382526
      19A     -1.374695    20A     -1.366217    21A     -1.292146
      22A     -1.261352    23A     -1.169027    24A     -1.078988
      25A     -1.069073    26A     -1.028205    27A     -0.927195
      28A     -0.897469    29A     -0.869100    30A     -0.830813
      31A     -0.806395    32A     -0.754165    33A     -0.738699
      34A     -0.721325    35A     -0.707100    36A     -0.694721
      37A     -0.689383    38A     -0.675740    39A     -0.656465
      40A     -0.636975    41A     -0.627582    42A     -0.618715
      43A     -0.605031    44A     -0.595706    45A     -0.588451
      46A     -0.572802    47A     -0.568945    48A     -0.543995
      49A     -0.532480    50A     -0.523793    51A     -0.510658
      52A     -0.486161    53A     -0.482067    54A     -0.468201
      55A     -0.461034    56A     -0.444509    57A     -0.437969
      58A     -0.416274    59A     -0.383667    60A     -0.334837

  @DF-RHF Final Energy:  -811.48020989035513

   => Energetics <=

    Nuclear Repulsion Energy =           1170.0267580678901140
    One-Electron Energy =               -3435.1073503212282958
    Two-Electron Energy =                1453.6003823629830549
    Total Energy =                       -811.4802098903551268
  Basis Set: (AUG-CC-PVTZ AUX)
    Blend: AUG-CC-PVTZ-RI
    Molecular point group: c1

    Geometry (in Angstrom), charge = 0, multiplicity = 1:

       Center              X                  Y                   Z               Mass
    ------------   -----------------  -----------------  -----------------  -----------------
         O            1.363521618689    -0.379291100002    -0.932598403416    15.994914619570
         O            3.203507618689     1.901932899998    -0.300267403416    15.994914619570
         O            2.780621118689    -2.757421100002    -0.389709403416    15.994914619570
         O           -1.360735381311     2.374724899998     0.154028596584    15.994914619570
         N           -0.796793381311     0.200137899998    -0.230010403416    14.003074004430
         N           -3.052721381311     0.805958899998     0.239257596584    14.003074004430
         N           -4.671959381311    -0.811715100002     0.411882596584    14.003074004430
         C            2.703045618689     0.876273899998     0.558719596584    12.000000000000
         C            1.238294618689     1.107945899998     0.887097596584    12.000000000000
         C            2.653269618689    -0.391571100002    -0.286224403416    12.000000000000
         C            0.575408618689     0.683723899998    -0.415670403416    12.000000000000
         C            2.803548618689    -1.659296100002     0.521715596584    12.000000000000
         C           -1.125886381311    -1.115099100002    -0.309030403416    12.000000000000
         C           -1.743237381311     1.204611899998     0.081290596584    12.000000000000
         C           -2.415856381311    -1.503841100002    -0.105296403416    12.000000000000
         C           -3.360541381311    -0.472440100002     0.167756596584    12.000000000000
         H            3.335831618689     0.757504899998     1.450098596584     1.007825032230
         H            0.906157618689     0.444548899998     1.692734596584     1.007825032230
         H            0.986779618689     2.134786899998     1.157392596584     1.007825032230
         H            0.528904618689     1.513973899998    -1.125667403416     1.007825032230
         H            3.418942618689    -0.363563100002    -1.067380403416     1.007825032230
         H            1.966499818689    -1.748770200002     1.233981896584     1.007825032230
         H            3.747539618689    -1.608795100002     1.087534596584     1.007825032230
         H            3.105301618689     2.747043899998     0.177228596584     1.007825032230
         H           -0.309289381311    -1.788481100002    -0.544452403416     1.007825032230
         H            2.911480618689    -3.564352100002     0.118457596584     1.007825032230
         H           -2.702017381311    -2.548364100002    -0.154004403416     1.007825032230
         H           -5.027260381311    -1.637022100002    -0.057473403416     1.007825032230
         H           -5.298020381311    -0.013078100002     0.385346596584     1.007825032230

  Basis Set: AUG-CC-PVTZ
    Blend: AUG-CC-PVTZ
  Basis Set: (AUG-CC-PVTZ AUX)
    Blend: AUG-CC-PVTZ-JKFIT
	 Reference Energy          =    -811.4802098903551268 [Eh]
	 Singles Energy            =      -0.0000000000000000 [Eh]
	 Same-Spin Energy          =      -0.8294544293051671 [Eh]
	 Opposite-Spin Energy      =      -2.5246802686837246 [Eh]
	 Correlation Energy        =      -3.3541346979888917 [Eh]
	 Total Energy              =    -814.8343445883440381 [Eh]

	 ================> DF-SCS-MP2 Energies <==================
	-----------------------------------------------------------
	 SCS Same-Spin Scale       =       0.3333333333333333 [-]
	 SCS Opposite-Spin Scale   =       1.2000000000000000 [-]
	 SCS Same-Spin Energy      =      -0.2764848097683890 [Eh]
	 SCS Opposite-Spin Energy  =      -3.0296163224204693 [Eh]
	 SCS Correlation Energy    =      -3.3061011321888585 [Eh]
	 SCS Total Energy          =    -814.7863110225439414 [Eh]
	-----------------------------------------------------------

  Dipole Moment: [D]
     X:     1.1208      Y:    -4.6572      Z:     2.4767     Total:     5.3926

*** Psi4 exiting successfully. Buy a developer a beer!
