                               Psi4 1.4a3.dev225

  ==> Input File <==

--------------------------------------------------------------------------
#psi4
#
memory 32 gb

molecule  {
0 1
  O       -1.4695130     0.3030610    -1.0874480
  O       -3.6436400    -1.4204040    -0.2669360
  O       -1.6911330     2.8536240     0.0000030
  O        1.1857770    -2.4961310     0.0874550
  N        0.6842480    -0.3150290    -0.3399290
  N        2.9133760    -0.9647370     0.2108410
  N        4.5636770     0.6178870     0.3785230
  C       -2.7686820    -0.6858470     0.5863090
  C       -1.3787780    -1.3118450     0.6568060
  C       -2.4925280     0.6283540    -0.1295840
  C       -0.6939390    -0.7805590    -0.6115670
  C       -2.0414120     1.7324860     0.8087370
  C        1.0545030     0.9838330    -0.4888120
  C        1.6080830    -1.3384950     0.0010630
  C        2.3487550     1.3478080    -0.2622830
  C        3.2578570     0.3046130     0.0876290
  H       -3.2188600    -0.5381750     1.5798200
  H       -0.8341690    -0.9801840     1.5464130
  H       -1.3950130    -2.4033150     0.6754970
  H       -0.6263030    -1.5384450    -1.3968420
  H       -3.3591510     0.9641520    -0.7058050
  H       -1.2239005     1.4093753     1.3824854
  H       -2.8667900     1.9743150     1.4948250
  H       -3.6905400    -2.3294490     0.0774600
  H        0.2668220     1.6750250    -0.7707300
  H       -1.4321050     3.5760960     0.5972330
  H        2.6621150     2.3809760    -0.3596430
  H        4.9550500     1.4416620    -0.0591730
  H        5.1797170    -0.1867780     0.4106900
units angstrom
no_reorient  #important for SAPT in psi4, default
symmetry c1  #important for SAPT in psi4, default
}

set PROPERTIES_ORIGIN ["COM"]
properties('MP2/aug-cc-pvtz', properties = ['dipole'])
--------------------------------------------------------------------------

    Molecular point group: c1
  Charge       = 0
  Multiplicity = 1
  Basis Set: AUG-CC-PVTZ
    Blend: AUG-CC-PVTZ
  Basis Set: (AUG-CC-PVTZ AUX)
    Blend: AUG-CC-PVTZ-JKFIT

    Orbital Energies [Eh]
    ---------------------

    Doubly Occupied:

       1A    -20.582566     2A    -20.574353     3A    -20.572609
       4A    -20.501986     5A    -15.619205     6A    -15.588986
       7A    -15.539927     8A    -11.368864     9A    -11.345903
      10A    -11.333216    11A    -11.314663    12A    -11.299467
      13A    -11.294445    14A    -11.293753    15A    -11.237437
      16A    -11.235431    17A     -1.418831    18A     -1.381480
      19A     -1.377308    20A     -1.366023    21A     -1.290346
      22A     -1.258715    23A     -1.168572    24A     -1.076503
      25A     -1.068351    26A     -1.025459    27A     -0.932789
      28A     -0.895674    29A     -0.868312    30A     -0.830327
      31A     -0.806852    32A     -0.753903    33A     -0.737971
      34A     -0.726792    35A     -0.707517    36A     -0.701584
      37A     -0.690922    38A     -0.674279    39A     -0.652723
      40A     -0.643038    41A     -0.622793    42A     -0.617874
      43A     -0.606572    44A     -0.595812    45A     -0.587973
      46A     -0.572576    47A     -0.565553    48A     -0.551893
      49A     -0.526935    50A     -0.520814    51A     -0.510842
      52A     -0.485105    53A     -0.480801    54A     -0.474649
      55A     -0.459677    56A     -0.448068    57A     -0.440836
      58A     -0.413695    59A     -0.382505    60A     -0.334012

  @DF-RHF Final Energy:  -811.47856306621247

   => Energetics <=

    Nuclear Repulsion Energy =           1185.3406959120345618
    One-Electron Energy =               -3465.7263896890867727
    Two-Electron Energy =                1468.9071307108399651
    Total Energy =                       -811.4785630662124731
  Basis Set: (AUG-CC-PVTZ AUX)
    Blend: AUG-CC-PVTZ-RI
    Molecular point group: c1

    Geometry (in Angstrom), charge = 0, multiplicity = 1:

       Center              X                  Y                   Z               Mass
    ------------   -----------------  -----------------  -----------------  -----------------
         O           -1.493799440456     0.326708107166    -1.067699430172    15.994914619570
         O           -3.667926440456    -1.396756892834    -0.247187430172    15.994914619570
         O           -1.715419440456     2.877271107166     0.019751569828    15.994914619570
         O            1.161490559544    -2.472483892834     0.107203569828    15.994914619570
         N            0.659961559544    -0.291381892834    -0.320180430172    14.003074004430
         N            2.889089559544    -0.941089892834     0.230589569828    14.003074004430
         N            4.539390559544     0.641534107166     0.398271569828    14.003074004430
         C           -2.792968440456    -0.662199892834     0.606057569828    12.000000000000
         C           -1.403064440456    -1.288197892834     0.676554569828    12.000000000000
         C           -2.516814440456     0.652001107166    -0.109835430172    12.000000000000
         C           -0.718225440456    -0.756911892834    -0.591818430172    12.000000000000
         C           -2.065698440456     1.756133107166     0.828485569828    12.000000000000
         C            1.030216559544     1.007480107166    -0.469063430172    12.000000000000
         C            1.583796559544    -1.314847892834     0.020811569828    12.000000000000
         C            2.324468559544     1.371455107166    -0.242534430172    12.000000000000
         C            3.233570559544     0.328260107166     0.107377569828    12.000000000000
         H           -3.243146440456    -0.514527892834     1.599568569828     1.007825032230
         H           -0.858455440456    -0.956536892834     1.566161569828     1.007825032230
         H           -1.419299440456    -2.379667892834     0.695245569828     1.007825032230
         H           -0.650589440456    -1.514797892834    -1.377093430172     1.007825032230
         H           -3.383437440456     0.987799107166    -0.686056430172     1.007825032230
         H           -1.248186940456     1.433022407166     1.402233969828     1.007825032230
         H           -2.891076440456     1.997962107166     1.514573569828     1.007825032230
         H           -3.714826440456    -2.305801892834     0.097208569828     1.007825032230
         H            0.242535559544     1.698672107166    -0.750981430172     1.007825032230
         H           -1.456391440456     3.599743107166     0.616981569828     1.007825032230
         H            2.637828559544     2.404623107166    -0.339894430172     1.007825032230
         H            4.930763559544     1.465309107166    -0.039424430172     1.007825032230
         H            5.155430559544    -0.163130892834     0.430438569828     1.007825032230

  Basis Set: AUG-CC-PVTZ
    Blend: AUG-CC-PVTZ
  Basis Set: (AUG-CC-PVTZ AUX)
    Blend: AUG-CC-PVTZ-JKFIT
	 Reference Energy          =    -811.4785630662124731 [Eh]
	 Singles Energy            =      -0.0000000000000000 [Eh]
	 Same-Spin Energy          =      -0.8306875487921620 [Eh]
	 Opposite-Spin Energy      =      -2.5266056692795207 [Eh]
	 Correlation Energy        =      -3.3572932180716828 [Eh]
	 Total Energy              =    -814.8358562842842048 [Eh]

	 ================> DF-SCS-MP2 Energies <==================
	-----------------------------------------------------------
	 SCS Same-Spin Scale       =       0.3333333333333333 [-]
	 SCS Opposite-Spin Scale   =       1.2000000000000000 [-]
	 SCS Same-Spin Energy      =      -0.2768958495973873 [Eh]
	 SCS Opposite-Spin Energy  =      -3.0319268031354247 [Eh]
	 SCS Correlation Energy    =      -3.3088226527328120 [Eh]
	 SCS Total Energy          =    -814.7873857189453020 [Eh]
	-----------------------------------------------------------

  Dipole Moment: [D]
     X:    -0.3086      Y:     4.5796      Z:     2.4286     Total:     5.1929

*** Psi4 exiting successfully. Buy a developer a beer!
