                               Psi4 1.3.2 release

  ==> Input File <==

--------------------------------------------------------------------------
#psi4
#
memory 32 gb

molecule  {
0 1
  O        1.3620710    -0.3800110    -0.9318440
  O        3.1795828     1.9120010    -0.2993639
  O        2.7994070    -2.7489470    -0.4002010
  O       -1.3621860     2.3740050     0.1547830
  N       -0.7982440     0.1994180    -0.2292560
  N       -3.0541720     0.8052390     0.2400120
  N       -4.6734100    -0.8124350     0.4126370
  C        2.7015950     0.8755540     0.5594740
  C        1.2372025     1.1291312     0.8729267
  C        2.6518190    -0.3922910    -0.2854700
  C        0.5739580     0.6830040    -0.4149160
  C        2.8020980    -1.6600160     0.5224700
  C       -1.1273370    -1.1158190    -0.3082760
  C       -1.7446880     1.2038920     0.0820450
  C       -2.4173070    -1.5045610    -0.1045420
  C       -3.3619920    -0.4731600     0.1685110
  H        3.3343810     0.7567850     1.4508530
  H        0.9047070     0.4438290     1.6934890
  H        0.9853290     2.1340670     1.1581470
  H        0.5274540     1.5132540    -1.1249130
  H        3.4174920    -0.3642830    -1.0666260
  H        1.9707490    -1.7331840     1.2432230
  H        3.7460890    -1.6095150     1.0882890
  H        3.1038510     2.7463240     0.1779830
  H       -0.3107400    -1.7892010    -0.5436980
  H        2.9100300    -3.5650720     0.1192120
  H       -2.7034680    -2.5490840    -0.1532500
  H       -5.0287110    -1.6377420    -0.0567190
  H       -5.2994710    -0.0137980     0.3861010
units angstrom
no_reorient  #important for SAPT in psi4, default
symmetry c1  #important for SAPT in psi4, default
}

set PROPERTIES_ORIGIN ["COM"]
properties('MP2/aug-cc-pvtz', properties = ['dipole'])
--------------------------------------------------------------------------

    Molecular point group: c1
  Charge       = 0
  Multiplicity = 1
  Basis Set: AUG-CC-PVTZ
    Blend: AUG-CC-PVTZ
  Basis Set: (AUG-CC-PVTZ AUX)
    Blend: AUG-CC-PVTZ-JKFIT

    Orbital Energies [Eh]
    ---------------------

    Doubly Occupied:

       1A    -20.578018     2A    -20.573330     3A    -20.572135
       4A    -20.502920     5A    -15.621650     6A    -15.588215
       7A    -15.540631     8A    -11.369741     9A    -11.344877
      10A    -11.330172    11A    -11.318168    12A    -11.301371
      13A    -11.297193    14A    -11.293849    15A    -11.236857
      16A    -11.236672    17A     -1.416973    18A     -1.382605
      19A     -1.374549    20A     -1.366507    21A     -1.292078
      22A     -1.261276    23A     -1.168967    24A     -1.079085
      25A     -1.069026    26A     -1.028488    27A     -0.927223
      28A     -0.897344    29A     -0.869171    30A     -0.830480
      31A     -0.807033    32A     -0.754000    33A     -0.739066
      34A     -0.721745    35A     -0.708114    36A     -0.694015
      37A     -0.689752    38A     -0.675219    39A     -0.656644
      40A     -0.636871    41A     -0.626408    42A     -0.617858
      43A     -0.604734    44A     -0.595122    45A     -0.589227
      46A     -0.572886    47A     -0.568796    48A     -0.545880
      49A     -0.531211    50A     -0.526768    51A     -0.507741
      52A     -0.486743    53A     -0.481664    54A     -0.468007
      55A     -0.460756    56A     -0.444441    57A     -0.437850
      58A     -0.416199    59A     -0.383586    60A     -0.334840

  @DF-RHF Final Energy:  -811.47906347792809

   => Energetics <=

    Nuclear Repulsion Energy =           1170.2310258320690082
    One-Electron Energy =               -3435.5146809124903484
    Two-Electron Energy =                1453.8045916024932467
    Total Energy =                       -811.4790634779280936
  Basis Set: (AUG-CC-PVTZ AUX)
    Blend: AUG-CC-PVTZ-RI
    Molecular point group: c1

    Geometry (in Angstrom), charge = 0, multiplicity = 1:

       Center              X                  Y                   Z               Mass
    ------------   -----------------  -----------------  -----------------  -----------------
         O            1.363634989382    -0.381928401872    -0.931065779651    15.994914619570
         O            3.181146789382     1.910083598128    -0.298585679651    15.994914619570
         O            2.800970989382    -2.750864401872    -0.399422779651    15.994914619570
         O           -1.360622010618     2.372087598128     0.155561220349    15.994914619570
         N           -0.796680010618     0.197500598128    -0.228477779651    14.003074004430
         N           -3.052608010618     0.803321598128     0.240790220349    14.003074004430
         N           -4.671846010618    -0.814352401872     0.413415220349    14.003074004430
         C            2.703158989382     0.873636598128     0.560252220349    12.000000000000
         C            1.238766489382     1.127213798128     0.873704920349    12.000000000000
         C            2.653382989382    -0.394208401872    -0.284691779651    12.000000000000
         C            0.575521989382     0.681086598128    -0.414137779651    12.000000000000
         C            2.803661989382    -1.661933401872     0.523248220349    12.000000000000
         C           -1.125773010618    -1.117736401872    -0.307497779651    12.000000000000
         C           -1.743124010618     1.201974598128     0.082823220349    12.000000000000
         C           -2.415743010618    -1.506478401872    -0.103763779651    12.000000000000
         C           -3.360428010618    -0.475077401872     0.169289220349    12.000000000000
         H            3.335944989382     0.754867598128     1.451631220349     1.007825032230
         H            0.906270989382     0.441911598128     1.694267220349     1.007825032230
         H            0.986892989382     2.132149598128     1.158925220349     1.007825032230
         H            0.529017989382     1.511336598128    -1.124134779651     1.007825032230
         H            3.419055989382    -0.366200401872    -1.065847779651     1.007825032230
         H            1.972312989382    -1.735101401872     1.244001220349     1.007825032230
         H            3.747652989382    -1.611432401872     1.089067220349     1.007825032230
         H            3.105414989382     2.744406598128     0.178761220349     1.007825032230
         H           -0.309176010618    -1.791118401872    -0.542919779651     1.007825032230
         H            2.911593989382    -3.566989401872     0.119990220349     1.007825032230
         H           -2.701904010618    -2.551001401872    -0.152471779651     1.007825032230
         H           -5.027147010618    -1.639659401872    -0.055940779651     1.007825032230
         H           -5.297907010618    -0.015715401872     0.386879220349     1.007825032230

  Basis Set: AUG-CC-PVTZ
    Blend: AUG-CC-PVTZ
  Basis Set: (AUG-CC-PVTZ AUX)
    Blend: AUG-CC-PVTZ-JKFIT
	 Reference Energy          =    -811.4790634779280936 [Eh]
	 Singles Energy            =      -0.0000000000000000 [Eh]
	 Same-Spin Energy          =      -0.8294937789822754 [Eh]
	 Opposite-Spin Energy      =      -2.5247361830980113 [Eh]
	 Correlation Energy        =      -3.3542299620802867 [Eh]
	 Total Energy              =    -814.8332934400083332 [Eh]

	 ================> DF-SCS-MP2 Energies <==================
	-----------------------------------------------------------
	 SCS Same-Spin Scale       =       0.3333333333333333 [-]
	 SCS Opposite-Spin Scale   =       1.2000000000000000 [-]
	 SCS Same-Spin Energy      =      -0.2764979263274251 [Eh]
	 SCS Opposite-Spin Energy  =      -3.0296834197176135 [Eh]
	 SCS Correlation Energy    =      -3.3061813460450384 [Eh]
	 SCS Total Energy          =    -814.7852448239731302 [Eh]
	-----------------------------------------------------------

  Dipole Moment: [D]
     X:     1.1397      Y:    -4.6920      Z:     2.4941     Total:     5.4345

*** Psi4 exiting successfully. Buy a developer a beer!
