                               Psi4 1.3.2 release

  ==> Input File <==

--------------------------------------------------------------------------
#psi4
#
memory 32 gb

molecule  {
0 1
  O        1.3620710    -0.3800110    -0.9318440
  O        3.2020570     1.9012130    -0.2995130
  O        2.7994070    -2.7489470    -0.4002010
  O       -1.3621860     2.3740050     0.1547830
  N       -0.7982440     0.1994180    -0.2292560
  N       -3.0541720     0.8052390     0.2400120
  N       -4.6734100    -0.8124350     0.4126370
  C        2.7015950     0.8755540     0.5594740
  C        1.2368440     1.1072260     0.8878520
  C        2.6518190    -0.3922910    -0.2854700
  C        0.5739580     0.6830040    -0.4149160
  C        2.8020980    -1.6600160     0.5224700
  C       -1.1943053    -1.0981034    -0.2922521
  C       -1.7963180     1.1510054     0.0869122
  C       -2.4173070    -1.5045610    -0.1045420
  C       -3.3619920    -0.4731600     0.1685110
  H        3.3343810     0.7567850     1.4508530
  H        0.9047070     0.4438290     1.6934890
  H        0.9853290     2.1340670     1.1581470
  H        0.5274540     1.5132540    -1.1249130
  H        3.4174920    -0.3642830    -1.0666260
  H        1.9707490    -1.7331840     1.2432230
  H        3.7460890    -1.6095150     1.0882890
  H        3.1038510     2.7463240     0.1779830
  H       -0.3107400    -1.7892010    -0.5436980
  H        2.9100300    -3.5650720     0.1192120
  H       -2.7034680    -2.5490840    -0.1532500
  H       -5.0287110    -1.6377420    -0.0567190
  H       -5.2994710    -0.0137980     0.3861010
units angstrom
no_reorient  #important for SAPT in psi4, default
symmetry c1  #important for SAPT in psi4, default
}

set PROPERTIES_ORIGIN ["COM"]
properties('MP2/aug-cc-pvtz', properties = ['dipole'])
--------------------------------------------------------------------------

    Molecular point group: c1
  Charge       = 0
  Multiplicity = 1
  Basis Set: AUG-CC-PVTZ
    Blend: AUG-CC-PVTZ
  Basis Set: (AUG-CC-PVTZ AUX)
    Blend: AUG-CC-PVTZ-JKFIT

    Orbital Energies [Eh]
    ---------------------

    Doubly Occupied:

       1A    -20.576692     2A    -20.572232     3A    -20.571558
       4A    -20.483111     5A    -15.621930     6A    -15.597680
       7A    -15.547251     8A    -11.365041     9A    -11.356373
      10A    -11.331212    11A    -11.315379    12A    -11.298715
      13A    -11.295614    14A    -11.291580    15A    -11.237129
      16A    -11.233969    17A     -1.414062    18A     -1.372438
      19A     -1.371594    20A     -1.358611    21A     -1.284316
      22A     -1.254170    23A     -1.188284    24A     -1.088948
      25A     -1.071483    26A     -1.030827    27A     -0.928679
      28A     -0.891093    29A     -0.875414    30A     -0.836722
      31A     -0.806079    32A     -0.764380    33A     -0.739558
      34A     -0.719871    35A     -0.707936    36A     -0.691541
      37A     -0.688296    38A     -0.674556    39A     -0.656243
      40A     -0.642118    41A     -0.629296    42A     -0.611429
      43A     -0.602067    44A     -0.590911    45A     -0.582042
      46A     -0.569726    47A     -0.561939    48A     -0.543105
      49A     -0.531788    50A     -0.521538    51A     -0.505842
      52A     -0.483795    53A     -0.475532    54A     -0.467248
      55A     -0.459311    56A     -0.440190    57A     -0.437998
      58A     -0.409058    59A     -0.387338    60A     -0.341931

  @DF-RHF Final Energy:  -811.46152434456610

   => Energetics <=

    Nuclear Repulsion Energy =           1170.4059016235735271
    One-Electron Energy =               -3435.9253180823643561
    Two-Electron Energy =                1454.0578921142248419
    Total Energy =                       -811.4615243445662145
  Basis Set: (AUG-CC-PVTZ AUX)
    Blend: AUG-CC-PVTZ-RI
    Molecular point group: c1

    Geometry (in Angstrom), charge = 0, multiplicity = 1:

       Center              X                  Y                   Z               Mass
    ------------   -----------------  -----------------  -----------------  -----------------
         O            1.368337996296    -0.378152518957    -0.932947900475    15.994914619570
         O            3.208323996296     1.903071481043    -0.300616900475    15.994914619570
         O            2.805673996296    -2.747088518957    -0.401304900475    15.994914619570
         O           -1.355919003704     2.375863481043     0.153679099525    15.994914619570
         N           -0.791977003704     0.201276481043    -0.230359900475    14.003074004430
         N           -3.047905003704     0.807097481043     0.238908099525    14.003074004430
         N           -4.667143003704    -0.810576518957     0.411533099525    14.003074004430
         C            2.707861996296     0.877412481043     0.558370099525    12.000000000000
         C            1.243110996296     1.109084481043     0.886748099525    12.000000000000
         C            2.658085996296    -0.390432518957    -0.286573900475    12.000000000000
         C            0.580224996296     0.684862481043    -0.416019900475    12.000000000000
         C            2.808364996296    -1.658157518957     0.521366099525    12.000000000000
         C           -1.188038303704    -1.096244918957    -0.293356000475    12.000000000000
         C           -1.790051003704     1.152863881043     0.085808299525    12.000000000000
         C           -2.411040003704    -1.502702518957    -0.105645900475    12.000000000000
         C           -3.355725003704    -0.471301518957     0.167407099525    12.000000000000
         H            3.340647996296     0.758643481043     1.449749099525     1.007825032230
         H            0.910973996296     0.445687481043     1.692385099525     1.007825032230
         H            0.991595996296     2.135925481043     1.157043099525     1.007825032230
         H            0.533720996296     1.515112481043    -1.126016900475     1.007825032230
         H            3.423758996296    -0.362424518957    -1.067729900475     1.007825032230
         H            1.977015996296    -1.731325518957     1.242119099525     1.007825032230
         H            3.752355996296    -1.607656518957     1.087185099525     1.007825032230
         H            3.110117996296     2.748182481043     0.176879099525     1.007825032230
         H           -0.304473003704    -1.787342518957    -0.544801900475     1.007825032230
         H            2.916296996296    -3.563213518957     0.118108099525     1.007825032230
         H           -2.697201003704    -2.547225518957    -0.154353900475     1.007825032230
         H           -5.022444003704    -1.635883518957    -0.057822900475     1.007825032230
         H           -5.293204003704    -0.011939518957     0.384997099525     1.007825032230

  Basis Set: AUG-CC-PVTZ
    Blend: AUG-CC-PVTZ
  Basis Set: (AUG-CC-PVTZ AUX)
    Blend: AUG-CC-PVTZ-JKFIT
	 Reference Energy          =    -811.4615243445661008 [Eh]
	 Singles Energy            =      -0.0000000000000000 [Eh]
	 Same-Spin Energy          =      -0.8304577856283154 [Eh]
	 Opposite-Spin Energy      =      -2.5259860685833257 [Eh]
	 Correlation Energy        =      -3.3564438542116410 [Eh]
	 Total Energy              =    -814.8179681987777485 [Eh]

	 ================> DF-SCS-MP2 Energies <==================
	-----------------------------------------------------------
	 SCS Same-Spin Scale       =       0.3333333333333333 [-]
	 SCS Opposite-Spin Scale   =       1.2000000000000000 [-]
	 SCS Same-Spin Energy      =      -0.2768192618761051 [Eh]
	 SCS Opposite-Spin Energy  =      -3.0311832822999909 [Eh]
	 SCS Correlation Energy    =      -3.3080025441760958 [Eh]
	 SCS Total Energy          =    -814.7695268887422344 [Eh]
	-----------------------------------------------------------

  Dipole Moment: [D]
     X:     0.5370      Y:    -5.2941      Z:     2.5083     Total:     5.8828

*** Psi4 exiting successfully. Buy a developer a beer!
