                               Psi4 1.4a3.dev225

  ==> Input File <==

--------------------------------------------------------------------------
#psi4
#
memory 32 gb

molecule  {
0 1
  O       -1.4695130     0.3030610    -1.0874480
  O       -3.6436400    -1.4204040    -0.2669360
  O       -1.6911330     2.8536240     0.0000030
  O        1.1857770    -2.4961310     0.0874550
  N        0.6842480    -0.3150290    -0.3399290
  N        2.9133760    -0.9647370     0.2108410
  N        4.5636770     0.6178870     0.3785230
  C       -2.7686820    -0.6858470     0.5863090
  C       -1.3787780    -1.3118450     0.6568060
  C       -2.4925280     0.6283540    -0.1295840
  C       -0.6939390    -0.7805590    -0.6115670
  C       -2.0414120     1.7324860     0.8087370
  C        1.0545030     0.9838330    -0.4888120
  C        1.6080830    -1.3384950     0.0010630
  C        2.3487550     1.3478080    -0.2622830
  C        3.2578570     0.3046130     0.0876290
  H       -3.2188600    -0.5381750     1.5798200
  H       -0.8341690    -0.9801840     1.5464130
  H       -1.3950130    -2.4033150     0.6754970
  H       -0.6250659    -1.5523073    -1.4112053
  H       -3.3591510     0.9641520    -0.7058050
  H       -1.1849610     1.3939850     1.4098140
  H       -2.8667900     1.9743150     1.4948250
  H       -3.6905400    -2.3294490     0.0774600
  H        0.2668220     1.6750250    -0.7707300
  H       -1.4321050     3.5760960     0.5972330
  H        2.6621150     2.3809760    -0.3596430
  H        4.9550500     1.4416620    -0.0591730
  H        5.1797170    -0.1867780     0.4106900
units angstrom
no_reorient  #important for SAPT in psi4, default
symmetry c1  #important for SAPT in psi4, default
}

set PROPERTIES_ORIGIN ["COM"]
properties('MP2/aug-cc-pvtz', properties = ['dipole'])
--------------------------------------------------------------------------

    Molecular point group: c1
  Charge       = 0
  Multiplicity = 1
  Basis Set: AUG-CC-PVTZ
    Blend: AUG-CC-PVTZ
  Basis Set: (AUG-CC-PVTZ AUX)
    Blend: AUG-CC-PVTZ-JKFIT

    Orbital Energies [Eh]
    ---------------------

    Doubly Occupied:

       1A    -20.583613     2A    -20.574590     3A    -20.572621
       4A    -20.501845     5A    -15.619230     6A    -15.588909
       7A    -15.539823     8A    -11.368725     9A    -11.345808
      10A    -11.335294    11A    -11.314592    12A    -11.300293
      13A    -11.299551    14A    -11.294822    15A    -11.237373
      16A    -11.235348    17A     -1.418872    18A     -1.381683
      19A     -1.377548    20A     -1.366097    21A     -1.290246
      22A     -1.258623    23A     -1.168452    24A     -1.076171
      25A     -1.067729    26A     -1.024584    27A     -0.929613
      28A     -0.895094    29A     -0.867850    30A     -0.829350
      31A     -0.804777    32A     -0.753512    33A     -0.737694
      34A     -0.724810    35A     -0.707323    36A     -0.701851
      37A     -0.689948    38A     -0.672949    39A     -0.650892
      40A     -0.641767    41A     -0.622369    42A     -0.617824
      43A     -0.606750    44A     -0.595793    45A     -0.587620
      46A     -0.572534    47A     -0.565340    48A     -0.551164
      49A     -0.526736    50A     -0.520188    51A     -0.510478
      52A     -0.485082    53A     -0.480759    54A     -0.472402
      55A     -0.459491    56A     -0.447668    57A     -0.440644
      58A     -0.413563    59A     -0.382275    60A     -0.333887

  @DF-RHF Final Energy:  -811.47852348828246

   => Energetics <=

    Nuclear Repulsion Energy =           1185.0142584212615020
    One-Electron Energy =               -3465.1006800183940868
    Two-Electron Energy =                1468.6078981088498949
    Total Energy =                       -811.4785234882824625
  Basis Set: (AUG-CC-PVTZ AUX)
    Blend: AUG-CC-PVTZ-RI
    Molecular point group: c1

    Geometry (in Angstrom), charge = 0, multiplicity = 1:

       Center              X                  Y                   Z               Mass
    ------------   -----------------  -----------------  -----------------  -----------------
         O           -1.493977743662     0.326837929809    -1.067756969998    15.994914619570
         O           -3.668104743662    -1.396627070191    -0.247244969998    15.994914619570
         O           -1.715597743662     2.877400929809     0.019694030002    15.994914619570
         O            1.161312256338    -2.472354070191     0.107146030002    15.994914619570
         N            0.659783256338    -0.291252070191    -0.320237969998    14.003074004430
         N            2.888911256338    -0.940960070191     0.230532030002    14.003074004430
         N            4.539212256338     0.641663929809     0.398214030002    14.003074004430
         C           -2.793146743662    -0.662070070191     0.606000030002    12.000000000000
         C           -1.403242743662    -1.288068070191     0.676497030002    12.000000000000
         C           -2.516992743662     0.652130929809    -0.109892969998    12.000000000000
         C           -0.718403743662    -0.756782070191    -0.591875969998    12.000000000000
         C           -2.065876743662     1.756262929809     0.828428030002    12.000000000000
         C            1.030038256338     1.007609929809    -0.469120969998    12.000000000000
         C            1.583618256338    -1.314718070191     0.020754030002    12.000000000000
         C            2.324290256338     1.371584929809    -0.242591969998    12.000000000000
         C            3.233392256338     0.328389929809     0.107320030002    12.000000000000
         H           -3.243324743662    -0.514398070191     1.599511030002     1.007825032230
         H           -0.858633743662    -0.956407070191     1.566104030002     1.007825032230
         H           -1.419477743662    -2.379538070191     0.695188030002     1.007825032230
         H           -0.649530643662    -1.528530370191    -1.391514269998     1.007825032230
         H           -3.383615743662     0.987928929809    -0.686113969998     1.007825032230
         H           -1.209425743662     1.417761929809     1.429505030002     1.007825032230
         H           -2.891254743662     1.998091929809     1.514516030002     1.007825032230
         H           -3.715004743662    -2.305672070191     0.097151030002     1.007825032230
         H            0.242357256338     1.698801929809    -0.751038969998     1.007825032230
         H           -1.456569743662     3.599872929809     0.616924030002     1.007825032230
         H            2.637650256338     2.404752929809    -0.339951969998     1.007825032230
         H            4.930585256338     1.465438929809    -0.039481969998     1.007825032230
         H            5.155252256338    -0.163001070191     0.430381030002     1.007825032230

  Basis Set: AUG-CC-PVTZ
    Blend: AUG-CC-PVTZ
  Basis Set: (AUG-CC-PVTZ AUX)
    Blend: AUG-CC-PVTZ-JKFIT
	 Reference Energy          =    -811.4785234882824625 [Eh]
	 Singles Energy            =      -0.0000000000000000 [Eh]
	 Same-Spin Energy          =      -0.8308779023033679 [Eh]
	 Opposite-Spin Energy      =      -2.5272328666545572 [Eh]
	 Correlation Energy        =      -3.3581107689579248 [Eh]
	 Total Energy              =    -814.8366342572403482 [Eh]

	 ================> DF-SCS-MP2 Energies <==================
	-----------------------------------------------------------
	 SCS Same-Spin Scale       =       0.3333333333333333 [-]
	 SCS Opposite-Spin Scale   =       1.2000000000000000 [-]
	 SCS Same-Spin Energy      =      -0.2769593007677893 [Eh]
	 SCS Opposite-Spin Energy  =      -3.0326794399854684 [Eh]
	 SCS Correlation Energy    =      -3.3096387407532575 [Eh]
	 SCS Total Energy          =    -814.7881622290357200 [Eh]
	-----------------------------------------------------------

  Dipole Moment: [D]
     X:    -0.3292      Y:     4.6027      Z:     2.4111     Total:     5.2064

*** Psi4 exiting successfully. Buy a developer a beer!
