                               Psi4 1.3.2 release

  ==> Input File <==

--------------------------------------------------------------------------
#psi4
#
memory 32 gb

molecule  {
0 1
  O        1.3620710    -0.3800110    -0.9318440
  O        3.2020570     1.9012130    -0.2995130
  O        2.7994070    -2.7489470    -0.4002010
  O       -1.3621860     2.3740050     0.1547830
  N       -0.7999739     0.1953254    -0.2544662
  N       -3.0541720     0.8052390     0.2400120
  N       -4.6734100    -0.8124350     0.4126370
  C        2.7015950     0.8755540     0.5594740
  C        1.2588292     1.1135317     0.8743411
  C        2.6518190    -0.3922910    -0.2854700
  C        0.5739580     0.6830040    -0.4149160
  C        2.8020980    -1.6600160     0.5224700
  C       -1.1273370    -1.1158190    -0.3082760
  C       -1.7446880     1.2038920     0.0820450
  C       -2.4173070    -1.5045610    -0.1045420
  C       -3.3619920    -0.4731600     0.1685110
  H        3.3343810     0.7567850     1.4508530
  H        0.9047070     0.4438290     1.6934890
  H        0.9853290     2.1340670     1.1581470
  H        0.5274540     1.5132540    -1.1249130
  H        3.4174920    -0.3642830    -1.0666260
  H        1.9707490    -1.7331840     1.2432230
  H        3.7460890    -1.6095150     1.0882890
  H        3.1038510     2.7463240     0.1779830
  H       -0.3107400    -1.7892010    -0.5436980
  H        2.9100300    -3.5650720     0.1192120
  H       -2.7034680    -2.5490840    -0.1532500
  H       -5.0287110    -1.6377420    -0.0567190
  H       -5.2994710    -0.0137980     0.3861010
units angstrom
no_reorient  #important for SAPT in psi4, default
symmetry c1  #important for SAPT in psi4, default
}

set PROPERTIES_ORIGIN ["COM"]
properties('MP2/aug-cc-pvtz', properties = ['dipole'])
--------------------------------------------------------------------------

    Molecular point group: c1
  Charge       = 0
  Multiplicity = 1
  Basis Set: AUG-CC-PVTZ
    Blend: AUG-CC-PVTZ
  Basis Set: (AUG-CC-PVTZ AUX)
    Blend: AUG-CC-PVTZ-JKFIT

    Orbital Energies [Eh]
    ---------------------

    Doubly Occupied:

       1A    -20.577688     2A    -20.573989     3A    -20.572448
       4A    -20.504561     5A    -15.622355     6A    -15.588378
       7A    -15.540950     8A    -11.371181     9A    -11.345113
      10A    -11.330791    11A    -11.317820    12A    -11.300255
      13A    -11.296819    14A    -11.293176    15A    -11.238333
      16A    -11.236406    17A     -1.416962    18A     -1.382579
      19A     -1.373737    20A     -1.365856    21A     -1.292847
      22A     -1.261985    23A     -1.169269    24A     -1.080639
      25A     -1.069760    26A     -1.028104    27A     -0.927784
      28A     -0.896865    29A     -0.868857    30A     -0.830211
      31A     -0.807157    32A     -0.753888    33A     -0.739596
      34A     -0.721194    35A     -0.707024    36A     -0.692783
      37A     -0.688903    38A     -0.675532    39A     -0.656751
      40A     -0.638214    41A     -0.626750    42A     -0.618853
      43A     -0.604111    44A     -0.594752    45A     -0.588892
      46A     -0.575102    47A     -0.569124    48A     -0.543754
      49A     -0.531303    50A     -0.523233    51A     -0.507836
      52A     -0.487080    53A     -0.483528    54A     -0.468637
      55A     -0.462907    56A     -0.445259    57A     -0.437394
      58A     -0.416563    59A     -0.384033    60A     -0.334719

  @DF-RHF Final Energy:  -811.47799215429745

   => Energetics <=

    Nuclear Repulsion Energy =           1169.9887528088897852
    One-Electron Energy =               -3435.0123149552891846
    Two-Electron Energy =                1453.5455699921019459
    Total Energy =                       -811.4779921542974535
  Basis Set: (AUG-CC-PVTZ AUX)
    Blend: AUG-CC-PVTZ-RI
    Molecular point group: c1

    Geometry (in Angstrom), charge = 0, multiplicity = 1:

       Center              X                  Y                   Z               Mass
    ------------   -----------------  -----------------  -----------------  -----------------
         O            1.361015905294    -0.380091883281    -0.929575483138    15.994914619570
         O            3.201001905294     1.901132116719    -0.297244483138    15.994914619570
         O            2.798351905294    -2.749027883281    -0.397932483138    15.994914619570
         O           -1.363241094706     2.373924116719     0.157051516862    15.994914619570
         N           -0.801028994706     0.195244516719    -0.252197683138    14.003074004430
         N           -3.055227094706     0.805158116719     0.242280516862    14.003074004430
         N           -4.674465094706    -0.812515883281     0.414905516862    14.003074004430
         C            2.700539905294     0.875473116719     0.561742516862    12.000000000000
         C            1.257774105294     1.113450816719     0.876609616862    12.000000000000
         C            2.650763905294    -0.392371883281    -0.283201483138    12.000000000000
         C            0.572902905294     0.682923116719    -0.412647483138    12.000000000000
         C            2.801042905294    -1.660096883281     0.524738516862    12.000000000000
         C           -1.128392094706    -1.115899883281    -0.306007483138    12.000000000000
         C           -1.745743094706     1.203811116719     0.084313516862    12.000000000000
         C           -2.418362094706    -1.504641883281    -0.102273483138    12.000000000000
         C           -3.363047094706    -0.473240883281     0.170779516862    12.000000000000
         H            3.333325905294     0.756704116719     1.453121516862     1.007825032230
         H            0.903651905294     0.443748116719     1.695757516862     1.007825032230
         H            0.984273905294     2.133986116719     1.160415516862     1.007825032230
         H            0.526398905294     1.513173116719    -1.122644483138     1.007825032230
         H            3.416436905294    -0.364363883281    -1.064357483138     1.007825032230
         H            1.969693905294    -1.733264883281     1.245491516862     1.007825032230
         H            3.745033905294    -1.609595883281     1.090557516862     1.007825032230
         H            3.102795905294     2.746243116719     0.180251516862     1.007825032230
         H           -0.311795094706    -1.789281883281    -0.541429483138     1.007825032230
         H            2.908974905294    -3.565152883281     0.121480516862     1.007825032230
         H           -2.704523094706    -2.549164883281    -0.150981483138     1.007825032230
         H           -5.029766094706    -1.637822883281    -0.054450483138     1.007825032230
         H           -5.300526094706    -0.013878883281     0.388369516862     1.007825032230

  Basis Set: AUG-CC-PVTZ
    Blend: AUG-CC-PVTZ
  Basis Set: (AUG-CC-PVTZ AUX)
    Blend: AUG-CC-PVTZ-JKFIT
	 Reference Energy          =    -811.4779921542974535 [Eh]
	 Singles Energy            =      -0.0000000000000000 [Eh]
	 Same-Spin Energy          =      -0.8298119863856653 [Eh]
	 Opposite-Spin Energy      =      -2.5252406629924691 [Eh]
	 Correlation Energy        =      -3.3550526493781345 [Eh]
	 Total Energy              =    -814.8330448036755342 [Eh]

	 ================> DF-SCS-MP2 Energies <==================
	-----------------------------------------------------------
	 SCS Same-Spin Scale       =       0.3333333333333333 [-]
	 SCS Opposite-Spin Scale   =       1.2000000000000000 [-]
	 SCS Same-Spin Energy      =      -0.2766039954618884 [Eh]
	 SCS Opposite-Spin Energy  =      -3.0302887955909630 [Eh]
	 SCS Correlation Energy    =      -3.3068927910528512 [Eh]
	 SCS Total Energy          =    -814.7848849453503135 [Eh]
	-----------------------------------------------------------

  Dipole Moment: [D]
     X:     1.0553      Y:    -4.6468      Z:     2.5040     Total:     5.3830

*** Psi4 exiting successfully. Buy a developer a beer!
