                               Psi4 1.3.2 release

  ==> Input File <==

--------------------------------------------------------------------------
#psi4
#
memory 32 gb

molecule  {
0 1
  O        1.3620710    -0.3800110    -0.9318440
  O        3.2020570     1.9012130    -0.2995130
  O        2.7994070    -2.7489470    -0.4002010
  O       -1.3621860     2.3740050     0.1547830
  N       -0.8662746     0.2136160    -0.2142355
  N       -3.0541720     0.8052390     0.2400120
  N       -4.6734100    -0.8124350     0.4126370
  C        2.7015950     0.8755540     0.5594740
  C        1.2368440     1.1072260     0.8878520
  C        2.6518190    -0.3922910    -0.2854700
  C        0.5739580     0.6830040    -0.4149160
  C        2.8020980    -1.6600160     0.5224700
  C       -1.1273370    -1.1158190    -0.3082760
  C       -1.7446880     1.2038920     0.0820450
  C       -2.4173070    -1.5045610    -0.1045420
  C       -3.3619920    -0.4731600     0.1685110
  H        3.3343810     0.7567850     1.4508530
  H        0.9047070     0.4438290     1.6934890
  H        0.9853290     2.1340670     1.1581470
  H        0.5274540     1.5132540    -1.1249130
  H        3.4174920    -0.3642830    -1.0666260
  H        1.9707490    -1.7331840     1.2432230
  H        3.7460890    -1.6095150     1.0882890
  H        3.1038510     2.7463240     0.1779830
  H       -0.3475496    -1.8323405    -0.5411410
  H        2.9100300    -3.5650720     0.1192120
  H       -2.7034680    -2.5490840    -0.1532500
  H       -5.0287110    -1.6377420    -0.0567190
  H       -5.2994710    -0.0137980     0.3861010
units angstrom
no_reorient  #important for SAPT in psi4, default
symmetry c1  #important for SAPT in psi4, default
}

set PROPERTIES_ORIGIN ["COM"]
properties('MP2/aug-cc-pvtz', properties = ['dipole'])
--------------------------------------------------------------------------

    Molecular point group: c1
  Charge       = 0
  Multiplicity = 1
  Basis Set: AUG-CC-PVTZ
    Blend: AUG-CC-PVTZ
  Basis Set: (AUG-CC-PVTZ AUX)
    Blend: AUG-CC-PVTZ-JKFIT

    Orbital Energies [Eh]
    ---------------------

    Doubly Occupied:

       1A    -20.578705     2A    -20.575572     3A    -20.575172
       4A    -20.496502     5A    -15.622594     6A    -15.586388
       7A    -15.537704     8A    -11.362586     9A    -11.342283
      10A    -11.335687    11A    -11.318576    12A    -11.301990
      13A    -11.297906    14A    -11.294713    15A    -11.238351
      16A    -11.237800    17A     -1.416539    18A     -1.385077
      19A     -1.374502    20A     -1.366549    21A     -1.292248
      22A     -1.259313    23A     -1.165196    24A     -1.079138
      25A     -1.069197    26A     -1.032517    27A     -0.924059
      28A     -0.904972    29A     -0.868318    30A     -0.829347
      31A     -0.807488    32A     -0.756102    33A     -0.738624
      34A     -0.722130    35A     -0.705584    36A     -0.692950
      37A     -0.688092    38A     -0.675993    39A     -0.659580
      40A     -0.637515    41A     -0.630842    42A     -0.617623
      43A     -0.605888    44A     -0.595514    45A     -0.589281
      46A     -0.570580    47A     -0.563782    48A     -0.545074
      49A     -0.532614    50A     -0.522070    51A     -0.511395
      52A     -0.486920    53A     -0.479035    54A     -0.469447
      55A     -0.461864    56A     -0.443124    57A     -0.437295
      58A     -0.413744    59A     -0.382013    60A     -0.336643

  @DF-RHF Final Energy:  -811.47335706020385

   => Energetics <=

    Nuclear Repulsion Energy =           1169.7006800301562635
    One-Electron Energy =               -3434.4514640849233729
    Two-Electron Energy =                1453.2774269945630294
    Total Energy =                       -811.4733570602038526
  Basis Set: (AUG-CC-PVTZ AUX)
    Blend: AUG-CC-PVTZ-RI
    Molecular point group: c1

    Geometry (in Angstrom), charge = 0, multiplicity = 1:

       Center              X                  Y                   Z               Mass
    ------------   -----------------  -----------------  -----------------  -----------------
         O            1.366429311278    -0.380695074931    -0.932781521869    15.994914619570
         O            3.206415311278     1.900528925069    -0.300450521869    15.994914619570
         O            2.803765311278    -2.749631074931    -0.401138521869    15.994914619570
         O           -1.357827688722     2.373320925069     0.153845478131    15.994914619570
         N           -0.861916288722     0.212931925069    -0.215173021869    14.003074004430
         N           -3.049813688722     0.804554925069     0.239074478131    14.003074004430
         N           -4.669051688722    -0.813119074931     0.411699478131    14.003074004430
         C            2.705953311278     0.874869925069     0.558536478131    12.000000000000
         C            1.241202311278     1.106541925069     0.886914478131    12.000000000000
         C            2.656177311278    -0.392975074931    -0.286407521869    12.000000000000
         C            0.578316311278     0.682319925069    -0.415853521869    12.000000000000
         C            2.806456311278    -1.660700074931     0.521532478131    12.000000000000
         C           -1.122978688722    -1.116503074931    -0.309213521869    12.000000000000
         C           -1.740329688722     1.203207925069     0.081107478131    12.000000000000
         C           -2.412948688722    -1.505245074931    -0.105479521869    12.000000000000
         C           -3.357633688722    -0.473844074931     0.167573478131    12.000000000000
         H            3.338739311278     0.756100925069     1.449915478131     1.007825032230
         H            0.909065311278     0.443144925069     1.692551478131     1.007825032230
         H            0.989687311278     2.133382925069     1.157209478131     1.007825032230
         H            0.531812311278     1.512569925069    -1.125850521869     1.007825032230
         H            3.421850311278    -0.364967074931    -1.067563521869     1.007825032230
         H            1.975107311278    -1.733868074931     1.242285478131     1.007825032230
         H            3.750447311278    -1.610199074931     1.087351478131     1.007825032230
         H            3.108209311278     2.745639925069     0.177045478131     1.007825032230
         H           -0.343191288722    -1.833024574931    -0.542078521869     1.007825032230
         H            2.914388311278    -3.565756074931     0.118274478131     1.007825032230
         H           -2.699109688722    -2.549768074931    -0.154187521869     1.007825032230
         H           -5.024352688722    -1.638426074931    -0.057656521869     1.007825032230
         H           -5.295112688722    -0.014482074931     0.385163478131     1.007825032230

  Basis Set: AUG-CC-PVTZ
    Blend: AUG-CC-PVTZ
  Basis Set: (AUG-CC-PVTZ AUX)
    Blend: AUG-CC-PVTZ-JKFIT
	 Reference Energy          =    -811.4733570602038526 [Eh]
	 Singles Energy            =      -0.0000000000000000 [Eh]
	 Same-Spin Energy          =      -0.8297320335365530 [Eh]
	 Opposite-Spin Energy      =      -2.5252798590155674 [Eh]
	 Correlation Energy        =      -3.3550118925521204 [Eh]
	 Total Energy              =    -814.8283689527560227 [Eh]

	 ================> DF-SCS-MP2 Energies <==================
	-----------------------------------------------------------
	 SCS Same-Spin Scale       =       0.3333333333333333 [-]
	 SCS Opposite-Spin Scale   =       1.2000000000000000 [-]
	 SCS Same-Spin Energy      =      -0.2765773445121843 [Eh]
	 SCS Opposite-Spin Energy  =      -3.0303358308186810 [Eh]
	 SCS Correlation Energy    =      -3.3069131753308652 [Eh]
	 SCS Total Energy          =    -814.7802702355347719 [Eh]
	-----------------------------------------------------------

  Dipole Moment: [D]
     X:     1.2567      Y:    -4.8850      Z:     2.4469     Total:     5.6062

*** Psi4 exiting successfully. Buy a developer a beer!
