                               Psi4 1.3.2 release

  ==> Input File <==

--------------------------------------------------------------------------
#psi4
#
memory 32 gb

molecule  {
0 1
  O        1.3620710    -0.3800110    -0.9318440
  O        3.2114414     1.9032204    -0.2915582
  O        2.7994070    -2.7489470    -0.4002010
  O       -1.3621860     2.3740050     0.1547830
  N       -0.7982440     0.1994180    -0.2292560
  N       -3.0541720     0.8052390     0.2400120
  N       -4.6734100    -0.8124350     0.4126370
  C        2.7015950     0.8755540     0.5594740
  C        1.2368440     1.1072260     0.8878520
  C        2.6518190    -0.3922910    -0.2854700
  C        0.5739580     0.6830040    -0.4149160
  C        2.8020980    -1.6600160     0.5224700
  C       -1.1273370    -1.1158190    -0.3082760
  C       -1.7446880     1.2038920     0.0820450
  C       -2.4173070    -1.5045610    -0.1045420
  C       -3.3619920    -0.4731600     0.1685110
  H        3.3401198     0.7637810     1.4476596
  H        0.9047070     0.4438290     1.6934890
  H        0.9853290     2.1340670     1.1581470
  H        0.5274540     1.5132540    -1.1249130
  H        3.4174920    -0.3642830    -1.0666260
  H        1.9707490    -1.7331840     1.2432230
  H        3.7460890    -1.6095150     1.0882890
  H        3.1038510     2.7463240     0.1779830
  H       -0.3107400    -1.7892010    -0.5436980
  H        2.9100300    -3.5650720     0.1192120
  H       -2.7034680    -2.5490840    -0.1532500
  H       -5.0287110    -1.6377420    -0.0567190
  H       -5.2994710    -0.0137980     0.3861010
units angstrom
no_reorient  #important for SAPT in psi4, default
symmetry c1  #important for SAPT in psi4, default
}

set PROPERTIES_ORIGIN ["COM"]
properties('MP2/aug-cc-pvtz', properties = ['dipole'])
--------------------------------------------------------------------------

    Molecular point group: c1
  Charge       = 0
  Multiplicity = 1
  Basis Set: AUG-CC-PVTZ
    Blend: AUG-CC-PVTZ
  Basis Set: (AUG-CC-PVTZ AUX)
    Blend: AUG-CC-PVTZ-JKFIT

    Orbital Energies [Eh]
    ---------------------

    Doubly Occupied:

       1A    -20.577804     2A    -20.573369     3A    -20.573086
       4A    -20.503168     5A    -15.621872     6A    -15.588436
       7A    -15.540896     8A    -11.370014     9A    -11.345132
      10A    -11.330996    11A    -11.318396    12A    -11.300855
      13A    -11.296948    14A    -11.293280    15A    -11.237127
      16A    -11.237077    17A     -1.416799    18A     -1.382573
      19A     -1.373803    20A     -1.366070    21A     -1.292337
      22A     -1.261543    23A     -1.169207    24A     -1.079185
      25A     -1.069056    26A     -1.028096    27A     -0.926950
      28A     -0.897589    29A     -0.869212    30A     -0.831087
      31A     -0.806442    32A     -0.754360    33A     -0.738743
      34A     -0.721231    35A     -0.706740    36A     -0.692961
      37A     -0.689822    38A     -0.675884    39A     -0.656687
      40A     -0.637421    41A     -0.627770    42A     -0.618540
      43A     -0.604675    44A     -0.595347    45A     -0.588828
      46A     -0.573234    47A     -0.568569    48A     -0.544958
      49A     -0.532454    50A     -0.523899    51A     -0.510511
      52A     -0.485584    53A     -0.482276    54A     -0.468529
      55A     -0.461220    56A     -0.444572    57A     -0.437979
      58A     -0.416457    59A     -0.383843    60A     -0.335052

  @DF-RHF Final Energy:  -811.47984307428055

   => Energetics <=

    Nuclear Repulsion Energy =           1169.7679129294272116
    One-Electron Energy =               -3434.5824124194496108
    Two-Electron Energy =                1453.3346564157416196
    Total Energy =                       -811.4798430742805522
  Basis Set: (AUG-CC-PVTZ AUX)
    Blend: AUG-CC-PVTZ-RI
    Molecular point group: c1

    Geometry (in Angstrom), charge = 0, multiplicity = 1:

       Center              X                  Y                   Z               Mass
    ------------   -----------------  -----------------  -----------------  -----------------
         O            1.361384533925    -0.380183474547    -0.932390082413    15.994914619570
         O            3.210754933925     1.903047925453    -0.292104282413    15.994914619570
         O            2.798720533925    -2.749119474547    -0.400747082413    15.994914619570
         O           -1.362872466075     2.373832525453     0.154236917587    15.994914619570
         N           -0.798930466075     0.199245525453    -0.229802082413    14.003074004430
         N           -3.054858466075     0.805066525453     0.239465917587    14.003074004430
         N           -4.674096466075    -0.812607474547     0.412090917587    14.003074004430
         C            2.700908533925     0.875381525453     0.558927917587    12.000000000000
         C            1.236157533925     1.107053525453     0.887305917587    12.000000000000
         C            2.651132533925    -0.392463474547    -0.286016082413    12.000000000000
         C            0.573271533925     0.682831525453    -0.415462082413    12.000000000000
         C            2.801411533925    -1.660188474547     0.521923917587    12.000000000000
         C           -1.128023466075    -1.115991474547    -0.308822082413    12.000000000000
         C           -1.745374466075     1.203719525453     0.081498917587    12.000000000000
         C           -2.417993466075    -1.504733474547    -0.105088082413    12.000000000000
         C           -3.362678466075    -0.473332474547     0.167964917587    12.000000000000
         H            3.339433333925     0.763608525453     1.447113517587     1.007825032230
         H            0.904020533925     0.443656525453     1.692942917587     1.007825032230
         H            0.984642533925     2.133894525453     1.157600917587     1.007825032230
         H            0.526767533925     1.513081525453    -1.125459082413     1.007825032230
         H            3.416805533925    -0.364455474547    -1.067172082413     1.007825032230
         H            1.970062533925    -1.733356474547     1.242676917587     1.007825032230
         H            3.745402533925    -1.609687474547     1.087742917587     1.007825032230
         H            3.103164533925     2.746151525453     0.177436917587     1.007825032230
         H           -0.311426466075    -1.789373474547    -0.544244082413     1.007825032230
         H            2.909343533925    -3.565244474547     0.118665917587     1.007825032230
         H           -2.704154466075    -2.549256474547    -0.153796082413     1.007825032230
         H           -5.029397466075    -1.637914474547    -0.057265082413     1.007825032230
         H           -5.300157466075    -0.013970474547     0.385554917587     1.007825032230

  Basis Set: AUG-CC-PVTZ
    Blend: AUG-CC-PVTZ
  Basis Set: (AUG-CC-PVTZ AUX)
    Blend: AUG-CC-PVTZ-JKFIT
	 Reference Energy          =    -811.4798430742805522 [Eh]
	 Singles Energy            =      -0.0000000000000000 [Eh]
	 Same-Spin Energy          =      -0.8295423822201361 [Eh]
	 Opposite-Spin Energy      =      -2.5249004783691675 [Eh]
	 Correlation Energy        =      -3.3544428605893035 [Eh]
	 Total Energy              =    -814.8342859348698539 [Eh]

	 ================> DF-SCS-MP2 Energies <==================
	-----------------------------------------------------------
	 SCS Same-Spin Scale       =       0.3333333333333333 [-]
	 SCS Opposite-Spin Scale   =       1.2000000000000000 [-]
	 SCS Same-Spin Energy      =      -0.2765141274067120 [Eh]
	 SCS Opposite-Spin Energy  =      -3.0298805740430010 [Eh]
	 SCS Correlation Energy    =      -3.3063947014497130 [Eh]
	 SCS Total Energy          =    -814.7862377757302283 [Eh]
	-----------------------------------------------------------

  Dipole Moment: [D]
     X:     1.0439      Y:    -4.6877      Z:     2.4785     Total:     5.4043

*** Psi4 exiting successfully. Buy a developer a beer!
