                               Psi4 1.3.2 release

  ==> Input File <==

--------------------------------------------------------------------------
#psi4
#
memory 32 gb

molecule  {
0 1
  O        1.3620710    -0.3800110    -0.9318440
  O        3.2020570     1.9012130    -0.2995130
  O        2.7994070    -2.7489470    -0.4002010
  O       -1.3621860     2.3740050     0.1547830
  N       -0.7982440     0.1994180    -0.2292560
  N       -3.0541720     0.8052390     0.2400120
  N       -4.6734100    -0.8124350     0.4126370
  C        2.7015950     0.8755540     0.5594740
  C        1.2368440     1.1072260     0.8878520
  C        2.6518190    -0.3922910    -0.2854700
  C        0.5739580     0.6830040    -0.4149160
  C        2.8020980    -1.6600160     0.5224700
  C       -1.1273370    -1.1158190    -0.3082760
  C       -1.7446880     1.2038920     0.0820450
  C       -2.4341841    -1.4361559    -0.0933681
  C       -3.3619920    -0.4731600     0.1685110
  H        3.3343810     0.7567850     1.4508530
  H        0.9047070     0.4438290     1.6934890
  H        0.9853290     2.1340670     1.1581470
  H        0.5274540     1.5132540    -1.1249130
  H        3.4174920    -0.3642830    -1.0666260
  H        1.9707490    -1.7331840     1.2432230
  H        3.7460890    -1.6095150     1.0882890
  H        3.1038510     2.7463240     0.1779830
  H       -0.2760843    -1.7442644    -0.5451780
  H        2.9100300    -3.5650720     0.1192120
  H       -2.7034680    -2.5490840    -0.1532500
  H       -5.0287110    -1.6377420    -0.0567190
  H       -5.2994710    -0.0137980     0.3861010
units angstrom
no_reorient  #important for SAPT in psi4, default
symmetry c1  #important for SAPT in psi4, default
}

set PROPERTIES_ORIGIN ["COM"]
properties('MP2/aug-cc-pvtz', properties = ['dipole'])
--------------------------------------------------------------------------

    Molecular point group: c1
  Charge       = 0
  Multiplicity = 1
  Basis Set: AUG-CC-PVTZ
    Blend: AUG-CC-PVTZ
  Basis Set: (AUG-CC-PVTZ AUX)
    Blend: AUG-CC-PVTZ-JKFIT

    Orbital Energies [Eh]
    ---------------------

    Doubly Occupied:

       1A    -20.579006     2A    -20.575183     3A    -20.575127
       4A    -20.500648     5A    -15.623281     6A    -15.586088
       7A    -15.538131     8A    -11.367994     9A    -11.337541
      10A    -11.331709    11A    -11.322205    12A    -11.301917
      13A    -11.298213    14A    -11.294542    15A    -11.237843
      16A    -11.236883    17A     -1.418619    18A     -1.382387
      19A     -1.374704    20A     -1.366670    21A     -1.294452
      22A     -1.262466    23A     -1.168226    24A     -1.080736
      25A     -1.070947    26A     -1.030198    27A     -0.930994
      28A     -0.904026    29A     -0.868733    30A     -0.829492
      31A     -0.807987    32A     -0.757304    33A     -0.737586
      34A     -0.721835    35A     -0.708585    36A     -0.694070
      37A     -0.689939    38A     -0.675818    39A     -0.654293
      40A     -0.631573    41A     -0.629397    42A     -0.624324
      43A     -0.604717    44A     -0.598602    45A     -0.589007
      46A     -0.570258    47A     -0.565130    48A     -0.546105
      49A     -0.533631    50A     -0.523539    51A     -0.511283
      52A     -0.487098    53A     -0.482305    54A     -0.469751
      55A     -0.461904    56A     -0.443841    57A     -0.437542
      58A     -0.415887    59A     -0.384130    60A     -0.334011

  @DF-RHF Final Energy:  -811.46996395715598

   => Energetics <=

    Nuclear Repulsion Energy =           1171.4296262636773918
    One-Electron Energy =               -3437.8383559884118768
    Two-Electron Energy =                1454.9387657675781611
    Total Energy =                       -811.4699639571560965
  Basis Set: (AUG-CC-PVTZ AUX)
    Blend: AUG-CC-PVTZ-RI
    Molecular point group: c1

    Geometry (in Angstrom), charge = 0, multiplicity = 1:

       Center              X                  Y                   Z               Mass
    ------------   -----------------  -----------------  -----------------  -----------------
         O            1.362809008089    -0.383825150924    -0.932427852626    15.994914619570
         O            3.202795008089     1.897398849076    -0.300096852626    15.994914619570
         O            2.800145008089    -2.752761150924    -0.400784852626    15.994914619570
         O           -1.361447991911     2.370190849076     0.154199147374    15.994914619570
         N           -0.797505991911     0.195603849076    -0.229839852626    14.003074004430
         N           -3.053433991911     0.801424849076     0.239428147374    14.003074004430
         N           -4.672671991911    -0.816249150924     0.412053147374    14.003074004430
         C            2.702333008089     0.871739849076     0.558890147374    12.000000000000
         C            1.237582008089     1.103411849076     0.887268147374    12.000000000000
         C            2.652557008089    -0.396105150924    -0.286053852626    12.000000000000
         C            0.574696008089     0.679189849076    -0.415499852626    12.000000000000
         C            2.802836008089    -1.663830150924     0.521886147374    12.000000000000
         C           -1.126598991911    -1.119633150924    -0.308859852626    12.000000000000
         C           -1.743949991911     1.200077849076     0.081461147374    12.000000000000
         C           -2.433446091911    -1.439970050924    -0.093951952626    12.000000000000
         C           -3.361253991911    -0.476974150924     0.167927147374    12.000000000000
         H            3.335119008089     0.752970849076     1.450269147374     1.007825032230
         H            0.905445008089     0.440014849076     1.692905147374     1.007825032230
         H            0.986067008089     2.130252849076     1.157563147374     1.007825032230
         H            0.528192008089     1.509439849076    -1.125496852626     1.007825032230
         H            3.418230008089    -0.368097150924    -1.067209852626     1.007825032230
         H            1.971487008089    -1.736998150924     1.242639147374     1.007825032230
         H            3.746827008089    -1.613329150924     1.087705147374     1.007825032230
         H            3.104589008089     2.742509849076     0.177399147374     1.007825032230
         H           -0.275346291911    -1.748078550924    -0.545761852626     1.007825032230
         H            2.910768008089    -3.568886150924     0.118628147374     1.007825032230
         H           -2.702729991911    -2.552898150924    -0.153833852626     1.007825032230
         H           -5.027972991911    -1.641556150924    -0.057302852626     1.007825032230
         H           -5.298732991911    -0.017612150924     0.385517147374     1.007825032230

  Basis Set: AUG-CC-PVTZ
    Blend: AUG-CC-PVTZ
  Basis Set: (AUG-CC-PVTZ AUX)
    Blend: AUG-CC-PVTZ-JKFIT
	 Reference Energy          =    -811.4699639571559828 [Eh]
	 Singles Energy            =      -0.0000000000000000 [Eh]
	 Same-Spin Energy          =      -0.8310480462421022 [Eh]
	 Opposite-Spin Energy      =      -2.5265691756676874 [Eh]
	 Correlation Energy        =      -3.3576172219097895 [Eh]
	 Total Energy              =    -814.8275811790657599 [Eh]

	 ================> DF-SCS-MP2 Energies <==================
	-----------------------------------------------------------
	 SCS Same-Spin Scale       =       0.3333333333333333 [-]
	 SCS Opposite-Spin Scale   =       1.2000000000000000 [-]
	 SCS Same-Spin Energy      =      -0.2770160154140340 [Eh]
	 SCS Opposite-Spin Energy  =      -3.0318830108012249 [Eh]
	 SCS Correlation Energy    =      -3.3088990262152591 [Eh]
	 SCS Total Energy          =    -814.7788629833712548 [Eh]
	-----------------------------------------------------------

  Dipole Moment: [D]
     X:     1.3110      Y:    -4.7070      Z:     2.4543     Total:     5.4679

*** Psi4 exiting successfully. Buy a developer a beer!
