                               Psi4 1.3.2 release

  ==> Input File <==

--------------------------------------------------------------------------
#psi4
#
memory 32 gb

molecule  {
0 1
  O        1.3620710    -0.3800110    -0.9318440
  O        3.2020570     1.9012130    -0.2995130
  O        2.7994070    -2.7489470    -0.4002010
  O       -1.3621860     2.3740050     0.1547830
  N       -0.7982440     0.1994180    -0.2292560
  N       -3.0541720     0.8052390     0.2400120
  N       -4.6734100    -0.8124350     0.4126370
  C        2.7009280     0.8849432     0.5501421
  C        1.2368440     1.1072260     0.8878520
  C        2.6518190    -0.3922910    -0.2854700
  C        0.5739580     0.6830040    -0.4149160
  C        2.8020980    -1.6600160     0.5224700
  C       -1.1273370    -1.1158190    -0.3082760
  C       -1.7446880     1.2038920     0.0820450
  C       -2.4173070    -1.5045610    -0.1045420
  C       -3.3619920    -0.4731600     0.1685110
  H        3.3343810     0.7567850     1.4508530
  H        0.8959595     0.4476437     1.6929672
  H        0.9853290     2.1340670     1.1581470
  H        0.5274540     1.5132540    -1.1249130
  H        3.4174920    -0.3642830    -1.0666260
  H        1.9707490    -1.7331840     1.2432230
  H        3.7460890    -1.6095150     1.0882890
  H        3.1038510     2.7463240     0.1779830
  H       -0.3107400    -1.7892010    -0.5436980
  H        2.9100300    -3.5650720     0.1192120
  H       -2.7034680    -2.5490840    -0.1532500
  H       -5.0287110    -1.6377420    -0.0567190
  H       -5.2994710    -0.0137980     0.3861010
units angstrom
no_reorient  #important for SAPT in psi4, default
symmetry c1  #important for SAPT in psi4, default
}

set PROPERTIES_ORIGIN ["COM"]
properties('MP2/aug-cc-pvtz', properties = ['dipole'])
--------------------------------------------------------------------------

    Molecular point group: c1
  Charge       = 0
  Multiplicity = 1
  Basis Set: AUG-CC-PVTZ
    Blend: AUG-CC-PVTZ
  Basis Set: (AUG-CC-PVTZ AUX)
    Blend: AUG-CC-PVTZ-JKFIT

    Orbital Energies [Eh]
    ---------------------

    Doubly Occupied:

       1A    -20.577658     2A    -20.575854     3A    -20.572544
       4A    -20.502959     5A    -15.621615     6A    -15.588288
       7A    -15.540722     8A    -11.369803     9A    -11.344953
      10A    -11.330455    11A    -11.318181    12A    -11.301188
      13A    -11.296738    14A    -11.292778    15A    -11.236925
      16A    -11.236382    17A     -1.416952    18A     -1.383288
      19A     -1.375679    20A     -1.367136    21A     -1.292142
      22A     -1.261326    23A     -1.169029    24A     -1.078565
      25A     -1.068188    26A     -1.027769    27A     -0.926607
      28A     -0.897400    29A     -0.868974    30A     -0.830840
      31A     -0.805486    32A     -0.754165    33A     -0.738372
      34A     -0.720848    35A     -0.707349    36A     -0.693337
      37A     -0.690674    38A     -0.675845    39A     -0.656699
      40A     -0.637477    41A     -0.627560    42A     -0.618914
      43A     -0.604503    44A     -0.595607    45A     -0.588722
      46A     -0.572860    47A     -0.569178    48A     -0.544936
      49A     -0.533205    50A     -0.523453    51A     -0.510858
      52A     -0.484180    53A     -0.481900    54A     -0.468393
      55A     -0.460478    56A     -0.444039    57A     -0.437610
      58A     -0.416222    59A     -0.383604    60A     -0.334817

  @DF-RHF Final Energy:  -811.47936616547452

   => Energetics <=

    Nuclear Repulsion Energy =           1170.0330993690433843
    One-Electron Energy =               -3435.1204756287552300
    Two-Electron Energy =                1453.6080100942376703
    Total Energy =                       -811.4793661654744028
  Basis Set: (AUG-CC-PVTZ AUX)
    Blend: AUG-CC-PVTZ-RI
    Molecular point group: c1

    Geometry (in Angstrom), charge = 0, multiplicity = 1:

       Center              X                  Y                   Z               Mass
    ------------   -----------------  -----------------  -----------------  -----------------
         O            1.362145051217    -0.380524113978    -0.931348530559    15.994914619570
         O            3.202131051217     1.900699886022    -0.299017530559    15.994914619570
         O            2.799481051217    -2.749460113978    -0.399705530559    15.994914619570
         O           -1.362111948783     2.373491886022     0.155278469441    15.994914619570
         N           -0.798169948783     0.198904886022    -0.228760530559    14.003074004430
         N           -3.054097948783     0.804725886022     0.240507469441    14.003074004430
         N           -4.673335948783    -0.812948113978     0.413132469441    14.003074004430
         C            2.701002051217     0.884430086022     0.550637569441    12.000000000000
         C            1.236918051217     1.106712886022     0.888347469441    12.000000000000
         C            2.651893051217    -0.392804113978    -0.284974530559    12.000000000000
         C            0.574032051217     0.682490886022    -0.414420530559    12.000000000000
         C            2.802172051217    -1.660529113978     0.522965469441    12.000000000000
         C           -1.127262948783    -1.116332113978    -0.307780530559    12.000000000000
         C           -1.744613948783     1.203378886022     0.082540469441    12.000000000000
         C           -2.417232948783    -1.505074113978    -0.104046530559    12.000000000000
         C           -3.361917948783    -0.473673113978     0.169006469441    12.000000000000
         H            3.334455051217     0.756271886022     1.451348469441     1.007825032230
         H            0.896033551217     0.447130586022     1.693462669441     1.007825032230
         H            0.985403051217     2.133553886022     1.158642469441     1.007825032230
         H            0.527528051217     1.512740886022    -1.124417530559     1.007825032230
         H            3.417566051217    -0.364796113978    -1.066130530559     1.007825032230
         H            1.970823051217    -1.733697113978     1.243718469441     1.007825032230
         H            3.746163051217    -1.610028113978     1.088784469441     1.007825032230
         H            3.103925051217     2.745810886022     0.178478469441     1.007825032230
         H           -0.310665948783    -1.789714113978    -0.543202530559     1.007825032230
         H            2.910104051217    -3.565585113978     0.119707469441     1.007825032230
         H           -2.703393948783    -2.549597113978    -0.152754530559     1.007825032230
         H           -5.028636948783    -1.638255113978    -0.056223530559     1.007825032230
         H           -5.299396948783    -0.014311113978     0.386596469441     1.007825032230

  Basis Set: AUG-CC-PVTZ
    Blend: AUG-CC-PVTZ
  Basis Set: (AUG-CC-PVTZ AUX)
    Blend: AUG-CC-PVTZ-JKFIT
	 Reference Energy          =    -811.4793661654745165 [Eh]
	 Singles Energy            =      -0.0000000000000000 [Eh]
	 Same-Spin Energy          =      -0.8296578803049837 [Eh]
	 Opposite-Spin Energy      =      -2.5249795917444695 [Eh]
	 Correlation Energy        =      -3.3546374720494532 [Eh]
	 Total Energy              =    -814.8340036375240061 [Eh]

	 ================> DF-SCS-MP2 Energies <==================
	-----------------------------------------------------------
	 SCS Same-Spin Scale       =       0.3333333333333333 [-]
	 SCS Opposite-Spin Scale   =       1.2000000000000000 [-]
	 SCS Same-Spin Energy      =      -0.2765526267683279 [Eh]
	 SCS Opposite-Spin Energy  =      -3.0299755100933634 [Eh]
	 SCS Correlation Energy    =      -3.3065281368616914 [Eh]
	 SCS Total Energy          =    -814.7858943023362599 [Eh]
	-----------------------------------------------------------

  Dipole Moment: [D]
     X:     1.0890      Y:    -4.6417      Z:     2.4650     Total:     5.3673

*** Psi4 exiting successfully. Buy a developer a beer!
