                               Psi4 1.3.2 release

  ==> Input File <==

--------------------------------------------------------------------------
#psi4
#
memory 32 gb

molecule  {
0 1
  O        1.3620710    -0.3800110    -0.9318440
  O        3.2020570     1.9012130    -0.2995130
  O        2.7994070    -2.7489470    -0.4002010
  O       -1.3621860     2.3740050     0.1547830
  N       -0.7982440     0.1994180    -0.2292560
  N       -3.0541720     0.8052390     0.2400120
  N       -4.6734100    -0.8124350     0.4126370
  C        2.7015950     0.8755540     0.5594740
  C        1.2368440     1.1072260     0.8878520
  C        2.6518190    -0.3922910    -0.2854700
  C        0.5739580     0.6830040    -0.4149160
  C        2.8633686    -1.6796150     0.4764494
  C       -1.1273370    -1.1158190    -0.3082760
  C       -1.7446880     1.2038920     0.0820450
  C       -2.4173070    -1.5045610    -0.1045420
  C       -3.3619920    -0.4731600     0.1685110
  H        3.3343810     0.7567850     1.4508530
  H        0.9047070     0.4438290     1.6934890
  H        0.9853290     2.1340670     1.1581470
  H        0.5274540     1.5132540    -1.1249130
  H        3.4366685    -0.4147759    -1.0475395
  H        1.9707490    -1.7331840     1.2432230
  H        3.7460890    -1.6095150     1.0882890
  H        3.1038510     2.7463240     0.1779830
  H       -0.3107400    -1.7892010    -0.5436980
  H        2.9100300    -3.5650720     0.1192120
  H       -2.7034680    -2.5490840    -0.1532500
  H       -5.0287110    -1.6377420    -0.0567190
  H       -5.2994710    -0.0137980     0.3861010
units angstrom
no_reorient  #important for SAPT in psi4, default
symmetry c1  #important for SAPT in psi4, default
}

set PROPERTIES_ORIGIN ["COM"]
properties('MP2/aug-cc-pvtz', properties = ['dipole'])
--------------------------------------------------------------------------

    Molecular point group: c1
  Charge       = 0
  Multiplicity = 1
  Basis Set: AUG-CC-PVTZ
    Blend: AUG-CC-PVTZ
  Basis Set: (AUG-CC-PVTZ AUX)
    Blend: AUG-CC-PVTZ-JKFIT

    Orbital Energies [Eh]
    ---------------------

    Doubly Occupied:

       1A    -20.582607     2A    -20.573985     3A    -20.573874
       4A    -20.502658     5A    -15.621339     6A    -15.587990
       7A    -15.540371     8A    -11.369516     9A    -11.344610
      10A    -11.330722    11A    -11.317793    12A    -11.301612
      13A    -11.298964    14A    -11.292857    15A    -11.236493
      16A    -11.236104    17A     -1.417453    18A     -1.391057
      19A     -1.380446    20A     -1.367013    21A     -1.291818
      22A     -1.261018    23A     -1.168708    24A     -1.078306
      25A     -1.068068    26A     -1.027995    27A     -0.926142
      28A     -0.896243    29A     -0.867957    30A     -0.830538
      31A     -0.804666    32A     -0.753889    33A     -0.739228
      34A     -0.727931    35A     -0.707241    36A     -0.699499
      37A     -0.688847    38A     -0.674701    39A     -0.655152
      40A     -0.638300    41A     -0.627206    42A     -0.618495
      43A     -0.608853    44A     -0.595624    45A     -0.590239
      46A     -0.572971    47A     -0.571056    48A     -0.544188
      49A     -0.532236    50A     -0.524631    51A     -0.509358
      52A     -0.487272    53A     -0.481898    54A     -0.463907
      55A     -0.451802    56A     -0.443530    57A     -0.436357
      58A     -0.415786    59A     -0.383360    60A     -0.334481

  @DF-RHF Final Energy:  -811.47294643896703

   => Energetics <=

    Nuclear Repulsion Energy =           1169.6560907843706900
    One-Electron Energy =               -3434.3241552899612543
    Two-Electron Energy =                1453.1951180666233086
    Total Energy =                       -811.4729464389670284
  Basis Set: (AUG-CC-PVTZ AUX)
    Blend: AUG-CC-PVTZ-RI
    Molecular point group: c1

    Geometry (in Angstrom), charge = 0, multiplicity = 1:

       Center              X                  Y                   Z               Mass
    ------------   -----------------  -----------------  -----------------  -----------------
         O            1.358748196894    -0.378751293138    -0.929496835009    15.994914619570
         O            3.198734196894     1.902472706862    -0.297165835009    15.994914619570
         O            2.796084196894    -2.747687293138    -0.397853835009    15.994914619570
         O           -1.365508803106     2.375264706862     0.157130164991    15.994914619570
         N           -0.801566803106     0.200677706862    -0.226908835009    14.003074004430
         N           -3.057494803106     0.806498706862     0.242359164991    14.003074004430
         N           -4.676732803106    -0.811175293138     0.414984164991    14.003074004430
         C            2.698272196894     0.876813706862     0.561821164991    12.000000000000
         C            1.233521196894     1.108485706862     0.890199164991    12.000000000000
         C            2.648496196894    -0.391031293138    -0.283122835009    12.000000000000
         C            0.570635196894     0.684263706862    -0.412568835009    12.000000000000
         C            2.860045796894    -1.678355293138     0.478796564991    12.000000000000
         C           -1.130659803106    -1.114559293138    -0.305928835009    12.000000000000
         C           -1.748010803106     1.205151706862     0.084392164991    12.000000000000
         C           -2.420629803106    -1.503301293138    -0.102194835009    12.000000000000
         C           -3.365314803106    -0.471900293138     0.170858164991    12.000000000000
         H            3.331058196894     0.758044706862     1.453200164991     1.007825032230
         H            0.901384196894     0.445088706862     1.695836164991     1.007825032230
         H            0.982006196894     2.135326706862     1.160494164991     1.007825032230
         H            0.524131196894     1.514513706862    -1.122565835009     1.007825032230
         H            3.433345696894    -0.413516193138    -1.045192335009     1.007825032230
         H            1.967426196894    -1.731924293138     1.245570164991     1.007825032230
         H            3.742766196894    -1.608255293138     1.090636164991     1.007825032230
         H            3.100528196894     2.747583706862     0.180330164991     1.007825032230
         H           -0.314062803106    -1.787941293138    -0.541350835009     1.007825032230
         H            2.906707196894    -3.563812293138     0.121559164991     1.007825032230
         H           -2.706790803106    -2.547824293138    -0.150902835009     1.007825032230
         H           -5.032033803106    -1.636482293138    -0.054371835009     1.007825032230
         H           -5.302793803106    -0.012538293138     0.388448164991     1.007825032230

  Basis Set: AUG-CC-PVTZ
    Blend: AUG-CC-PVTZ
  Basis Set: (AUG-CC-PVTZ AUX)
    Blend: AUG-CC-PVTZ-JKFIT
	 Reference Energy          =    -811.4729464389670284 [Eh]
	 Singles Energy            =      -0.0000000000000000 [Eh]
	 Same-Spin Energy          =      -0.8297150115819640 [Eh]
	 Opposite-Spin Energy      =      -2.5246273286202028 [Eh]
	 Correlation Energy        =      -3.3543423402021668 [Eh]
	 Total Energy              =    -814.8272887791691801 [Eh]

	 ================> DF-SCS-MP2 Energies <==================
	-----------------------------------------------------------
	 SCS Same-Spin Scale       =       0.3333333333333333 [-]
	 SCS Opposite-Spin Scale   =       1.2000000000000000 [-]
	 SCS Same-Spin Energy      =      -0.2765716705273213 [Eh]
	 SCS Opposite-Spin Energy  =      -3.0295527943442431 [Eh]
	 SCS Correlation Energy    =      -3.3061244648715644 [Eh]
	 SCS Total Energy          =    -814.7790709038386012 [Eh]
	-----------------------------------------------------------

  Dipole Moment: [D]
     X:     1.1910      Y:    -4.8284      Z:     2.3756     Total:     5.5114

*** Psi4 exiting successfully. Buy a developer a beer!
