                               Psi4 1.3.2 release

  ==> Input File <==

--------------------------------------------------------------------------
#psi4
#
memory 32 gb

molecule  {
0 1
  O        1.3620710    -0.3800110    -0.9318440
  O        3.2020570     1.9012130    -0.2995130
  O        2.7994070    -2.7489470    -0.4002010
  O       -1.3621860     2.3740050     0.1547830
  N       -0.7982440     0.1994180    -0.2292560
  N       -3.0541720     0.8052390     0.2400120
  N       -4.6734100    -0.8124350     0.4126370
  C        2.7015950     0.8755540     0.5594740
  C        1.2368440     1.1072260     0.8878520
  C        2.6518190    -0.3922910    -0.2854700
  C        0.5739580     0.6830040    -0.4149160
  C        2.8020980    -1.6600160     0.5224700
  C       -1.1273370    -1.1158190    -0.3082760
  C       -1.7446880     1.2038920     0.0820450
  C       -2.4173070    -1.5045610    -0.1045420
  C       -3.3619920    -0.4731600     0.1685110
  H        3.3343810     0.7567850     1.4508530
  H        0.9047070     0.4438290     1.6934890
  H        0.9853290     2.1340670     1.1581470
  H        0.5274540     1.5132540    -1.1249130
  H        3.4174920    -0.3642830    -1.0666260
  H        1.9707490    -1.7331840     1.2432230
  H        3.7460890    -1.6095150     1.0882890
  H        3.1038510     2.7463240     0.1779830
  H       -0.3107400    -1.7892010    -0.5436980
  H        2.8873078    -3.3974378     0.0125232
  H       -2.7034680    -2.5490840    -0.1532500
  H       -5.0287110    -1.6377420    -0.0567190
  H       -5.2994710    -0.0137980     0.3861010
units angstrom
no_reorient  #important for SAPT in psi4, default
symmetry c1  #important for SAPT in psi4, default
}

set PROPERTIES_ORIGIN ["COM"]
properties('MP2/aug-cc-pvtz', properties = ['dipole'])
--------------------------------------------------------------------------

    Molecular point group: c1
  Charge       = 0
  Multiplicity = 1
  Basis Set: AUG-CC-PVTZ
    Blend: AUG-CC-PVTZ
  Basis Set: (AUG-CC-PVTZ AUX)
    Blend: AUG-CC-PVTZ-JKFIT

    Orbital Energies [Eh]
    ---------------------

    Doubly Occupied:

       1A    -20.575046     2A    -20.573873     3A    -20.556056
       4A    -20.503480     5A    -15.622239     6A    -15.588659
       7A    -15.541187     8A    -11.370335     9A    -11.345414
      10A    -11.331452    11A    -11.318777    12A    -11.301622
      13A    -11.299558    14A    -11.294462    15A    -11.237526
      16A    -11.237462    17A     -1.437371    18A     -1.413912
      19A     -1.382043    20A     -1.368549    21A     -1.292676
      22A     -1.261964    23A     -1.169523    24A     -1.080075
      25A     -1.073082    26A     -1.033884    27A     -0.936930
      28A     -0.899545    29A     -0.871116    30A     -0.831650
      31A     -0.807593    32A     -0.754795    33A     -0.754391
      34A     -0.738339    35A     -0.708780    36A     -0.701944
      37A     -0.690544    38A     -0.677119    39A     -0.658353
      40A     -0.638994    41A     -0.628410    42A     -0.619692
      43A     -0.607164    44A     -0.596802    45A     -0.590451
      46A     -0.573745    47A     -0.571273    48A     -0.550847
      49A     -0.533264    50A     -0.527408    51A     -0.512334
      52A     -0.487205    53A     -0.482752    54A     -0.474282
      55A     -0.462676    56A     -0.445325    57A     -0.439077
      58A     -0.416813    59A     -0.384125    60A     -0.335375

  @DF-RHF Final Energy:  -811.43397396875480

   => Energetics <=

    Nuclear Repulsion Energy =           1171.5258149158112246
    One-Electron Energy =               -3437.6809028964385107
    Two-Electron Energy =                1454.7211140118724870
    Total Energy =                       -811.4339739687547990
  Basis Set: (AUG-CC-PVTZ AUX)
    Blend: AUG-CC-PVTZ-RI
    Molecular point group: c1

    Geometry (in Angstrom), charge = 0, multiplicity = 1:

       Center              X                  Y                   Z               Mass
    ------------   -----------------  -----------------  -----------------  -----------------
         O            1.362171824902    -0.380754995359    -0.931370482325    15.994914619570
         O            3.202157824902     1.900469004641    -0.299039482325    15.994914619570
         O            2.799507824902    -2.749690995359    -0.399727482325    15.994914619570
         O           -1.362085175098     2.373261004641     0.155256517675    15.994914619570
         N           -0.798143175098     0.198674004641    -0.228782482325    14.003074004430
         N           -3.054071175098     0.804495004641     0.240485517675    14.003074004430
         N           -4.673309175098    -0.813178995359     0.413110517675    14.003074004430
         C            2.701695824902     0.874810004641     0.559947517675    12.000000000000
         C            1.236944824902     1.106482004641     0.888325517675    12.000000000000
         C            2.651919824902    -0.393034995359    -0.284996482325    12.000000000000
         C            0.574058824902     0.682260004641    -0.414442482325    12.000000000000
         C            2.802198824902    -1.660759995359     0.522943517675    12.000000000000
         C           -1.127236175098    -1.116562995359    -0.307802482325    12.000000000000
         C           -1.744587175098     1.203148004641     0.082518517675    12.000000000000
         C           -2.417206175098    -1.505304995359    -0.104068482325    12.000000000000
         C           -3.361891175098    -0.473903995359     0.168984517675    12.000000000000
         H            3.334481824902     0.756041004641     1.451326517675     1.007825032230
         H            0.904807824902     0.443085004641     1.693962517675     1.007825032230
         H            0.985429824902     2.133323004641     1.158620517675     1.007825032230
         H            0.527554824902     1.512510004641    -1.124439482325     1.007825032230
         H            3.417592824902    -0.365026995359    -1.066152482325     1.007825032230
         H            1.970849824902    -1.733927995359     1.243696517675     1.007825032230
         H            3.746189824902    -1.610258995359     1.088762517675     1.007825032230
         H            3.103951824902     2.745580004641     0.178456517675     1.007825032230
         H           -0.310639175098    -1.789944995359    -0.543224482325     1.007825032230
         H            2.887408624902    -3.398181795359     0.012996717675     1.007825032230
         H           -2.703367175098    -2.549827995359    -0.152776482325     1.007825032230
         H           -5.028610175098    -1.638485995359    -0.056245482325     1.007825032230
         H           -5.299370175098    -0.014541995359     0.386574517675     1.007825032230

  Basis Set: AUG-CC-PVTZ
    Blend: AUG-CC-PVTZ
  Basis Set: (AUG-CC-PVTZ AUX)
    Blend: AUG-CC-PVTZ-JKFIT
	 Reference Energy          =    -811.4339739687547990 [Eh]
	 Singles Energy            =      -0.0000000000000000 [Eh]
	 Same-Spin Energy          =      -0.8273845031137292 [Eh]
	 Opposite-Spin Energy      =      -2.5195597292861196 [Eh]
	 Correlation Energy        =      -3.3469442323998488 [Eh]
	 Total Energy              =    -814.7809182011546909 [Eh]

	 ================> DF-SCS-MP2 Energies <==================
	-----------------------------------------------------------
	 SCS Same-Spin Scale       =       0.3333333333333333 [-]
	 SCS Opposite-Spin Scale   =       1.2000000000000000 [-]
	 SCS Same-Spin Energy      =      -0.2757948343712431 [Eh]
	 SCS Opposite-Spin Energy  =      -3.0234716751433433 [Eh]
	 SCS Correlation Energy    =      -3.2992665095145863 [Eh]
	 SCS Total Energy          =    -814.7332404782694084 [Eh]
	-----------------------------------------------------------

  Dipole Moment: [D]
     X:     1.0343      Y:    -4.4803      Z:     2.4422     Total:     5.2064

*** Psi4 exiting successfully. Buy a developer a beer!
