                               Psi4 1.3.2 release

  ==> Input File <==

--------------------------------------------------------------------------
#psi4
#
memory 32 gb

molecule  {
0 1
  O        1.3620710    -0.3800110    -0.9318440
  O        3.2020570     1.9012130    -0.2995130
  O        2.7994070    -2.7489470    -0.4002010
  O       -1.3621860     2.3740050     0.1547830
  N       -0.7982440     0.1994180    -0.2292560
  N       -3.0541720     0.8052390     0.2400120
  N       -4.6734100    -0.8124350     0.4126370
  C        2.7015950     0.8755540     0.5594740
  C        1.2368440     1.1072260     0.8878520
  C        2.6518190    -0.3922910    -0.2854700
  C        0.5739580     0.6830040    -0.4149160
  C        2.8020980    -1.6600160     0.5224700
  C       -1.1273370    -1.1158190    -0.3082760
  C       -1.7446880     1.2038920     0.0820450
  C       -2.4173070    -1.5045610    -0.1045420
  C       -3.3252669    -0.4397953     0.1650106
  H        3.3343810     0.7567850     1.4508530
  H        0.9047070     0.4438290     1.6934890
  H        0.9853290     2.1340670     1.1581470
  H        0.5274540     1.5132540    -1.1249130
  H        3.4174920    -0.3642830    -1.0666260
  H        1.9707490    -1.7331840     1.2432230
  H        3.7460890    -1.6095150     1.0882890
  H        3.1038510     2.7463240     0.1779830
  H       -0.3107400    -1.7892010    -0.5436980
  H        2.9100300    -3.5650720     0.1192120
  H       -2.6674381    -2.5579215    -0.1607102
  H       -5.0287110    -1.6377420    -0.0567190
  H       -5.2994710    -0.0137980     0.3861010
units angstrom
no_reorient  #important for SAPT in psi4, default
symmetry c1  #important for SAPT in psi4, default
}

set PROPERTIES_ORIGIN ["COM"]
properties('MP2/aug-cc-pvtz', properties = ['dipole'])
--------------------------------------------------------------------------

    Molecular point group: c1
  Charge       = 0
  Multiplicity = 1
  Basis Set: AUG-CC-PVTZ
    Blend: AUG-CC-PVTZ
  Basis Set: (AUG-CC-PVTZ AUX)
    Blend: AUG-CC-PVTZ-JKFIT

    Orbital Energies [Eh]
    ---------------------

    Doubly Occupied:

       1A    -20.578297     2A    -20.575292     3A    -20.573970
       4A    -20.508143     5A    -15.623478     6A    -15.579671
       7A    -15.545122     8A    -11.374617     9A    -11.342935
      10A    -11.332291    11A    -11.317049    12A    -11.301874
      13A    -11.297536    14A    -11.293963    15A    -11.238117
      16A    -11.237352    17A     -1.418188    18A     -1.386993
      19A     -1.374284    20A     -1.367112    21A     -1.295773
      22A     -1.258690    23A     -1.169137    24A     -1.080758
      25A     -1.070449    26A     -1.028764    27A     -0.927105
      28A     -0.898306    29A     -0.872138    30A     -0.832208
      31A     -0.807036    32A     -0.752369    33A     -0.740741
      34A     -0.721761    35A     -0.701526    36A     -0.692548
      37A     -0.686573    38A     -0.674199    39A     -0.656596
      40A     -0.640311    41A     -0.630385    42A     -0.618337
      43A     -0.606418    44A     -0.592534    45A     -0.592102
      46A     -0.572036    47A     -0.569435    48A     -0.545490
      49A     -0.530151    50A     -0.525047    51A     -0.509339
      52A     -0.486913    53A     -0.484401    54A     -0.469187
      55A     -0.462095    56A     -0.451043    57A     -0.439212
      58A     -0.420970    59A     -0.389252    60A     -0.336546

  @DF-RHF Final Energy:  -811.47648321061786

   => Energetics <=

    Nuclear Repulsion Energy =           1170.6781090947622488
    One-Electron Energy =               -3436.3008517273401594
    Two-Electron Energy =                1454.1462594219597122
    Total Energy =                       -811.4764832106179711
  Basis Set: (AUG-CC-PVTZ AUX)
    Blend: AUG-CC-PVTZ-RI
    Molecular point group: c1

    Geometry (in Angstrom), charge = 0, multiplicity = 1:

       Center              X                  Y                   Z               Mass
    ------------   -----------------  -----------------  -----------------  -----------------
         O            1.359970443497    -0.381734885313    -0.931625888165    15.994914619570
         O            3.199956443497     1.899489114687    -0.299294888165    15.994914619570
         O            2.797306443497    -2.750670885313    -0.399982888165    15.994914619570
         O           -1.364286556503     2.372281114687     0.155001111835    15.994914619570
         N           -0.800344556503     0.197694114687    -0.229037888165    14.003074004430
         N           -3.056272556503     0.803515114687     0.240230111835    14.003074004430
         N           -4.675510556503    -0.814158885313     0.412855111835    14.003074004430
         C            2.699494443497     0.873830114687     0.559692111835    12.000000000000
         C            1.234743443497     1.105502114687     0.888070111835    12.000000000000
         C            2.649718443497    -0.394014885313    -0.285251888165    12.000000000000
         C            0.571857443497     0.681280114687    -0.414697888165    12.000000000000
         C            2.799997443497    -1.661739885313     0.522688111835    12.000000000000
         C           -1.129437556503    -1.117542885313    -0.308057888165    12.000000000000
         C           -1.746788556503     1.202168114687     0.082263111835    12.000000000000
         C           -2.419407556503    -1.506284885313    -0.104323888165    12.000000000000
         C           -3.327367456503    -0.441519185313     0.165228711835    12.000000000000
         H            3.332280443497     0.755061114687     1.451071111835     1.007825032230
         H            0.902606443497     0.442105114687     1.693707111835     1.007825032230
         H            0.983228443497     2.132343114687     1.158365111835     1.007825032230
         H            0.525353443497     1.511530114687    -1.124694888165     1.007825032230
         H            3.415391443497    -0.366006885313    -1.066407888165     1.007825032230
         H            1.968648443497    -1.734907885313     1.243441111835     1.007825032230
         H            3.743988443497    -1.611238885313     1.088507111835     1.007825032230
         H            3.101750443497     2.744600114687     0.178201111835     1.007825032230
         H           -0.312840556503    -1.790924885313    -0.543479888165     1.007825032230
         H            2.907929443497    -3.566795885313     0.119430111835     1.007825032230
         H           -2.669538656503    -2.559645385313    -0.160492088165     1.007825032230
         H           -5.030811556503    -1.639465885313    -0.056500888165     1.007825032230
         H           -5.301571556503    -0.015521885313     0.386319111835     1.007825032230

  Basis Set: AUG-CC-PVTZ
    Blend: AUG-CC-PVTZ
  Basis Set: (AUG-CC-PVTZ AUX)
    Blend: AUG-CC-PVTZ-JKFIT
	 Reference Energy          =    -811.4764832106178574 [Eh]
	 Singles Energy            =      -0.0000000000000000 [Eh]
	 Same-Spin Energy          =      -0.8292682169642355 [Eh]
	 Opposite-Spin Energy      =      -2.5249071310841069 [Eh]
	 Correlation Energy        =      -3.3541753480483423 [Eh]
	 Total Energy              =    -814.8306585586661868 [Eh]

	 ================> DF-SCS-MP2 Energies <==================
	-----------------------------------------------------------
	 SCS Same-Spin Scale       =       0.3333333333333333 [-]
	 SCS Opposite-Spin Scale   =       1.2000000000000000 [-]
	 SCS Same-Spin Energy      =      -0.2764227389880785 [Eh]
	 SCS Opposite-Spin Energy  =      -3.0298885573009282 [Eh]
	 SCS Correlation Energy    =      -3.3063112962890067 [Eh]
	 SCS Total Energy          =    -814.7827945069068392 [Eh]
	-----------------------------------------------------------

  Dipole Moment: [D]
     X:     1.4640      Y:    -4.4516      Z:     2.4436     Total:     5.2849

*** Psi4 exiting successfully. Buy a developer a beer!
