                               Psi4 1.3.2 release

  ==> Input File <==

--------------------------------------------------------------------------
#psi4
#
memory 32 gb

molecule  {
0 1
  O        1.3737932    -0.4236352    -0.9541012
  O        3.2020570     1.9012130    -0.2995130
  O        2.7994070    -2.7489470    -0.4002010
  O       -1.3621860     2.3740050     0.1547830
  N       -0.7982440     0.1994180    -0.2292560
  N       -3.0541720     0.8052390     0.2400120
  N       -4.6734100    -0.8124350     0.4126370
  C        2.7504784     0.8618818     0.5754341
  C        1.2368440     1.1072260     0.8878520
  C        2.6518190    -0.3922910    -0.2854700
  C        0.5739580     0.6830040    -0.4149160
  C        2.8020980    -1.6600160     0.5224700
  C       -1.1273370    -1.1158190    -0.3082760
  C       -1.7446880     1.2038920     0.0820450
  C       -2.4173070    -1.5045610    -0.1045420
  C       -3.3619920    -0.4731600     0.1685110
  H        3.3343810     0.7567850     1.4508530
  H        0.9047070     0.4438290     1.6934890
  H        0.9853290     2.1340670     1.1581470
  H        0.5274540     1.5132540    -1.1249130
  H        3.4174920    -0.3642830    -1.0666260
  H        1.9707490    -1.7331840     1.2432230
  H        3.7460890    -1.6095150     1.0882890
  H        3.1038510     2.7463240     0.1779830
  H       -0.3107400    -1.7892010    -0.5436980
  H        2.9100300    -3.5650720     0.1192120
  H       -2.7034680    -2.5490840    -0.1532500
  H       -5.0287110    -1.6377420    -0.0567190
  H       -5.2994710    -0.0137980     0.3861010
units angstrom
no_reorient  #important for SAPT in psi4, default
symmetry c1  #important for SAPT in psi4, default
}

set PROPERTIES_ORIGIN ["COM"]
properties('MP2/aug-cc-pvtz', properties = ['dipole'])
--------------------------------------------------------------------------

    Molecular point group: c1
  Charge       = 0
  Multiplicity = 1
  Basis Set: AUG-CC-PVTZ
    Blend: AUG-CC-PVTZ
  Basis Set: (AUG-CC-PVTZ AUX)
    Blend: AUG-CC-PVTZ-JKFIT

    Orbital Energies [Eh]
    ---------------------

    Doubly Occupied:

       1A    -20.575918     2A    -20.574988     3A    -20.574498
       4A    -20.503859     5A    -15.623099     6A    -15.588682
       7A    -15.541274     8A    -11.370691     9A    -11.345453
      10A    -11.334805    11A    -11.318355    12A    -11.301341
      13A    -11.294897    14A    -11.291146    15A    -11.240145
      16A    -11.237246    17A     -1.406344    18A     -1.382316
      19A     -1.372039    20A     -1.361189    21A     -1.292726
      22A     -1.262074    23A     -1.169643    24A     -1.077382
      25A     -1.066219    26A     -1.024305    27A     -0.925638
      28A     -0.897134    29A     -0.870387    30A     -0.829788
      31A     -0.808714    32A     -0.754597    33A     -0.737940
      34A     -0.718185    35A     -0.707596    36A     -0.691314
      37A     -0.687377    38A     -0.673924    39A     -0.654070
      40A     -0.635438    41A     -0.628633    42A     -0.617100
      43A     -0.604846    44A     -0.593474    45A     -0.587400
      46A     -0.573322    47A     -0.562918    48A     -0.544234
      49A     -0.534499    50A     -0.522813    51A     -0.511185
      52A     -0.489274    53A     -0.480326    54A     -0.466076
      55A     -0.458384    56A     -0.443970    57A     -0.438814
      58A     -0.417125    59A     -0.384466    60A     -0.335598

  @DF-RHF Final Energy:  -811.47224611258912

   => Energetics <=

    Nuclear Repulsion Energy =           1167.7643032923299415
    One-Electron Energy =               -3430.6387131506448895
    Two-Electron Energy =                1451.4021637457256020
    Total Energy =                       -811.4722461125891186
  Basis Set: (AUG-CC-PVTZ AUX)
    Blend: AUG-CC-PVTZ-RI
    Molecular point group: c1

    Geometry (in Angstrom), charge = 0, multiplicity = 1:

       Center              X                  Y                   Z               Mass
    ------------   -----------------  -----------------  -----------------  -----------------
         O            1.370384428427    -0.419840136189    -0.953376869791    15.994914619570
         O            3.198648228427     1.905008063811    -0.298788669791    15.994914619570
         O            2.795998228427    -2.745151936189    -0.399476669791    15.994914619570
         O           -1.365594771573     2.377800063811     0.155507330209    15.994914619570
         N           -0.801652771573     0.203213063811    -0.228531669791    14.003074004430
         N           -3.057580771573     0.809034063811     0.240736330209    14.003074004430
         N           -4.676818771573    -0.808639936189     0.413361330209    14.003074004430
         C            2.747069628427     0.865676863811     0.576158430209    12.000000000000
         C            1.233435228427     1.111021063811     0.888576330209    12.000000000000
         C            2.648410228427    -0.388495936189    -0.284745669791    12.000000000000
         C            0.570549228427     0.686799063811    -0.414191669791    12.000000000000
         C            2.798689228427    -1.656220936189     0.523194330209    12.000000000000
         C           -1.130745771573    -1.112023936189    -0.307551669791    12.000000000000
         C           -1.748096771573     1.207687063811     0.082769330209    12.000000000000
         C           -2.420715771573    -1.500765936189    -0.103817669791    12.000000000000
         C           -3.365400771573    -0.469364936189     0.169235330209    12.000000000000
         H            3.330972228427     0.760580063811     1.451577330209     1.007825032230
         H            0.901298228427     0.447624063811     1.694213330209     1.007825032230
         H            0.981920228427     2.137862063811     1.158871330209     1.007825032230
         H            0.524045228427     1.517049063811    -1.124188669791     1.007825032230
         H            3.414083228427    -0.360487936189    -1.065901669791     1.007825032230
         H            1.967340228427    -1.729388936189     1.243947330209     1.007825032230
         H            3.742680228427    -1.605719936189     1.089013330209     1.007825032230
         H            3.100442228427     2.750119063811     0.178707330209     1.007825032230
         H           -0.314148771573    -1.785405936189    -0.542973669791     1.007825032230
         H            2.906621228427    -3.561276936189     0.119936330209     1.007825032230
         H           -2.706876771573    -2.545288936189    -0.152525669791     1.007825032230
         H           -5.032119771573    -1.633946936189    -0.055994669791     1.007825032230
         H           -5.302879771573    -0.010002936189     0.386825330209     1.007825032230

  Basis Set: AUG-CC-PVTZ
    Blend: AUG-CC-PVTZ
  Basis Set: (AUG-CC-PVTZ AUX)
    Blend: AUG-CC-PVTZ-JKFIT
	 Reference Energy          =    -811.4722461125891186 [Eh]
	 Singles Energy            =      -0.0000000000000000 [Eh]
	 Same-Spin Energy          =      -0.8298787327934836 [Eh]
	 Opposite-Spin Energy      =      -2.5268016569011262 [Eh]
	 Correlation Energy        =      -3.3566803896946098 [Eh]
	 Total Energy              =    -814.8289265022837071 [Eh]

	 ================> DF-SCS-MP2 Energies <==================
	-----------------------------------------------------------
	 SCS Same-Spin Scale       =       0.3333333333333333 [-]
	 SCS Opposite-Spin Scale   =       1.2000000000000000 [-]
	 SCS Same-Spin Energy      =      -0.2766262442644945 [Eh]
	 SCS Opposite-Spin Energy  =      -3.0321619882813513 [Eh]
	 SCS Correlation Energy    =      -3.3087882325458460 [Eh]
	 SCS Total Energy          =    -814.7810343451349127 [Eh]
	-----------------------------------------------------------

  Dipole Moment: [D]
     X:     1.0244      Y:    -4.5543      Z:     2.5706     Total:     5.3291

*** Psi4 exiting successfully. Buy a developer a beer!
