                               Psi4 1.3.2 release

  ==> Input File <==

--------------------------------------------------------------------------
#psi4
#
memory 32 gb

molecule  {
0 1
  O        1.3620710    -0.3800110    -0.9318440
  O        3.2020570     1.9012130    -0.2995130
  O        2.7994070    -2.7489470    -0.4002010
  O       -1.3621860     2.3740050     0.1547830
  N       -0.7982440     0.1994180    -0.2292560
  N       -3.0541720     0.8052390     0.2400120
  N       -4.6734100    -0.8124350     0.4126370
  C        2.7015950     0.8755540     0.5594740
  C        1.2368440     1.1072260     0.8878520
  C        2.6518190    -0.3922910    -0.2854700
  C        0.5739580     0.6830040    -0.4149160
  C        2.8020980    -1.6600160     0.5224700
  C       -1.1273370    -1.1158190    -0.3082760
  C       -1.7446880     1.2038920     0.0820450
  C       -2.4173070    -1.5045610    -0.1045420
  C       -3.3709952    -0.4816991     0.1693343
  H        3.3343810     0.7567850     1.4508530
  H        0.9047070     0.4438290     1.6934890
  H        0.9853290     2.1340670     1.1581470
  H        0.5274540     1.5132540    -1.1249130
  H        3.4174920    -0.3642830    -1.0666260
  H        1.9707490    -1.7331840     1.2432230
  H        3.7460890    -1.6095150     1.0882890
  H        3.1038510     2.7463240     0.1779830
  H       -0.3107400    -1.7892010    -0.5436980
  H        2.9100300    -3.5650720     0.1192120
  H       -2.7124227    -2.5466753    -0.1513753
  H       -5.0287110    -1.6377420    -0.0567190
  H       -5.2994710    -0.0137980     0.3861010
units angstrom
no_reorient  #important for SAPT in psi4, default
symmetry c1  #important for SAPT in psi4, default
}

set PROPERTIES_ORIGIN ["COM"]
properties('MP2/aug-cc-pvtz', properties = ['dipole'])
--------------------------------------------------------------------------

    Molecular point group: c1
  Charge       = 0
  Multiplicity = 1
  Basis Set: AUG-CC-PVTZ
    Blend: AUG-CC-PVTZ
  Basis Set: (AUG-CC-PVTZ AUX)
    Blend: AUG-CC-PVTZ-JKFIT

    Orbital Energies [Eh]
    ---------------------

    Doubly Occupied:

       1A    -20.577619     2A    -20.574105     3A    -20.572612
       4A    -20.501753     5A    -15.621282     6A    -15.590503
       7A    -15.539666     8A    -11.368696     9A    -11.345532
      10A    -11.330349    11A    -11.318610    12A    -11.300603
      13A    -11.296700    14A    -11.292855    15A    -11.236986
      16A    -11.236454    17A     -1.416299    18A     -1.381353
      19A     -1.373399    20A     -1.365327    21A     -1.292082
      22A     -1.262703    23A     -1.168075    24A     -1.078549
      25A     -1.068542    26A     -1.027765    27A     -0.926758
      28A     -0.897321    29A     -0.868197    30A     -0.830531
      31A     -0.806216    32A     -0.754948    33A     -0.738228
      34A     -0.720808    35A     -0.708741    36A     -0.692910
      37A     -0.689450    38A     -0.676030    39A     -0.656561
      40A     -0.636427    41A     -0.627006    42A     -0.618389
      43A     -0.604160    44A     -0.595702    45A     -0.587759
      46A     -0.572758    47A     -0.568572    48A     -0.544785
      49A     -0.533396    50A     -0.523396    51A     -0.510564
      52A     -0.485619    53A     -0.481504    54A     -0.468334
      55A     -0.460870    56A     -0.443244    57A     -0.436954
      58A     -0.415023    59A     -0.382148    60A     -0.334510

  @DF-RHF Final Energy:  -811.47890099178721

   => Energetics <=

    Nuclear Repulsion Energy =           1169.7645676550632743
    One-Electron Energy =               -3434.6144544716680684
    Two-Electron Energy =                1453.3709858248175806
    Total Energy =                       -811.4789009917872136
  Basis Set: (AUG-CC-PVTZ AUX)
    Blend: AUG-CC-PVTZ-RI
    Molecular point group: c1

    Geometry (in Angstrom), charge = 0, multiplicity = 1:

       Center              X                  Y                   Z               Mass
    ------------   -----------------  -----------------  -----------------  -----------------
         O            1.362586475118    -0.379570500766    -0.931895790769    15.994914619570
         O            3.202572475118     1.901653499234    -0.299564790769    15.994914619570
         O            2.799922475118    -2.748506500766    -0.400252790769    15.994914619570
         O           -1.361670524882     2.374445499234     0.154731209231    15.994914619570
         N           -0.797728524882     0.199858499234    -0.229307790769    14.003074004430
         N           -3.053656524882     0.805679499234     0.239960209231    14.003074004430
         N           -4.672894524882    -0.811994500766     0.412585209231    14.003074004430
         C            2.702110475118     0.875994499234     0.559422209231    12.000000000000
         C            1.237359475118     1.107666499234     0.887800209231    12.000000000000
         C            2.652334475118    -0.391850500766    -0.285521790769    12.000000000000
         C            0.574473475118     0.683444499234    -0.414967790769    12.000000000000
         C            2.802613475118    -1.659575500766     0.522418209231    12.000000000000
         C           -1.126821524882    -1.115378500766    -0.308327790769    12.000000000000
         C           -1.744172524882     1.204332499234     0.081993209231    12.000000000000
         C           -2.416791524882    -1.504120500766    -0.104593790769    12.000000000000
         C           -3.370479724882    -0.481258600766     0.169282509231    12.000000000000
         H            3.334896475118     0.757225499234     1.450801209231     1.007825032230
         H            0.905222475118     0.444269499234     1.693437209231     1.007825032230
         H            0.985844475118     2.134507499234     1.158095209231     1.007825032230
         H            0.527969475118     1.513694499234    -1.124964790769     1.007825032230
         H            3.418007475118    -0.363842500766    -1.066677790769     1.007825032230
         H            1.971264475118    -1.732743500766     1.243171209231     1.007825032230
         H            3.746604475118    -1.609074500766     1.088237209231     1.007825032230
         H            3.104366475118     2.746764499234     0.177931209231     1.007825032230
         H           -0.310224524882    -1.788760500766    -0.543749790769     1.007825032230
         H            2.910545475118    -3.564631500766     0.119160209231     1.007825032230
         H           -2.711907224882    -2.546234800766    -0.151427090769     1.007825032230
         H           -5.028195524882    -1.637301500766    -0.056770790769     1.007825032230
         H           -5.298955524882    -0.013357500766     0.386049209231     1.007825032230

  Basis Set: AUG-CC-PVTZ
    Blend: AUG-CC-PVTZ
  Basis Set: (AUG-CC-PVTZ AUX)
    Blend: AUG-CC-PVTZ-JKFIT
	 Reference Energy          =    -811.4789009917872136 [Eh]
	 Singles Energy            =      -0.0000000000000000 [Eh]
	 Same-Spin Energy          =      -0.8297741588505495 [Eh]
	 Opposite-Spin Energy      =      -2.5252513856389331 [Eh]
	 Correlation Energy        =      -3.3550255444894828 [Eh]
	 Total Energy              =    -814.8339265362767492 [Eh]

	 ================> DF-SCS-MP2 Energies <==================
	-----------------------------------------------------------
	 SCS Same-Spin Scale       =       0.3333333333333333 [-]
	 SCS Opposite-Spin Scale   =       1.2000000000000000 [-]
	 SCS Same-Spin Energy      =      -0.2765913862835165 [Eh]
	 SCS Opposite-Spin Energy  =      -3.0303016627667199 [Eh]
	 SCS Correlation Energy    =      -3.3068930490502364 [Eh]
	 SCS Total Energy          =    -814.7857940408374589 [Eh]
	-----------------------------------------------------------

  Dipole Moment: [D]
     X:     0.9790      Y:    -4.7350      Z:     2.5009     Total:     5.4437

*** Psi4 exiting successfully. Buy a developer a beer!
