                               Psi4 1.3.2 release

  ==> Input File <==

--------------------------------------------------------------------------
#psi4
#
memory 32 gb

molecule  {
0 1
  O        1.3620710    -0.3800110    -0.9318440
  O        3.2020570     1.9012130    -0.2995130
  O        2.7994070    -2.7489470    -0.4002010
  O       -1.3621860     2.3740050     0.1547830
  N       -0.7982440     0.1994180    -0.2292560
  N       -3.0541720     0.8052390     0.2400120
  N       -4.6734100    -0.8124350     0.4126370
  C        2.7015950     0.8755540     0.5594740
  C        1.2368440     1.1072260     0.8878520
  C        2.6518190    -0.3922910    -0.2854700
  C        0.5739580     0.6830040    -0.4149160
  C        2.8020980    -1.6600160     0.5224700
  C       -1.1273370    -1.1158190    -0.3082760
  C       -1.7480404     1.2153356     0.0835924
  C       -2.4173070    -1.5045610    -0.1045420
  C       -3.3730264    -0.4705564     0.1703889
  H        3.3343810     0.7567850     1.4508530
  H        0.9047070     0.4438290     1.6934890
  H        0.9853290     2.1340670     1.1581470
  H        0.5274540     1.5132540    -1.1249130
  H        3.4174920    -0.3642830    -1.0666260
  H        1.9707490    -1.7331840     1.2432230
  H        3.7460890    -1.6095150     1.0882890
  H        3.1038510     2.7463240     0.1779830
  H       -0.3107400    -1.7892010    -0.5436980
  H        2.9100300    -3.5650720     0.1192120
  H       -2.7034680    -2.5490840    -0.1532500
  H       -5.0287110    -1.6377420    -0.0567190
  H       -5.2994710    -0.0137980     0.3861010
units angstrom
no_reorient  #important for SAPT in psi4, default
symmetry c1  #important for SAPT in psi4, default
}

set PROPERTIES_ORIGIN ["COM"]
properties('MP2/aug-cc-pvtz', properties = ['dipole'])
--------------------------------------------------------------------------

    Molecular point group: c1
  Charge       = 0
  Multiplicity = 1
  Basis Set: AUG-CC-PVTZ
    Blend: AUG-CC-PVTZ
  Basis Set: (AUG-CC-PVTZ AUX)
    Blend: AUG-CC-PVTZ-JKFIT

    Orbital Energies [Eh]
    ---------------------

    Doubly Occupied:

       1A    -20.577231     2A    -20.573993     3A    -20.571997
       4A    -20.505670     5A    -15.618927     6A    -15.589759
       7A    -15.539261     8A    -11.370457     9A    -11.345341
      10A    -11.329568    11A    -11.316316    12A    -11.300386
      13A    -11.296314    14A    -11.292461    15A    -11.236236
      16A    -11.235813    17A     -1.415884    18A     -1.385421
      19A     -1.373108    20A     -1.365921    21A     -1.294123
      22A     -1.261593    23A     -1.169909    24A     -1.077752
      25A     -1.067258    26A     -1.026119    27A     -0.925688
      28A     -0.894068    29A     -0.868842    30A     -0.830425
      31A     -0.805590    32A     -0.753934    33A     -0.737150
      34A     -0.720379    35A     -0.708485    36A     -0.692401
      37A     -0.689416    38A     -0.676200    39A     -0.655980
      40A     -0.636157    41A     -0.626834    42A     -0.618871
      43A     -0.605023    44A     -0.594732    45A     -0.589073
      46A     -0.572858    47A     -0.568234    48A     -0.544558
      49A     -0.533465    50A     -0.523122    51A     -0.511291
      52A     -0.485368    53A     -0.483218    54A     -0.467991
      55A     -0.460829    56A     -0.445478    57A     -0.437225
      58A     -0.414304    59A     -0.383506    60A     -0.333460

  @DF-RHF Final Energy:  -811.47978512058774

   => Energetics <=

    Nuclear Repulsion Energy =           1169.6920054631143557
    One-Electron Energy =               -3434.4816292557511588
    Two-Electron Energy =                1453.3098386720494091
    Total Energy =                       -811.4797851205876213
  Basis Set: (AUG-CC-PVTZ AUX)
    Blend: AUG-CC-PVTZ-RI
    Molecular point group: c1

    Geometry (in Angstrom), charge = 0, multiplicity = 1:

       Center              X                  Y                   Z               Mass
    ------------   -----------------  -----------------  -----------------  -----------------
         O            1.362831216326    -0.380753324031    -0.932024966656    15.994914619570
         O            3.202817216326     1.900470675969    -0.299693966656    15.994914619570
         O            2.800167216326    -2.749689324031    -0.400381966656    15.994914619570
         O           -1.361425783674     2.373262675969     0.154602033344    15.994914619570
         N           -0.797483783674     0.198675675969    -0.229436966656    14.003074004430
         N           -3.053411783674     0.804496675969     0.239831033344    14.003074004430
         N           -4.672649783674    -0.813177324031     0.412456033344    14.003074004430
         C            2.702355216326     0.874811675969     0.559293033344    12.000000000000
         C            1.237604216326     1.106483675969     0.887671033344    12.000000000000
         C            2.652579216326    -0.393033324031    -0.285650966656    12.000000000000
         C            0.574718216326     0.682261675969    -0.415096966656    12.000000000000
         C            2.802858216326    -1.660758324031     0.522289033344    12.000000000000
         C           -1.126576783674    -1.116561324031    -0.308456966656    12.000000000000
         C           -1.747280183674     1.214593275969     0.083411433344    12.000000000000
         C           -2.416546783674    -1.505303324031    -0.104722966656    12.000000000000
         C           -3.372266183674    -0.471298724031     0.170207933344    12.000000000000
         H            3.335141216326     0.756042675969     1.450672033344     1.007825032230
         H            0.905467216326     0.443086675969     1.693308033344     1.007825032230
         H            0.986089216326     2.133324675969     1.157966033344     1.007825032230
         H            0.528214216326     1.512511675969    -1.125093966656     1.007825032230
         H            3.418252216326    -0.365025324031    -1.066806966656     1.007825032230
         H            1.971509216326    -1.733926324031     1.243042033344     1.007825032230
         H            3.746849216326    -1.610257324031     1.088108033344     1.007825032230
         H            3.104611216326     2.745581675969     0.177802033344     1.007825032230
         H           -0.309979783674    -1.789943324031    -0.543878966656     1.007825032230
         H            2.910790216326    -3.565814324031     0.119031033344     1.007825032230
         H           -2.702707783674    -2.549826324031    -0.153430966656     1.007825032230
         H           -5.027950783674    -1.638484324031    -0.056899966656     1.007825032230
         H           -5.298710783674    -0.014540324031     0.385920033344     1.007825032230

  Basis Set: AUG-CC-PVTZ
    Blend: AUG-CC-PVTZ
  Basis Set: (AUG-CC-PVTZ AUX)
    Blend: AUG-CC-PVTZ-JKFIT
	 Reference Energy          =    -811.4797851205877350 [Eh]
	 Singles Energy            =      -0.0000000000000000 [Eh]
	 Same-Spin Energy          =      -0.8294331467462313 [Eh]
	 Opposite-Spin Energy      =      -2.5247421005871633 [Eh]
	 Correlation Energy        =      -3.3541752473333943 [Eh]
	 Total Energy              =    -814.8339603679211223 [Eh]

	 ================> DF-SCS-MP2 Energies <==================
	-----------------------------------------------------------
	 SCS Same-Spin Scale       =       0.3333333333333333 [-]
	 SCS Opposite-Spin Scale   =       1.2000000000000000 [-]
	 SCS Same-Spin Energy      =      -0.2764777155820771 [Eh]
	 SCS Opposite-Spin Energy  =      -3.0296905207045959 [Eh]
	 SCS Correlation Energy    =      -3.3061682362866729 [Eh]
	 SCS Total Energy          =    -814.7859533568744155 [Eh]
	-----------------------------------------------------------

  Dipole Moment: [D]
     X:     0.9632      Y:    -4.5850      Z:     2.5157     Total:     5.3177

*** Psi4 exiting successfully. Buy a developer a beer!
