                               Psi4 1.3.2 release

  ==> Input File <==

--------------------------------------------------------------------------
#psi4
#
memory 32 gb

molecule  {
0 1
  O        1.3976706    -0.3777919    -0.9984227
  O        3.2020570     1.9012130    -0.2995130
  O        2.7994070    -2.7489470    -0.4002010
  O       -1.3621860     2.3740050     0.1547830
  N       -0.7982440     0.1994180    -0.2292560
  N       -3.0541720     0.8052390     0.2400120
  N       -4.6734100    -0.8124350     0.4126370
  C        2.7015950     0.8755540     0.5594740
  C        1.2368440     1.1072260     0.8878520
  C        2.6518190    -0.3922910    -0.2854700
  C        0.5739580     0.6830040    -0.4149160
  C        2.8020980    -1.6600160     0.5224700
  C       -1.1273370    -1.1158190    -0.3082760
  C       -1.7446880     1.2038920     0.0820450
  C       -2.4173070    -1.5045610    -0.1045420
  C       -3.3619920    -0.4731600     0.1685110
  H        3.3343810     0.7567850     1.4508530
  H        0.9047070     0.4438290     1.6934890
  H        0.9853290     2.1340670     1.1581470
  H        0.5274540     1.5132540    -1.1249130
  H        3.3755351    -0.3633392    -1.1056170
  H        1.9707490    -1.7331840     1.2432230
  H        3.7460890    -1.6095150     1.0882890
  H        3.1038510     2.7463240     0.1779830
  H       -0.3107400    -1.7892010    -0.5436980
  H        2.9100300    -3.5650720     0.1192120
  H       -2.7034680    -2.5490840    -0.1532500
  H       -5.0287110    -1.6377420    -0.0567190
  H       -5.2994710    -0.0137980     0.3861010
units angstrom
no_reorient  #important for SAPT in psi4, default
symmetry c1  #important for SAPT in psi4, default
}

set PROPERTIES_ORIGIN ["COM"]
properties('MP2/aug-cc-pvtz', properties = ['dipole'])
--------------------------------------------------------------------------

    Molecular point group: c1
  Charge       = 0
  Multiplicity = 1
  Basis Set: AUG-CC-PVTZ
    Blend: AUG-CC-PVTZ
  Basis Set: (AUG-CC-PVTZ AUX)
    Blend: AUG-CC-PVTZ-JKFIT

    Orbital Energies [Eh]
    ---------------------

    Doubly Occupied:

       1A    -20.577099     2A    -20.574095     3A    -20.572584
       4A    -20.504082     5A    -15.623624     6A    -15.589146
       7A    -15.541869     8A    -11.371170     9A    -11.346031
      10A    -11.333207    11A    -11.319563    12A    -11.301433
      13A    -11.296807    14A    -11.289915    15A    -11.239311
      16A    -11.238091    17A     -1.406566    18A     -1.382950
      19A     -1.373012    20A     -1.361528    21A     -1.293298
      22A     -1.262769    23A     -1.170155    24A     -1.081264
      25A     -1.067130    26A     -1.026258    27A     -0.927159
      28A     -0.897918    29A     -0.869382    30A     -0.829839
      31A     -0.805384    32A     -0.755161    33A     -0.737182
      34A     -0.719125    35A     -0.707133    36A     -0.690990
      37A     -0.689407    38A     -0.673520    39A     -0.654176
      40A     -0.637208    41A     -0.628208    42A     -0.618840
      43A     -0.605780    44A     -0.594652    45A     -0.588218
      46A     -0.572455    47A     -0.558715    48A     -0.546130
      49A     -0.533420    50A     -0.524018    51A     -0.511004
      52A     -0.486197    53A     -0.483251    54A     -0.468207
      55A     -0.460164    56A     -0.445207    57A     -0.438191
      58A     -0.417355    59A     -0.384745    60A     -0.336076

  @DF-RHF Final Energy:  -811.47446823899122

   => Energetics <=

    Nuclear Repulsion Energy =           1168.0909828878725421
    One-Electron Energy =               -3431.2561540642609543
    Two-Electron Energy =                1451.6907029373971909
    Total Energy =                       -811.4744682389912214
  Basis Set: (AUG-CC-PVTZ AUX)
    Blend: AUG-CC-PVTZ-RI
    Molecular point group: c1

    Geometry (in Angstrom), charge = 0, multiplicity = 1:

       Center              X                  Y                   Z               Mass
    ------------   -----------------  -----------------  -----------------  -----------------
         O            1.395349363681    -0.377952425857    -0.993560215725    15.994914619570
         O            3.199735763681     1.901052474143    -0.294650515725    15.994914619570
         O            2.797085763681    -2.749107525857    -0.395338515725    15.994914619570
         O           -1.364507236319     2.373844474143     0.159645484275    15.994914619570
         N           -0.800565236319     0.199257474143    -0.224393515725    14.003074004430
         N           -3.056493236319     0.805078474143     0.244874484275    14.003074004430
         N           -4.675731236319    -0.812595525857     0.417499484275    14.003074004430
         C            2.699273763681     0.875393474143     0.564336484275    12.000000000000
         C            1.234522763681     1.107065474143     0.892714484275    12.000000000000
         C            2.649497763681    -0.392451525857    -0.280607515725    12.000000000000
         C            0.571636763681     0.682843474143    -0.410053515725    12.000000000000
         C            2.799776763681    -1.660176525857     0.527332484275    12.000000000000
         C           -1.129658236319    -1.115979525857    -0.303413515725    12.000000000000
         C           -1.747009236319     1.203731474143     0.086907484275    12.000000000000
         C           -2.419628236319    -1.504721525857    -0.099679515725    12.000000000000
         C           -3.364313236319    -0.473320525857     0.173373484275    12.000000000000
         H            3.332059763681     0.756624474143     1.455715484275     1.007825032230
         H            0.902385763681     0.443668474143     1.698351484275     1.007825032230
         H            0.983007763681     2.133906474143     1.163009484275     1.007825032230
         H            0.525132763681     1.513093474143    -1.120050515725     1.007825032230
         H            3.373213863681    -0.363499725857    -1.100754515725     1.007825032230
         H            1.968427763681    -1.733344525857     1.248085484275     1.007825032230
         H            3.743767763681    -1.609675525857     1.093151484275     1.007825032230
         H            3.101529763681     2.746163474143     0.182845484275     1.007825032230
         H           -0.313061236319    -1.789361525857    -0.538835515725     1.007825032230
         H            2.907708763681    -3.565232525857     0.124074484275     1.007825032230
         H           -2.705789236319    -2.549244525857    -0.148387515725     1.007825032230
         H           -5.031032236319    -1.637902525857    -0.051856515725     1.007825032230
         H           -5.301792236319    -0.013958525857     0.390963484275     1.007825032230

  Basis Set: AUG-CC-PVTZ
    Blend: AUG-CC-PVTZ
  Basis Set: (AUG-CC-PVTZ AUX)
    Blend: AUG-CC-PVTZ-JKFIT
	 Reference Energy          =    -811.4744682389912214 [Eh]
	 Singles Energy            =      -0.0000000000000000 [Eh]
	 Same-Spin Energy          =      -0.8299609951125692 [Eh]
	 Opposite-Spin Energy      =      -2.5266501297272148 [Eh]
	 Correlation Energy        =      -3.3566111248397839 [Eh]
	 Total Energy              =    -814.8310793638310088 [Eh]

	 ================> DF-SCS-MP2 Energies <==================
	-----------------------------------------------------------
	 SCS Same-Spin Scale       =       0.3333333333333333 [-]
	 SCS Opposite-Spin Scale   =       1.2000000000000000 [-]
	 SCS Same-Spin Energy      =      -0.2766536650375230 [Eh]
	 SCS Opposite-Spin Energy  =      -3.0319801556726578 [Eh]
	 SCS Correlation Energy    =      -3.3086338207101806 [Eh]
	 SCS Total Energy          =    -814.7831020597013776 [Eh]
	-----------------------------------------------------------

  Dipole Moment: [D]
     X:     0.9079      Y:    -4.6351      Z:     2.6086     Total:     5.3957

*** Psi4 exiting successfully. Buy a developer a beer!
