                               Psi4 1.3.2 release

  ==> Input File <==

--------------------------------------------------------------------------
#psi4
#
memory 32 gb

molecule  {
0 1
  O        1.3620710    -0.3800110    -0.9318440
  O        3.2020570     1.9012130    -0.2995130
  O        2.7994070    -2.7489470    -0.4002010
  O       -1.3621860     2.3740050     0.1547830
  N       -0.7982440     0.1994180    -0.2292560
  N       -3.0541720     0.8052390     0.2400120
  N       -4.6734100    -0.8124350     0.4126370
  C        2.7015950     0.8755540     0.5594740
  C        1.2368440     1.1072260     0.8878520
  C        2.6518190    -0.3922910    -0.2854700
  C        0.6849065     0.5333555    -0.4876878
  C        2.8020980    -1.6600160     0.5224700
  C       -1.1273370    -1.1158190    -0.3082760
  C       -1.7446880     1.2038920     0.0820450
  C       -2.4173070    -1.5045610    -0.1045420
  C       -3.3619920    -0.4731600     0.1685110
  H        3.3343810     0.7567850     1.4508530
  H        0.9047070     0.4438290     1.6934890
  H        0.9853290     2.1340670     1.1581470
  H        0.5274540     1.5132540    -1.1249130
  H        3.4174920    -0.3642830    -1.0666260
  H        1.9707490    -1.7331840     1.2432230
  H        3.7460890    -1.6095150     1.0882890
  H        3.1038510     2.7463240     0.1779830
  H       -0.3107400    -1.7892010    -0.5436980
  H        2.9100300    -3.5650720     0.1192120
  H       -2.7034680    -2.5490840    -0.1532500
  H       -5.0287110    -1.6377420    -0.0567190
  H       -5.2994710    -0.0137980     0.3861010
units angstrom
no_reorient  #important for SAPT in psi4, default
symmetry c1  #important for SAPT in psi4, default
}

set PROPERTIES_ORIGIN ["COM"]
properties('MP2/aug-cc-pvtz', properties = ['dipole'])
--------------------------------------------------------------------------

    Molecular point group: c1
  Charge       = 0
  Multiplicity = 1
  Basis Set: AUG-CC-PVTZ
    Blend: AUG-CC-PVTZ
  Basis Set: (AUG-CC-PVTZ AUX)
    Blend: AUG-CC-PVTZ-JKFIT

    Orbital Energies [Eh]
    ---------------------

    Doubly Occupied:

       1A    -20.598049     2A    -20.586062     3A    -20.576530
       4A    -20.494348     5A    -15.609932     6A    -15.583165
       7A    -15.535651     8A    -11.363619     9A    -11.338649
      10A    -11.337313    11A    -11.310922    12A    -11.310249
      13A    -11.307347    14A    -11.304055    15A    -11.235797
      16A    -11.229917    17A     -1.505335    18A     -1.382357
      19A     -1.377180    20A     -1.371374    21A     -1.284833
      22A     -1.250215    23A     -1.161484    24A     -1.092528
      25A     -1.061652    26A     -1.026688    27A     -0.925609
      28A     -0.892257    29A     -0.864224    30A     -0.845756
      31A     -0.809304    32A     -0.752762    33A     -0.748648
      34A     -0.730823    35A     -0.709681    36A     -0.706765
      37A     -0.695268    38A     -0.681090    39A     -0.659974
      40A     -0.639370    41A     -0.624201    42A     -0.623015
      43A     -0.608264    44A     -0.601073    45A     -0.591090
      46A     -0.587165    47A     -0.572397    48A     -0.548750
      49A     -0.527198    50A     -0.518215    51A     -0.507633
      52A     -0.496728    53A     -0.478300    54A     -0.476058
      55A     -0.460671    56A     -0.435863    57A     -0.419947
      58A     -0.407237    59A     -0.373505    60A     -0.324440

  @DF-RHF Final Energy:  -811.43522483316804

   => Energetics <=

    Nuclear Repulsion Energy =           1171.4467837370993948
    One-Electron Energy =               -3437.6069521466524748
    Two-Electron Energy =                1454.7249435763851579
    Total Energy =                       -811.4352248331679220
  Basis Set: (AUG-CC-PVTZ AUX)
    Blend: AUG-CC-PVTZ-RI
    Molecular point group: c1

    Geometry (in Angstrom), charge = 0, multiplicity = 1:

       Center              X                  Y                   Z               Mass
    ------------   -----------------  -----------------  -----------------  -----------------
         O            1.356208205242    -0.372103259480    -0.927998533258    15.994914619570
         O            3.196194205242     1.909120740520    -0.295667533258    15.994914619570
         O            2.793544205242    -2.741039259480    -0.396355533258    15.994914619570
         O           -1.368048794758     2.381912740520     0.158628466742    15.994914619570
         N           -0.804106794758     0.207325740520    -0.225410533258    14.003074004430
         N           -3.060034794758     0.813146740520     0.243857466742    14.003074004430
         N           -4.679272794758    -0.804527259480     0.416482466742    14.003074004430
         C            2.695732205242     0.883461740520     0.563319466742    12.000000000000
         C            1.230981205242     1.115133740520     0.891697466742    12.000000000000
         C            2.645956205242    -0.384383259480    -0.281624533258    12.000000000000
         C            0.679043705242     0.541263240520    -0.483842333258    12.000000000000
         C            2.796235205242    -1.652108259480     0.526315466742    12.000000000000
         C           -1.133199794758    -1.107911259480    -0.304430533258    12.000000000000
         C           -1.750550794758     1.211799740520     0.085890466742    12.000000000000
         C           -2.423169794758    -1.496653259480    -0.100696533258    12.000000000000
         C           -3.367854794758    -0.465252259480     0.172356466742    12.000000000000
         H            3.328518205242     0.764692740520     1.454698466742     1.007825032230
         H            0.898844205242     0.451736740520     1.697334466742     1.007825032230
         H            0.979466205242     2.141974740520     1.161992466742     1.007825032230
         H            0.521591205242     1.521161740520    -1.121067533258     1.007825032230
         H            3.411629205242    -0.356375259480    -1.062780533258     1.007825032230
         H            1.964886205242    -1.725276259480     1.247068466742     1.007825032230
         H            3.740226205242    -1.601607259480     1.092134466742     1.007825032230
         H            3.097988205242     2.754231740520     0.181828466742     1.007825032230
         H           -0.316602794758    -1.781293259480    -0.539852533258     1.007825032230
         H            2.904167205242    -3.557164259480     0.123057466742     1.007825032230
         H           -2.709330794758    -2.541176259480    -0.149404533258     1.007825032230
         H           -5.034573794758    -1.629834259480    -0.052873533258     1.007825032230
         H           -5.305333794758    -0.005890259480     0.389946466742     1.007825032230

  Basis Set: AUG-CC-PVTZ
    Blend: AUG-CC-PVTZ
  Basis Set: (AUG-CC-PVTZ AUX)
    Blend: AUG-CC-PVTZ-JKFIT
	 Reference Energy          =    -811.4352248331680357 [Eh]
	 Singles Energy            =      -0.0000000000000000 [Eh]
	 Same-Spin Energy          =      -0.8313932594069638 [Eh]
	 Opposite-Spin Energy      =      -2.5257354252692639 [Eh]
	 Correlation Energy        =      -3.3571286846762276 [Eh]
	 Total Energy              =    -814.7923535178442762 [Eh]

	 ================> DF-SCS-MP2 Energies <==================
	-----------------------------------------------------------
	 SCS Same-Spin Scale       =       0.3333333333333333 [-]
	 SCS Opposite-Spin Scale   =       1.2000000000000000 [-]
	 SCS Same-Spin Energy      =      -0.2771310864689879 [Eh]
	 SCS Opposite-Spin Energy  =      -3.0308825103231167 [Eh]
	 SCS Correlation Energy    =      -3.3080135967921045 [Eh]
	 SCS Total Energy          =    -814.7432384299601154 [Eh]
	-----------------------------------------------------------

  Dipole Moment: [D]
     X:     2.2229      Y:    -5.2016      Z:     2.3284     Total:     6.1172

*** Psi4 exiting successfully. Buy a developer a beer!
