                               Psi4 1.3.2 release

  ==> Input File <==

--------------------------------------------------------------------------
#psi4
#
memory 32 gb

molecule  {
0 1
  O        1.3620710    -0.3800110    -0.9318440
  O        3.2020570     1.9012130    -0.2995130
  O        2.7994070    -2.7489470    -0.4002010
  O       -1.3621860     2.3740050     0.1547830
  N       -0.7960961     0.2036579    -0.2041024
  N       -3.0541720     0.8052390     0.2400120
  N       -4.6734100    -0.8124350     0.4126370
  C        2.7015950     0.8755540     0.5594740
  C        1.2146569     1.1007911     0.9009660
  C        2.6518190    -0.3922910    -0.2854700
  C        0.5739580     0.6830040    -0.4149160
  C        2.8020980    -1.6600160     0.5224700
  C       -1.1273370    -1.1158190    -0.3082760
  C       -1.7446880     1.2038920     0.0820450
  C       -2.4173070    -1.5045610    -0.1045420
  C       -3.3619920    -0.4731600     0.1685110
  H        3.3343810     0.7567850     1.4508530
  H        0.9047070     0.4438290     1.6934890
  H        0.9853290     2.1340670     1.1581470
  H        0.5274540     1.5132540    -1.1249130
  H        3.4174920    -0.3642830    -1.0666260
  H        1.9707490    -1.7331840     1.2432230
  H        3.7460890    -1.6095150     1.0882890
  H        3.1038510     2.7463240     0.1779830
  H       -0.3107400    -1.7892010    -0.5436980
  H        2.9100300    -3.5650720     0.1192120
  H       -2.7034680    -2.5490840    -0.1532500
  H       -5.0287110    -1.6377420    -0.0567190
  H       -5.2994710    -0.0137980     0.3861010
units angstrom
no_reorient  #important for SAPT in psi4, default
symmetry c1  #important for SAPT in psi4, default
}

set PROPERTIES_ORIGIN ["COM"]
properties('MP2/aug-cc-pvtz', properties = ['dipole'])
--------------------------------------------------------------------------

    Molecular point group: c1
  Charge       = 0
  Multiplicity = 1
  Basis Set: AUG-CC-PVTZ
    Blend: AUG-CC-PVTZ
  Basis Set: (AUG-CC-PVTZ AUX)
    Blend: AUG-CC-PVTZ-JKFIT

    Orbital Energies [Eh]
    ---------------------

    Doubly Occupied:

       1A    -20.577787     2A    -20.574660     3A    -20.573267
       4A    -20.501612     5A    -15.621034     6A    -15.588406
       7A    -15.540682     8A    -11.368649     9A    -11.345034
      10A    -11.330680    11A    -11.318744    12A    -11.301332
      13A    -11.296874    14A    -11.292946    15A    -11.237710
      16A    -11.235380    17A     -1.416344    18A     -1.382269
      19A     -1.373403    20A     -1.365554    21A     -1.291591
      22A     -1.260768    23A     -1.168992    24A     -1.077824
      25A     -1.067762    26A     -1.027771    27A     -0.925787
      28A     -0.897863    29A     -0.869076    30A     -0.831402
      31A     -0.805597    32A     -0.754555    33A     -0.737780
      34A     -0.720643    35A     -0.706601    36A     -0.692917
      37A     -0.689507    38A     -0.676100    39A     -0.656497
      40A     -0.636451    41A     -0.628227    42A     -0.618318
      43A     -0.605108    44A     -0.595422    45A     -0.588403
      46A     -0.570664    47A     -0.568157    48A     -0.546108
      49A     -0.534016    50A     -0.523991    51A     -0.512313
      52A     -0.484693    53A     -0.480491    54A     -0.468439
      55A     -0.458900    56A     -0.443540    57A     -0.438126
      58A     -0.416013    59A     -0.383446    60A     -0.335211

  @DF-RHF Final Energy:  -811.47864554224952

   => Energetics <=

    Nuclear Repulsion Energy =           1169.8832852166233351
    One-Electron Energy =               -3434.8489851234676280
    Two-Electron Energy =                1453.4870543645947691
    Total Energy =                       -811.4786455422495237
  Basis Set: (AUG-CC-PVTZ AUX)
    Blend: AUG-CC-PVTZ-RI
    Molecular point group: c1

    Geometry (in Angstrom), charge = 0, multiplicity = 1:

       Center              X                  Y                   Z               Mass
    ------------   -----------------  -----------------  -----------------  -----------------
         O            1.363110956640    -0.379932446541    -0.934087985161    15.994914619570
         O            3.203096956640     1.901291553459    -0.301756985161    15.994914619570
         O            2.800446956640    -2.748868446541    -0.402444985161    15.994914619570
         O           -1.361146043360     2.374083553459     0.152539014839    15.994914619570
         N           -0.795056143360     0.203736453459    -0.206346385161    14.003074004430
         N           -3.053132043360     0.805317553459     0.237768014839    14.003074004430
         N           -4.672370043360    -0.812356446541     0.410393014839    14.003074004430
         C            2.702634956640     0.875632553459     0.557230014839    12.000000000000
         C            1.215696856640     1.100869653459     0.898722014839    12.000000000000
         C            2.652858956640    -0.392212446541    -0.287713985161    12.000000000000
         C            0.574997956640     0.683082553459    -0.417159985161    12.000000000000
         C            2.803137956640    -1.659937446541     0.520226014839    12.000000000000
         C           -1.126297043360    -1.115740446541    -0.310519985161    12.000000000000
         C           -1.743648043360     1.203970553459     0.079801014839    12.000000000000
         C           -2.416267043360    -1.504482446541    -0.106785985161    12.000000000000
         C           -3.360952043360    -0.473081446541     0.166267014839    12.000000000000
         H            3.335420956640     0.756863553459     1.448609014839     1.007825032230
         H            0.905746956640     0.443907553459     1.691245014839     1.007825032230
         H            0.986368956640     2.134145553459     1.155903014839     1.007825032230
         H            0.528493956640     1.513332553459    -1.127156985161     1.007825032230
         H            3.418531956640    -0.364204446541    -1.068869985161     1.007825032230
         H            1.971788956640    -1.733105446541     1.240979014839     1.007825032230
         H            3.747128956640    -1.609436446541     1.086045014839     1.007825032230
         H            3.104890956640     2.746402553459     0.175739014839     1.007825032230
         H           -0.309700043360    -1.789122446541    -0.545941985161     1.007825032230
         H            2.911069956640    -3.564993446541     0.116968014839     1.007825032230
         H           -2.702428043360    -2.549005446541    -0.155493985161     1.007825032230
         H           -5.027671043360    -1.637663446541    -0.058962985161     1.007825032230
         H           -5.298431043360    -0.013719446541     0.383857014839     1.007825032230

  Basis Set: AUG-CC-PVTZ
    Blend: AUG-CC-PVTZ
  Basis Set: (AUG-CC-PVTZ AUX)
    Blend: AUG-CC-PVTZ-JKFIT
	 Reference Energy          =    -811.4786455422495237 [Eh]
	 Singles Energy            =      -0.0000000000000000 [Eh]
	 Same-Spin Energy          =      -0.8295782099325355 [Eh]
	 Opposite-Spin Energy      =      -2.5252253803770017 [Eh]
	 Correlation Energy        =      -3.3548035903095372 [Eh]
	 Total Energy              =    -814.8334491325590534 [Eh]

	 ================> DF-SCS-MP2 Energies <==================
	-----------------------------------------------------------
	 SCS Same-Spin Scale       =       0.3333333333333333 [-]
	 SCS Opposite-Spin Scale   =       1.2000000000000000 [-]
	 SCS Same-Spin Energy      =      -0.2765260699775118 [Eh]
	 SCS Opposite-Spin Energy  =      -3.0302704564524019 [Eh]
	 SCS Correlation Energy    =      -3.3067965264299137 [Eh]
	 SCS Total Energy          =    -814.7854420686794583 [Eh]
	-----------------------------------------------------------

  Dipole Moment: [D]
     X:     1.0864      Y:    -4.7095      Z:     2.4744     Total:     5.4298

*** Psi4 exiting successfully. Buy a developer a beer!
