                               Psi4 1.3.2 release

  ==> Input File <==

--------------------------------------------------------------------------
#psi4
#
memory 32 gb

molecule  {
0 1
  O        1.3620710    -0.3800110    -0.9318440
  O        3.2020570     1.9012130    -0.2995130
  O        2.7994070    -2.7489470    -0.4002010
  O       -1.3021445     2.3533202     0.1431439
  N       -0.7982440     0.1994180    -0.2292560
  N       -3.0328027     0.7372194     0.2290258
  N       -4.6734100    -0.8124350     0.4126370
  C        2.7015950     0.8755540     0.5594740
  C        1.2368440     1.1072260     0.8878520
  C        2.6518190    -0.3922910    -0.2854700
  C        0.5739580     0.6830040    -0.4149160
  C        2.8020980    -1.6600160     0.5224700
  C       -1.1273370    -1.1158190    -0.3082760
  C       -1.7446880     1.2038920     0.0820450
  C       -2.4173070    -1.5045610    -0.1045420
  C       -3.3619920    -0.4731600     0.1685110
  H        3.3343810     0.7567850     1.4508530
  H        0.9047070     0.4438290     1.6934890
  H        0.9853290     2.1340670     1.1581470
  H        0.5274540     1.5132540    -1.1249130
  H        3.4174920    -0.3642830    -1.0666260
  H        1.9707490    -1.7331840     1.2432230
  H        3.7460890    -1.6095150     1.0882890
  H        3.1038510     2.7463240     0.1779830
  H       -0.3107400    -1.7892010    -0.5436980
  H        2.9100300    -3.5650720     0.1192120
  H       -2.7034680    -2.5490840    -0.1532500
  H       -5.0287110    -1.6377420    -0.0567190
  H       -5.2994710    -0.0137980     0.3861010
units angstrom
no_reorient  #important for SAPT in psi4, default
symmetry c1  #important for SAPT in psi4, default
}

set PROPERTIES_ORIGIN ["COM"]
properties('MP2/aug-cc-pvtz', properties = ['dipole'])
--------------------------------------------------------------------------

    Molecular point group: c1
  Charge       = 0
  Multiplicity = 1
  Basis Set: AUG-CC-PVTZ
    Blend: AUG-CC-PVTZ
  Basis Set: (AUG-CC-PVTZ AUX)
    Blend: AUG-CC-PVTZ-JKFIT

    Orbital Energies [Eh]
    ---------------------

    Doubly Occupied:

       1A    -20.576586     2A    -20.573498     3A    -20.570845
       4A    -20.511119     5A    -15.617434     6A    -15.584256
       7A    -15.537200     8A    -11.377843     9A    -11.337137
      10A    -11.328301    11A    -11.312983    12A    -11.299693
      13A    -11.295649    14A    -11.291709    15A    -11.235511
      16A    -11.232597    17A     -1.415882    18A     -1.387587
      19A     -1.372505    20A     -1.365245    21A     -1.303234
      22A     -1.260742    23A     -1.177875    24A     -1.076873
      25A     -1.066495    26A     -1.026936    27A     -0.927447
      28A     -0.894797    29A     -0.876948    30A     -0.830582
      31A     -0.804775    32A     -0.754943    33A     -0.737019
      34A     -0.720184    35A     -0.708663    36A     -0.691774
      37A     -0.689075    38A     -0.676013    39A     -0.656409
      40A     -0.635662    41A     -0.630494    42A     -0.619876
      43A     -0.606532    44A     -0.595198    45A     -0.590865
      46A     -0.572287    47A     -0.568091    48A     -0.544314
      49A     -0.534431    50A     -0.522568    51A     -0.509973
      52A     -0.484738    53A     -0.481865    54A     -0.467321
      55A     -0.460653    56A     -0.449204    57A     -0.436458
      58A     -0.410882    59A     -0.391330    60A     -0.333479

  @DF-RHF Final Energy:  -811.47472835739882

   => Energetics <=

    Nuclear Repulsion Energy =           1172.7116056254574232
    One-Electron Energy =               -3440.4714985997729855
    Two-Electron Energy =                1456.2851646169165178
    Total Energy =                       -811.4747283573988170
  Basis Set: (AUG-CC-PVTZ AUX)
    Blend: AUG-CC-PVTZ-RI
    Molecular point group: c1

    Geometry (in Angstrom), charge = 0, multiplicity = 1:

       Center              X                  Y                   Z               Mass
    ------------   -----------------  -----------------  -----------------  -----------------
         O            1.356524323315    -0.374359834099    -0.930346735270    15.994914619570
         O            3.196510323315     1.906864165901    -0.298015735270    15.994914619570
         O            2.793860323315    -2.743295834099    -0.398703735270    15.994914619570
         O           -1.307691176685     2.358971365901     0.144641164730    15.994914619570
         N           -0.803790676685     0.205069165901    -0.227758735270    14.003074004430
         N           -3.038349376685     0.742870565901     0.230523064730    14.003074004430
         N           -4.678956676685    -0.806783834099     0.414134264730    14.003074004430
         C            2.696048323315     0.881205165901     0.560971264730    12.000000000000
         C            1.231297323315     1.112877165901     0.889349264730    12.000000000000
         C            2.646272323315    -0.386639834099    -0.283972735270    12.000000000000
         C            0.568411323315     0.688655165901    -0.413418735270    12.000000000000
         C            2.796551323315    -1.654364834099     0.523967264730    12.000000000000
         C           -1.132883676685    -1.110167834099    -0.306778735270    12.000000000000
         C           -1.750234676685     1.209543165901     0.083542264730    12.000000000000
         C           -2.422853676685    -1.498909834099    -0.103044735270    12.000000000000
         C           -3.367538676685    -0.467508834099     0.170008264730    12.000000000000
         H            3.328834323315     0.762436165901     1.452350264730     1.007825032230
         H            0.899160323315     0.449480165901     1.694986264730     1.007825032230
         H            0.979782323315     2.139718165901     1.159644264730     1.007825032230
         H            0.521907323315     1.518905165901    -1.123415735270     1.007825032230
         H            3.411945323315    -0.358631834099    -1.065128735270     1.007825032230
         H            1.965202323315    -1.727532834099     1.244720264730     1.007825032230
         H            3.740542323315    -1.603863834099     1.089786264730     1.007825032230
         H            3.098304323315     2.751975165901     0.179480264730     1.007825032230
         H           -0.316286676685    -1.783549834099    -0.542200735270     1.007825032230
         H            2.904483323315    -3.559420834099     0.120709264730     1.007825032230
         H           -2.709014676685    -2.543432834099    -0.151752735270     1.007825032230
         H           -5.034257676685    -1.632090834099    -0.055221735270     1.007825032230
         H           -5.305017676685    -0.008146834099     0.387598264730     1.007825032230

  Basis Set: AUG-CC-PVTZ
    Blend: AUG-CC-PVTZ
  Basis Set: (AUG-CC-PVTZ AUX)
    Blend: AUG-CC-PVTZ-JKFIT
	 Reference Energy          =    -811.4747283573988170 [Eh]
	 Singles Energy            =      -0.0000000000000000 [Eh]
	 Same-Spin Energy          =      -0.8297294042526014 [Eh]
	 Opposite-Spin Energy      =      -2.5244471573172254 [Eh]
	 Correlation Energy        =      -3.3541765615698269 [Eh]
	 Total Energy              =    -814.8289049189686466 [Eh]

	 ================> DF-SCS-MP2 Energies <==================
	-----------------------------------------------------------
	 SCS Same-Spin Scale       =       0.3333333333333333 [-]
	 SCS Opposite-Spin Scale   =       1.2000000000000000 [-]
	 SCS Same-Spin Energy      =      -0.2765764680842004 [Eh]
	 SCS Opposite-Spin Energy  =      -3.0293365887806702 [Eh]
	 SCS Correlation Energy    =      -3.3059130568648705 [Eh]
	 SCS Total Energy          =    -814.7806414142636413 [Eh]
	-----------------------------------------------------------

  Dipole Moment: [D]
     X:     0.9582      Y:    -4.3310      Z:     2.5260     Total:     5.1045

*** Psi4 exiting successfully. Buy a developer a beer!
