                               Psi4 1.3.2 release

  ==> Input File <==

--------------------------------------------------------------------------
#psi4
#
memory 32 gb

molecule  {
0 1
  O        1.3620710    -0.3800110    -0.9318440
  O        3.2020570     1.9012130    -0.2995130
  O        2.7994070    -2.7489470    -0.4002010
  O       -1.3621860     2.3740050     0.1547830
  N       -0.7982440     0.1994180    -0.2292560
  N       -3.0541720     0.8052390     0.2400120
  N       -4.6734100    -0.8124350     0.4126370
  C        2.7015950     0.8755540     0.5594740
  C        1.2368440     1.1072260     0.8878520
  C        2.6518190    -0.3922910    -0.2854700
  C        0.5739580     0.6830040    -0.4149160
  C        2.8020980    -1.6600160     0.5224700
  C       -1.1479874    -1.0483459    -0.2977930
  C       -1.7446880     1.2038920     0.0820450
  C       -2.4173070    -1.5045610    -0.1045420
  C       -3.3619920    -0.4731600     0.1685110
  H        3.3343810     0.7567850     1.4508530
  H        0.9047070     0.4438290     1.6934890
  H        0.9853290     2.1340670     1.1581470
  H        0.5274540     1.5132540    -1.1249130
  H        3.4174920    -0.3642830    -1.0666260
  H        1.9707490    -1.7331840     1.2432230
  H        3.7460890    -1.6095150     1.0882890
  H        3.1038510     2.7463240     0.1779830
  H       -0.3107400    -1.7892010    -0.5436980
  H        2.9100300    -3.5650720     0.1192120
  H       -2.7568028    -2.5334678    -0.1417212
  H       -5.0287110    -1.6377420    -0.0567190
  H       -5.2994710    -0.0137980     0.3861010
units angstrom
no_reorient  #important for SAPT in psi4, default
symmetry c1  #important for SAPT in psi4, default
}

set PROPERTIES_ORIGIN ["COM"]
properties('MP2/aug-cc-pvtz', properties = ['dipole'])
--------------------------------------------------------------------------

    Molecular point group: c1
  Charge       = 0
  Multiplicity = 1
  Basis Set: AUG-CC-PVTZ
    Blend: AUG-CC-PVTZ
  Basis Set: (AUG-CC-PVTZ AUX)
    Blend: AUG-CC-PVTZ-JKFIT

    Orbital Energies [Eh]
    ---------------------

    Doubly Occupied:

       1A    -20.578033     2A    -20.576075     3A    -20.574940
       4A    -20.504692     5A    -15.626775     6A    -15.585344
       7A    -15.538192     8A    -11.370804     9A    -11.339968
      10A    -11.335496    11A    -11.316953    12A    -11.302843
      13A    -11.297560    14A    -11.294555    15A    -11.239895
      16A    -11.231152    17A     -1.420650    18A     -1.387152
      19A     -1.374463    20A     -1.367115    21A     -1.300247
      22A     -1.268767    23A     -1.168550    24A     -1.080520
      25A     -1.068958    26A     -1.029907    27A     -0.930699
      28A     -0.898677    29A     -0.870787    30A     -0.833391
      31A     -0.807217    32A     -0.756964    33A     -0.743219
      34A     -0.722718    35A     -0.703064    36A     -0.693501
      37A     -0.690803    38A     -0.673984    39A     -0.657030
      40A     -0.638447    41A     -0.633012    42A     -0.618200
      43A     -0.604127    44A     -0.594240    45A     -0.582117
      46A     -0.572550    47A     -0.570209    48A     -0.545704
      49A     -0.533105    50A     -0.526761    51A     -0.511485
      52A     -0.489301    53A     -0.486735    54A     -0.469557
      55A     -0.463370    56A     -0.445217    57A     -0.438273
      58A     -0.414701    59A     -0.383935    60A     -0.331617

  @DF-RHF Final Energy:  -811.47353475924854

   => Energetics <=

    Nuclear Repulsion Energy =           1171.3598695374380441
    One-Electron Energy =               -3437.6381633273967964
    Two-Electron Energy =                1454.8047590307101018
    Total Energy =                       -811.4735347592486505
  Basis Set: (AUG-CC-PVTZ AUX)
    Blend: AUG-CC-PVTZ-RI
    Molecular point group: c1

    Geometry (in Angstrom), charge = 0, multiplicity = 1:

       Center              X                  Y                   Z               Mass
    ------------   -----------------  -----------------  -----------------  -----------------
         O            1.363398898754    -0.383645778321    -0.932449076728    15.994914619570
         O            3.203384898754     1.897578221679    -0.300118076728    15.994914619570
         O            2.800734898754    -2.752581778321    -0.400806076728    15.994914619570
         O           -1.360858101246     2.370370221679     0.154177923272    15.994914619570
         N           -0.796916101246     0.195783221679    -0.229861076728    14.003074004430
         N           -3.052844101246     0.801604221679     0.239406923272    14.003074004430
         N           -4.672082101246    -0.816069778321     0.412031923272    14.003074004430
         C            2.702922898754     0.871919221679     0.558868923272    12.000000000000
         C            1.238171898754     1.103591221679     0.887246923272    12.000000000000
         C            2.653146898754    -0.395925778321    -0.286075076728    12.000000000000
         C            0.575285898754     0.679369221679    -0.415521076728    12.000000000000
         C            2.803425898754    -1.663650778321     0.521864923272    12.000000000000
         C           -1.146659501246    -1.051980678321    -0.298398076728    12.000000000000
         C           -1.743360101246     1.200257221679     0.081439923272    12.000000000000
         C           -2.415979101246    -1.508195778321    -0.105147076728    12.000000000000
         C           -3.360664101246    -0.476794778321     0.167905923272    12.000000000000
         H            3.335708898754     0.753150221679     1.450247923272     1.007825032230
         H            0.906034898754     0.440194221679     1.692883923272     1.007825032230
         H            0.986656898754     2.130432221679     1.157541923272     1.007825032230
         H            0.528781898754     1.509619221679    -1.125518076728     1.007825032230
         H            3.418819898754    -0.367917778321    -1.067231076728     1.007825032230
         H            1.972076898754    -1.736818778321     1.242617923272     1.007825032230
         H            3.747416898754    -1.613149778321     1.087683923272     1.007825032230
         H            3.105178898754     2.742689221679     0.177377923272     1.007825032230
         H           -0.309412101246    -1.792835778321    -0.544303076728     1.007825032230
         H            2.911357898754    -3.568706778321     0.118606923272     1.007825032230
         H           -2.755474901246    -2.537102578321    -0.142326276728     1.007825032230
         H           -5.027383101246    -1.641376778321    -0.057324076728     1.007825032230
         H           -5.298143101246    -0.017432778321     0.385495923272     1.007825032230

  Basis Set: AUG-CC-PVTZ
    Blend: AUG-CC-PVTZ
  Basis Set: (AUG-CC-PVTZ AUX)
    Blend: AUG-CC-PVTZ-JKFIT
	 Reference Energy          =    -811.4735347592485368 [Eh]
	 Singles Energy            =      -0.0000000000000000 [Eh]
	 Same-Spin Energy          =      -0.8299084013043084 [Eh]
	 Opposite-Spin Energy      =      -2.5245507456391012 [Eh]
	 Correlation Energy        =      -3.3544591469434097 [Eh]
	 Total Energy              =    -814.8279939061919777 [Eh]

	 ================> DF-SCS-MP2 Energies <==================
	-----------------------------------------------------------
	 SCS Same-Spin Scale       =       0.3333333333333333 [-]
	 SCS Opposite-Spin Scale   =       1.2000000000000000 [-]
	 SCS Same-Spin Energy      =      -0.2766361337681028 [Eh]
	 SCS Opposite-Spin Energy  =      -3.0294608947669213 [Eh]
	 SCS Correlation Energy    =      -3.3060970285350240 [Eh]
	 SCS Total Energy          =    -814.7796317877836145 [Eh]
	-----------------------------------------------------------

  Dipole Moment: [D]
     X:     1.3075      Y:    -4.5214      Z:     2.4862     Total:     5.3230

*** Psi4 exiting successfully. Buy a developer a beer!
