                               Psi4 1.3.2 release

  ==> Input File <==

--------------------------------------------------------------------------
#psi4
#
memory 32 gb

molecule  {
0 1
  O        1.3620710    -0.3800110    -0.9318440
  O        3.2020570     1.9012130    -0.2995130
  O        2.7994070    -2.7489470    -0.4002010
  O       -1.3621860     2.3740050     0.1547830
  N       -0.7982440     0.1994180    -0.2292560
  N       -3.0541720     0.8052390     0.2400120
  N       -4.6734100    -0.8124350     0.4126370
  C        2.7015950     0.8755540     0.5594740
  C        1.2368440     1.1072260     0.8878520
  C        2.6518190    -0.3922910    -0.2854700
  C        0.5739580     0.6830040    -0.4149160
  C        2.8020980    -1.6600160     0.5224700
  C       -1.1273370    -1.1158190    -0.3082760
  C       -1.7446880     1.2038920     0.0820450
  C       -2.4173070    -1.5045610    -0.1045420
  C       -3.3152421    -0.2790041     0.1793702
  H        3.3343810     0.7567850     1.4508530
  H        0.9047070     0.4438290     1.6934890
  H        0.9853290     2.1340670     1.1581470
  H        0.5274540     1.5132540    -1.1249130
  H        3.4174920    -0.3642830    -1.0666260
  H        1.9707490    -1.7331840     1.2432230
  H        3.7460890    -1.6095150     1.0882890
  H        3.1038510     2.7463240     0.1779830
  H       -0.3107400    -1.7892010    -0.5436980
  H        2.9100300    -3.5650720     0.1192120
  H       -2.7034680    -2.5490840    -0.1532500
  H       -5.0287110    -1.6377420    -0.0567190
  H       -5.2994710    -0.0137980     0.3861010
units angstrom
no_reorient  #important for SAPT in psi4, default
symmetry c1  #important for SAPT in psi4, default
}

set PROPERTIES_ORIGIN ["COM"]
properties('MP2/aug-cc-pvtz', properties = ['dipole'])
--------------------------------------------------------------------------

    Molecular point group: c1
  Charge       = 0
  Multiplicity = 1
  Basis Set: AUG-CC-PVTZ
    Blend: AUG-CC-PVTZ
  Basis Set: (AUG-CC-PVTZ AUX)
    Blend: AUG-CC-PVTZ-JKFIT

    Orbital Energies [Eh]
    ---------------------

    Doubly Occupied:

       1A    -20.577125     2A    -20.576114     3A    -20.573705
       4A    -20.527249     5A    -15.620872     6A    -15.564516
       7A    -15.549775     8A    -11.393766     9A    -11.333433
      10A    -11.331379    11A    -11.302471    12A    -11.302166
      13A    -11.296729    14A    -11.293831    15A    -11.239266
      16A    -11.238462    17A     -1.422569    18A     -1.404067
      19A     -1.374017    20A     -1.368110    21A     -1.335775
      22A     -1.270412    23A     -1.166501    24A     -1.078729
      25A     -1.063311    26A     -1.020743    27A     -0.931887
      28A     -0.896670    29A     -0.877514    30A     -0.836461
      31A     -0.804390    32A     -0.745672    33A     -0.739323
      34A     -0.721603    35A     -0.700620    36A     -0.691532
      37A     -0.689895    38A     -0.671595    39A     -0.654909
      40A     -0.644114    41A     -0.641130    42A     -0.617178
      43A     -0.610816    44A     -0.599860    45A     -0.588146
      46A     -0.574704    47A     -0.566465    48A     -0.547445
      49A     -0.537169    50A     -0.525292    51A     -0.510356
      52A     -0.488181    53A     -0.486954    54A     -0.468703
      55A     -0.466254    56A     -0.457722    57A     -0.436988
      58A     -0.422046    59A     -0.402579    60A     -0.330947

  @DF-RHF Final Energy:  -811.41311657289680

   => Energetics <=

    Nuclear Repulsion Energy =           1172.2479698060858482
    One-Electron Energy =               -3439.1017440056716623
    Two-Electron Energy =                1455.4406576266892444
    Total Energy =                       -811.4131165728967972
  Basis Set: (AUG-CC-PVTZ AUX)
    Blend: AUG-CC-PVTZ-RI
    Molecular point group: c1

    Geometry (in Angstrom), charge = 0, multiplicity = 1:

       Center              X                  Y                   Z               Mass
    ------------   -----------------  -----------------  -----------------  -----------------
         O            1.359600609771    -0.390270689980    -0.932417791360    15.994914619570
         O            3.199586609771     1.890953310020    -0.300086791360    15.994914619570
         O            2.796936609771    -2.759206689980    -0.400774791360    15.994914619570
         O           -1.364656390229     2.363745310020     0.154209208640    15.994914619570
         N           -0.800714390229     0.189158310020    -0.229829791360    14.003074004430
         N           -3.056642390229     0.794979310020     0.239438208640    14.003074004430
         N           -4.675880390229    -0.822694689980     0.412063208640    14.003074004430
         C            2.699124609771     0.865294310020     0.558900208640    12.000000000000
         C            1.234373609771     1.096966310020     0.887278208640    12.000000000000
         C            2.649348609771    -0.402550689980    -0.286043791360    12.000000000000
         C            0.571487609771     0.672744310020    -0.415489791360    12.000000000000
         C            2.799627609771    -1.670275689980     0.521896208640    12.000000000000
         C           -1.129807390229    -1.126078689980    -0.308849791360    12.000000000000
         C           -1.747158390229     1.193632310020     0.081471208640    12.000000000000
         C           -2.419777390229    -1.514820689980    -0.105115791360    12.000000000000
         C           -3.317712490229    -0.289263789980     0.178796408640    12.000000000000
         H            3.331910609771     0.746525310020     1.450279208640     1.007825032230
         H            0.902236609771     0.433569310020     1.692915208640     1.007825032230
         H            0.982858609771     2.123807310020     1.157573208640     1.007825032230
         H            0.524983609771     1.502994310020    -1.125486791360     1.007825032230
         H            3.415021609771    -0.374542689980    -1.067199791360     1.007825032230
         H            1.968278609771    -1.743443689980     1.242649208640     1.007825032230
         H            3.743618609771    -1.619774689980     1.087715208640     1.007825032230
         H            3.101380609771     2.736064310020     0.177409208640     1.007825032230
         H           -0.313210390229    -1.799460689980    -0.544271791360     1.007825032230
         H            2.907559609771    -3.575331689980     0.118638208640     1.007825032230
         H           -2.705938390229    -2.559343689980    -0.153823791360     1.007825032230
         H           -5.031181390229    -1.648001689980    -0.057292791360     1.007825032230
         H           -5.301941390229    -0.024057689980     0.385527208640     1.007825032230

  Basis Set: AUG-CC-PVTZ
    Blend: AUG-CC-PVTZ
  Basis Set: (AUG-CC-PVTZ AUX)
    Blend: AUG-CC-PVTZ-JKFIT
	 Reference Energy          =    -811.4131165728967972 [Eh]
	 Singles Energy            =      -0.0000000000000000 [Eh]
	 Same-Spin Energy          =      -0.8271559082599491 [Eh]
	 Opposite-Spin Energy      =      -2.5237983954520136 [Eh]
	 Correlation Energy        =      -3.3509543037119629 [Eh]
	 Total Energy              =    -814.7640708766087982 [Eh]

	 ================> DF-SCS-MP2 Energies <==================
	-----------------------------------------------------------
	 SCS Same-Spin Scale       =       0.3333333333333333 [-]
	 SCS Opposite-Spin Scale   =       1.2000000000000000 [-]
	 SCS Same-Spin Energy      =      -0.2757186360866497 [Eh]
	 SCS Opposite-Spin Energy  =      -3.0285580745424161 [Eh]
	 SCS Correlation Energy    =      -3.3042767106290656 [Eh]
	 SCS Total Energy          =    -814.7173932835258938 [Eh]
	-----------------------------------------------------------

  Dipole Moment: [D]
     X:     1.7435      Y:    -3.5256      Z:     2.4738     Total:     4.6464

*** Psi4 exiting successfully. Buy a developer a beer!
