                               Psi4 1.4a3.dev225

  ==> Input File <==

--------------------------------------------------------------------------
#psi4
#
memory 32 gb

molecule  {
0 1
  O       -1.4695130     0.3030610    -1.0874480
  O       -3.6436400    -1.4204040    -0.2669360
  O       -1.6911330     2.8536240     0.0000030
  O        1.1857770    -2.4961310     0.0874550
  N        0.6842480    -0.3150290    -0.3399290
  N        2.9133760    -0.9647370     0.2108410
  N        4.5636770     0.6178870     0.3785230
  C       -2.7686820    -0.6858470     0.5863090
  C       -1.3787780    -1.3118450     0.6568060
  C       -2.4925280     0.6283540    -0.1295840
  C       -0.6939390    -0.7805590    -0.6115670
  C       -2.0414120     1.7324860     0.8087370
  C        1.0545030     0.9838330    -0.4888120
  C        1.6080830    -1.3384950     0.0010630
  C        2.3487550     1.3478080    -0.2622830
  C        3.2578570     0.3046130     0.0876290
  H       -3.2188600    -0.5381750     1.5798200
  H       -0.8341690    -0.9801840     1.5464130
  H       -1.3950130    -2.4033150     0.6754970
  H       -0.6293958    -1.5037891    -1.3609337
  H       -3.3591510     0.9641520    -0.7058050
  H       -1.1849610     1.3939850     1.4098140
  H       -2.8667900     1.9743150     1.4948250
  H       -3.6905400    -2.3294490     0.0774600
  H        0.2668220     1.6750250    -0.7707300
  H       -1.4321050     3.5760960     0.5972330
  H        2.6621150     2.3809760    -0.3596430
  H        4.9550500     1.4416620    -0.0591730
  H        5.1797170    -0.1867780     0.4106900
units angstrom
no_reorient  #important for SAPT in psi4, default
symmetry c1  #important for SAPT in psi4, default
}

set PROPERTIES_ORIGIN ["COM"]
properties('MP2/aug-cc-pvtz', properties = ['dipole'])
--------------------------------------------------------------------------

    Molecular point group: c1
  Charge       = 0
  Multiplicity = 1
  Basis Set: AUG-CC-PVTZ
    Blend: AUG-CC-PVTZ
  Basis Set: (AUG-CC-PVTZ AUX)
    Blend: AUG-CC-PVTZ-JKFIT

    Orbital Energies [Eh]
    ---------------------

    Doubly Occupied:

       1A    -20.583485     2A    -20.574003     3A    -20.572691
       4A    -20.501938     5A    -15.618667     6A    -15.588872
       7A    -15.539787     8A    -11.368815     9A    -11.345772
      10A    -11.327621    11A    -11.314453    12A    -11.300129
      13A    -11.299398    14A    -11.294595    15A    -11.236930
      16A    -11.235185    17A     -1.418848    18A     -1.381681
      19A     -1.377526    20A     -1.366088    21A     -1.290216
      22A     -1.258575    23A     -1.168523    24A     -1.076380
      25A     -1.068309    26A     -1.025453    27A     -0.931521
      28A     -0.895007    29A     -0.867807    30A     -0.832975
      31A     -0.805979    32A     -0.754150    33A     -0.738020
      34A     -0.726925    35A     -0.707280    36A     -0.702415
      37A     -0.691320    38A     -0.674293    39A     -0.651834
      40A     -0.642864    41A     -0.623077    42A     -0.617745
      43A     -0.606666    44A     -0.595754    45A     -0.587583
      46A     -0.572466    47A     -0.567035    48A     -0.551433
      49A     -0.526750    50A     -0.521698    51A     -0.511551
      52A     -0.485107    53A     -0.480705    54A     -0.472385
      55A     -0.459430    56A     -0.449569    57A     -0.440928
      58A     -0.413698    59A     -0.382703    60A     -0.333934

  @DF-RHF Final Energy:  -811.47874231083142

   => Energetics <=

    Nuclear Repulsion Energy =           1185.4801514471823793
    One-Electron Energy =               -3466.0046942572521402
    Two-Electron Energy =                1469.0458004992383394
    Total Energy =                       -811.4787423108314215
  Basis Set: (AUG-CC-PVTZ AUX)
    Blend: AUG-CC-PVTZ-RI
    Molecular point group: c1

    Geometry (in Angstrom), charge = 0, multiplicity = 1:

       Center              X                  Y                   Z               Mass
    ------------   -----------------  -----------------  -----------------  -----------------
         O           -1.493958527625     0.326622606695    -1.067980074678    15.994914619570
         O           -3.668085527625    -1.396842393305    -0.247468074678    15.994914619570
         O           -1.715578527625     2.877185606695     0.019470925322    15.994914619570
         O            1.161331472375    -2.472569393305     0.106922925322    15.994914619570
         N            0.659802472375    -0.291467393305    -0.320461074678    14.003074004430
         N            2.888930472375    -0.941175393305     0.230308925322    14.003074004430
         N            4.539231472375     0.641448606695     0.397990925322    14.003074004430
         C           -2.793127527625    -0.662285393305     0.605776925322    12.000000000000
         C           -1.403223527625    -1.288283393305     0.676273925322    12.000000000000
         C           -2.516973527625     0.651915606695    -0.110116074678    12.000000000000
         C           -0.718384527625    -0.756997393305    -0.592099074678    12.000000000000
         C           -2.065857527625     1.756047606695     0.828204925322    12.000000000000
         C            1.030057472375     1.007394606695    -0.469344074678    12.000000000000
         C            1.583637472375    -1.314933393305     0.020530925322    12.000000000000
         C            2.324309472375     1.371369606695    -0.242815074678    12.000000000000
         C            3.233411472375     0.328174606695     0.107096925322    12.000000000000
         H           -3.243305527625    -0.514613393305     1.599287925322     1.007825032230
         H           -0.858614527625    -0.956622393305     1.565880925322     1.007825032230
         H           -1.419458527625    -2.379753393305     0.694964925322     1.007825032230
         H           -0.653841327625    -1.480227493305    -1.341465774678     1.007825032230
         H           -3.383596527625     0.987713606695    -0.686337074678     1.007825032230
         H           -1.209406527625     1.417546606695     1.429281925322     1.007825032230
         H           -2.891235527625     1.997876606695     1.514292925322     1.007825032230
         H           -3.714985527625    -2.305887393305     0.096927925322     1.007825032230
         H            0.242376472375     1.698586606695    -0.751262074678     1.007825032230
         H           -1.456550527625     3.599657606695     0.616700925322     1.007825032230
         H            2.637669472375     2.404537606695    -0.340175074678     1.007825032230
         H            4.930604472375     1.465223606695    -0.039705074678     1.007825032230
         H            5.155271472375    -0.163216393305     0.430157925322     1.007825032230

  Basis Set: AUG-CC-PVTZ
    Blend: AUG-CC-PVTZ
  Basis Set: (AUG-CC-PVTZ AUX)
    Blend: AUG-CC-PVTZ-JKFIT
	 Reference Energy          =    -811.4787423108314215 [Eh]
	 Singles Energy            =      -0.0000000000000000 [Eh]
	 Same-Spin Energy          =      -0.8306081277751827 [Eh]
	 Opposite-Spin Energy      =      -2.5264902186066629 [Eh]
	 Correlation Energy        =      -3.3570983463818456 [Eh]
	 Total Energy              =    -814.8358406572132253 [Eh]

	 ================> DF-SCS-MP2 Energies <==================
	-----------------------------------------------------------
	 SCS Same-Spin Scale       =       0.3333333333333333 [-]
	 SCS Opposite-Spin Scale   =       1.2000000000000000 [-]
	 SCS Same-Spin Energy      =      -0.2768693759250609 [Eh]
	 SCS Opposite-Spin Energy  =      -3.0317882623279955 [Eh]
	 SCS Correlation Energy    =      -3.3086576382530564 [Eh]
	 SCS Total Energy          =    -814.7873999490844881 [Eh]
	-----------------------------------------------------------

  Dipole Moment: [D]
     X:    -0.3285      Y:     4.5930      Z:     2.4021     Total:     5.1936

*** Psi4 exiting successfully. Buy a developer a beer!
