                               Psi4 1.3.2 release

  ==> Input File <==

--------------------------------------------------------------------------
#psi4
#
memory 32 gb

molecule  {
0 1
  O        1.3620710    -0.3800110    -0.9318440
  O        3.2020570     1.9012130    -0.2995130
  O        2.7994070    -2.7489470    -0.4002010
  O       -1.3621860     2.3740050     0.1547830
  N       -0.7982440     0.1994180    -0.2292560
  N       -3.1204874     0.8186039     0.2533117
  N       -4.6734100    -0.8124350     0.4126370
  C        2.7015950     0.8755540     0.5594740
  C        1.2368440     1.1072260     0.8878520
  C        2.6518190    -0.3922910    -0.2854700
  C        0.5739580     0.6830040    -0.4149160
  C        2.8020980    -1.6600160     0.5224700
  C       -1.1273370    -1.1158190    -0.3082760
  C       -1.7446880     1.2038920     0.0820450
  C       -2.4728613    -1.5540976    -0.0994371
  C       -3.3619920    -0.4731600     0.1685110
  H        3.3343810     0.7567850     1.4508530
  H        0.9047070     0.4438290     1.6934890
  H        0.9853290     2.1340670     1.1581470
  H        0.5274540     1.5132540    -1.1249130
  H        3.4174920    -0.3642830    -1.0666260
  H        1.9707490    -1.7331840     1.2432230
  H        3.7460890    -1.6095150     1.0882890
  H        3.1038510     2.7463240     0.1779830
  H       -0.3107400    -1.7892010    -0.5436980
  H        2.9100300    -3.5650720     0.1192120
  H       -2.7034680    -2.5490840    -0.1532500
  H       -5.0287110    -1.6377420    -0.0567190
  H       -5.2994710    -0.0137980     0.3861010
units angstrom
no_reorient  #important for SAPT in psi4, default
symmetry c1  #important for SAPT in psi4, default
}

set PROPERTIES_ORIGIN ["COM"]
properties('MP2/aug-cc-pvtz', properties = ['dipole'])
--------------------------------------------------------------------------

    Molecular point group: c1
  Charge       = 0
  Multiplicity = 1
  Basis Set: AUG-CC-PVTZ
    Blend: AUG-CC-PVTZ
  Basis Set: (AUG-CC-PVTZ AUX)
    Blend: AUG-CC-PVTZ-JKFIT

    Orbital Energies [Eh]
    ---------------------

    Doubly Occupied:

       1A    -20.579303     2A    -20.576616     3A    -20.576234
       4A    -20.511427     5A    -15.631256     6A    -15.577688
       7A    -15.546781     8A    -11.377708     9A    -11.338269
      10A    -11.335600    11A    -11.331068    12A    -11.303434
      13A    -11.298720    14A    -11.295533    15A    -11.240149
      16A    -11.238418    17A     -1.419896    18A     -1.384296
      19A     -1.375445    20A     -1.368018    21A     -1.290410
      22A     -1.262737    23A     -1.155229    24A     -1.079566
      25A     -1.064476    26A     -1.027649    27A     -0.927938
      28A     -0.903533    29A     -0.863925    30A     -0.826857
      31A     -0.808031    32A     -0.746614    33A     -0.743228
      34A     -0.723345    35A     -0.703125    36A     -0.694212
      37A     -0.690029    38A     -0.673759    39A     -0.663476
      40A     -0.643922    41A     -0.627551    42A     -0.621562
      43A     -0.604827    44A     -0.590112    45A     -0.587183
      46A     -0.570637    47A     -0.569304    48A     -0.546595
      49A     -0.532673    50A     -0.527378    51A     -0.511929
      52A     -0.488482    53A     -0.481804    54A     -0.470186
      55A     -0.463016    56A     -0.454733    57A     -0.440900
      58A     -0.417638    59A     -0.380141    60A     -0.330202

  @DF-RHF Final Energy:  -811.46298856043575

   => Energetics <=

    Nuclear Repulsion Energy =           1166.5909700210497704
    One-Electron Energy =               -3428.0783702625712976
    Two-Electron Energy =                1450.0244116810861215
    Total Energy =                       -811.4629885604356332
  Basis Set: (AUG-CC-PVTZ AUX)
    Blend: AUG-CC-PVTZ-RI
    Molecular point group: c1

    Geometry (in Angstrom), charge = 0, multiplicity = 1:

       Center              X                  Y                   Z               Mass
    ------------   -----------------  -----------------  -----------------  -----------------
         O            1.369095805952    -0.378217525978    -0.932933819237    15.994914619570
         O            3.209081805952     1.903006474022    -0.300602819237    15.994914619570
         O            2.806431805952    -2.747153525978    -0.401290819237    15.994914619570
         O           -1.355161194048     2.375798474022     0.153693180763    15.994914619570
         N           -0.791219194048     0.201211474022    -0.230345819237    14.003074004430
         N           -3.113462594048     0.820397374022     0.252221880763    14.003074004430
         N           -4.666385194048    -0.810641525978     0.411547180763    14.003074004430
         C            2.708619805952     0.877347474022     0.558384180763    12.000000000000
         C            1.243868805952     1.109019474022     0.886762180763    12.000000000000
         C            2.658843805952    -0.390497525978    -0.286559819237    12.000000000000
         C            0.580982805952     0.684797474022    -0.416005819237    12.000000000000
         C            2.809122805952    -1.658222525978     0.521380180763    12.000000000000
         C           -1.120312194048    -1.114025525978    -0.309365819237    12.000000000000
         C           -1.737663194048     1.205685474022     0.080955180763    12.000000000000
         C           -2.465836494048    -1.552304125978    -0.100526919237    12.000000000000
         C           -3.354967194048    -0.471366525978     0.167421180763    12.000000000000
         H            3.341405805952     0.758578474022     1.449763180763     1.007825032230
         H            0.911731805952     0.445622474022     1.692399180763     1.007825032230
         H            0.992353805952     2.135860474022     1.157057180763     1.007825032230
         H            0.534478805952     1.515047474022    -1.126002819237     1.007825032230
         H            3.424516805952    -0.362489525978    -1.067715819237     1.007825032230
         H            1.977773805952    -1.731390525978     1.242133180763     1.007825032230
         H            3.753113805952    -1.607721525978     1.087199180763     1.007825032230
         H            3.110875805952     2.748117474022     0.176893180763     1.007825032230
         H           -0.303715194048    -1.787407525978    -0.544787819237     1.007825032230
         H            2.917054805952    -3.563278525978     0.118122180763     1.007825032230
         H           -2.696443194048    -2.547290525978    -0.154339819237     1.007825032230
         H           -5.021686194048    -1.635948525978    -0.057808819237     1.007825032230
         H           -5.292446194048    -0.012004525978     0.385011180763     1.007825032230

  Basis Set: AUG-CC-PVTZ
    Blend: AUG-CC-PVTZ
  Basis Set: (AUG-CC-PVTZ AUX)
    Blend: AUG-CC-PVTZ-JKFIT
	 Reference Energy          =    -811.4629885604357469 [Eh]
	 Singles Energy            =      -0.0000000000000000 [Eh]
	 Same-Spin Energy          =      -0.8301158764067887 [Eh]
	 Opposite-Spin Energy      =      -2.5277580383120366 [Eh]
	 Correlation Energy        =      -3.3578739147188252 [Eh]
	 Total Energy              =    -814.8208624751546267 [Eh]

	 ================> DF-SCS-MP2 Energies <==================
	-----------------------------------------------------------
	 SCS Same-Spin Scale       =       0.3333333333333333 [-]
	 SCS Opposite-Spin Scale   =       1.2000000000000000 [-]
	 SCS Same-Spin Energy      =      -0.2767052921355962 [Eh]
	 SCS Opposite-Spin Energy  =      -3.0333096459744437 [Eh]
	 SCS Correlation Energy    =      -3.3100149381100401 [Eh]
	 SCS Total Energy          =    -814.7730034985457905 [Eh]
	-----------------------------------------------------------

  Dipole Moment: [D]
     X:     1.5636      Y:    -4.4821      Z:     2.4496     Total:     5.3418

*** Psi4 exiting successfully. Buy a developer a beer!
