                               Psi4 1.3.2 release

  ==> Input File <==

--------------------------------------------------------------------------
#psi4
#
memory 32 gb

molecule  {
0 1
  O        1.3620710    -0.3800110    -0.9318440
  O        3.2020570     1.9012130    -0.2995130
  O        2.7994070    -2.7489470    -0.4002010
  O       -1.3621860     2.3740050     0.1547830
  N       -0.7982440     0.1994180    -0.2292560
  N       -3.0541720     0.8052390     0.2400120
  N       -4.6734100    -0.8124350     0.4126370
  C        2.7015950     0.8755540     0.5594740
  C        1.2368440     1.1072260     0.8878520
  C        2.6518190    -0.3922910    -0.2854700
  C        0.5739580     0.6830040    -0.4149160
  C        2.8020980    -1.6600160     0.5224700
  C       -1.1273370    -1.1158190    -0.3082760
  C       -1.7446880     1.2038920     0.0820450
  C       -2.4173070    -1.5045610    -0.1045420
  C       -3.3619920    -0.4731600     0.1685110
  H        3.3343810     0.7567850     1.4508530
  H        0.9047070     0.4438290     1.6934890
  H        0.9853290     2.1340670     1.1581470
  H        0.5274540     1.5132540    -1.1249130
  H        3.4174920    -0.3642830    -1.0666260
  H        1.9707490    -1.7331840     1.2432230
  H        3.7460890    -1.6095150     1.0882890
  H        3.0937851     2.8329458     0.2269252
  H       -0.3107400    -1.7892010    -0.5436980
  H        2.9100300    -3.5650720     0.1192120
  H       -2.7034680    -2.5490840    -0.1532500
  H       -5.0287110    -1.6377420    -0.0567190
  H       -5.2994710    -0.0137980     0.3861010
units angstrom
no_reorient  #important for SAPT in psi4, default
symmetry c1  #important for SAPT in psi4, default
}

set PROPERTIES_ORIGIN ["COM"]
properties('MP2/aug-cc-pvtz', properties = ['dipole'])
--------------------------------------------------------------------------

    Molecular point group: c1
  Charge       = 0
  Multiplicity = 1
  Basis Set: AUG-CC-PVTZ
    Blend: AUG-CC-PVTZ
  Basis Set: (AUG-CC-PVTZ AUX)
    Blend: AUG-CC-PVTZ-JKFIT

    Orbital Energies [Eh]
    ---------------------

    Doubly Occupied:

       1A    -20.582237     2A    -20.577584     3A    -20.572553
       4A    -20.502864     5A    -15.621472     6A    -15.588210
       7A    -15.540627     8A    -11.369704     9A    -11.344859
      10A    -11.330299    11A    -11.318075    12A    -11.299866
      13A    -11.296733    14A    -11.292905    15A    -11.236817
      16A    -11.236097    17A     -1.415488    18A     -1.381296
      19A     -1.370479    20A     -1.352313    21A     -1.292013
      22A     -1.261179    23A     -1.168932    24A     -1.077196
      25A     -1.066837    26A     -1.027611    27A     -0.925007
      28A     -0.896889    29A     -0.866911    30A     -0.828581
      31A     -0.805614    32A     -0.753920    33A     -0.738005
      34A     -0.720106    35A     -0.703916    36A     -0.692035
      37A     -0.676083    38A     -0.674669    39A     -0.656233
      40A     -0.635516    41A     -0.626118    42A     -0.617693
      43A     -0.603889    44A     -0.593933    45A     -0.588246
      46A     -0.571796    47A     -0.566513    48A     -0.543994
      49A     -0.531639    50A     -0.523275    51A     -0.509822
      52A     -0.482779    53A     -0.481178    54A     -0.467991
      55A     -0.459565    56A     -0.444109    57A     -0.437473
      58A     -0.416117    59A     -0.383541    60A     -0.334713

  @DF-RHF Final Energy:  -811.46572548675033

   => Energetics <=

    Nuclear Repulsion Energy =           1169.3262592519222380
    One-Electron Energy =               -3433.8197289285085390
    Two-Electron Energy =                1453.0277441898360848
    Total Energy =                       -811.4657254867502161
  Basis Set: (AUG-CC-PVTZ AUX)
    Blend: AUG-CC-PVTZ-RI
    Molecular point group: c1

    Geometry (in Angstrom), charge = 0, multiplicity = 1:

       Center              X                  Y                   Z               Mass
    ------------   -----------------  -----------------  -----------------  -----------------
         O            1.362115656414    -0.380395463426    -0.932061170595    15.994914619570
         O            3.202101656414     1.900828536574    -0.299730170595    15.994914619570
         O            2.799451656414    -2.749331463426    -0.400418170595    15.994914619570
         O           -1.362141343586     2.373620536574     0.154565829405    15.994914619570
         N           -0.798199343586     0.199033536574    -0.229473170595    14.003074004430
         N           -3.054127343586     0.804854536574     0.239794829405    14.003074004430
         N           -4.673365343586    -0.812819463426     0.412419829405    14.003074004430
         C            2.701639656414     0.875169536574     0.559256829405    12.000000000000
         C            1.236888656414     1.106841536574     0.887634829405    12.000000000000
         C            2.651863656414    -0.392675463426    -0.285687170595    12.000000000000
         C            0.574002656414     0.682619536574    -0.415133170595    12.000000000000
         C            2.802142656414    -1.660400463426     0.522252829405    12.000000000000
         C           -1.127292343586    -1.116203463426    -0.308493170595    12.000000000000
         C           -1.744643343586     1.203507536574     0.081827829405    12.000000000000
         C           -2.417262343586    -1.504945463426    -0.104759170595    12.000000000000
         C           -3.361947343586    -0.473544463426     0.168293829405    12.000000000000
         H            3.334425656414     0.756400536574     1.450635829405     1.007825032230
         H            0.904751656414     0.443444536574     1.693271829405     1.007825032230
         H            0.985373656414     2.133682536574     1.157929829405     1.007825032230
         H            0.527498656414     1.512869536574    -1.125130170595     1.007825032230
         H            3.417536656414    -0.364667463426    -1.066843170595     1.007825032230
         H            1.970793656414    -1.733568463426     1.243005829405     1.007825032230
         H            3.746133656414    -1.609899463426     1.088071829405     1.007825032230
         H            3.093829756414     2.832561336574     0.226708029405     1.007825032230
         H           -0.310695343586    -1.789585463426    -0.543915170595     1.007825032230
         H            2.910074656414    -3.565456463426     0.118994829405     1.007825032230
         H           -2.703423343586    -2.549468463426    -0.153467170595     1.007825032230
         H           -5.028666343586    -1.638126463426    -0.056936170595     1.007825032230
         H           -5.299426343586    -0.014182463426     0.385883829405     1.007825032230

  Basis Set: AUG-CC-PVTZ
    Blend: AUG-CC-PVTZ
  Basis Set: (AUG-CC-PVTZ AUX)
    Blend: AUG-CC-PVTZ-JKFIT
	 Reference Energy          =    -811.4657254867503298 [Eh]
	 Singles Energy            =      -0.0000000000000000 [Eh]
	 Same-Spin Energy          =      -0.8308227483612260 [Eh]
	 Opposite-Spin Energy      =      -2.5284499703711183 [Eh]
	 Correlation Energy        =      -3.3592727187323446 [Eh]
	 Total Energy              =    -814.8249982054826432 [Eh]

	 ================> DF-SCS-MP2 Energies <==================
	-----------------------------------------------------------
	 SCS Same-Spin Scale       =       0.3333333333333333 [-]
	 SCS Opposite-Spin Scale   =       1.2000000000000000 [-]
	 SCS Same-Spin Energy      =      -0.2769409161204087 [Eh]
	 SCS Opposite-Spin Energy  =      -3.0341399644453420 [Eh]
	 SCS Correlation Energy    =      -3.3110808805657506 [Eh]
	 SCS Total Energy          =    -814.7768063673161123 [Eh]
	-----------------------------------------------------------

  Dipole Moment: [D]
     X:     1.0882      Y:    -4.6045      Z:     2.5120     Total:     5.3569

*** Psi4 exiting successfully. Buy a developer a beer!
