                               Psi4 1.3.2 release

  ==> Input File <==

--------------------------------------------------------------------------
#psi4
#
memory 32 gb

molecule  {
0 1
  O        1.3620710    -0.3800110    -0.9318440
  O        3.2020570     1.9012130    -0.2995130
  O        2.7994070    -2.7489470    -0.4002010
  O       -1.4025074     2.3858123     0.1641418
  N       -0.8342999     0.1657906    -0.2264537
  N       -3.0541720     0.8052390     0.2400120
  N       -4.6734100    -0.8124350     0.4126370
  C        2.7015950     0.8755540     0.5594740
  C        1.2368440     1.1072260     0.8878520
  C        2.6518190    -0.3922910    -0.2854700
  C        0.5739580     0.6830040    -0.4149160
  C        2.8020980    -1.6600160     0.5224700
  C       -1.1273370    -1.1158190    -0.3082760
  C       -1.7446880     1.2038920     0.0820450
  C       -2.4173070    -1.5045610    -0.1045420
  C       -3.3619920    -0.4731600     0.1685110
  H        3.3343810     0.7567850     1.4508530
  H        0.9047070     0.4438290     1.6934890
  H        0.9853290     2.1340670     1.1581470
  H        0.5274540     1.5132540    -1.1249130
  H        3.4174920    -0.3642830    -1.0666260
  H        1.9707490    -1.7331840     1.2432230
  H        3.7460890    -1.6095150     1.0882890
  H        3.1038510     2.7463240     0.1779830
  H       -0.3107400    -1.7892010    -0.5436980
  H        2.9100300    -3.5650720     0.1192120
  H       -2.7034680    -2.5490840    -0.1532500
  H       -5.0287110    -1.6377420    -0.0567190
  H       -5.2994710    -0.0137980     0.3861010
units angstrom
no_reorient  #important for SAPT in psi4, default
symmetry c1  #important for SAPT in psi4, default
}

set PROPERTIES_ORIGIN ["COM"]
properties('MP2/aug-cc-pvtz', properties = ['dipole'])
--------------------------------------------------------------------------

    Molecular point group: c1
  Charge       = 0
  Multiplicity = 1
  Basis Set: AUG-CC-PVTZ
    Blend: AUG-CC-PVTZ
  Basis Set: (AUG-CC-PVTZ AUX)
    Blend: AUG-CC-PVTZ-JKFIT

    Orbital Energies [Eh]
    ---------------------

    Doubly Occupied:

       1A    -20.578910     2A    -20.576670     3A    -20.575733
       4A    -20.505296     5A    -15.624703     6A    -15.584607
       7A    -15.536467     8A    -11.370312     9A    -11.340344
      10A    -11.337375    11A    -11.313999    12A    -11.303590
      13A    -11.298357    14A    -11.295203    15A    -11.240641
      16A    -11.231817    17A     -1.418122    18A     -1.383203
      19A     -1.375230    20A     -1.367485    21A     -1.296520
      22A     -1.263151    23A     -1.165095    24A     -1.080398
      25A     -1.068551    26A     -1.029239    27A     -0.926348
      28A     -0.901518    29A     -0.868209    30A     -0.831716
      31A     -0.807641    32A     -0.752855    33A     -0.741957
      34A     -0.722809    35A     -0.705194    36A     -0.694046
      37A     -0.689494    38A     -0.675185    39A     -0.656111
      40A     -0.637506    41A     -0.629753    42A     -0.618534
      43A     -0.605530    44A     -0.595224    45A     -0.589906
      46A     -0.573087    47A     -0.568402    48A     -0.546216
      49A     -0.531765    50A     -0.525155    51A     -0.512100
      52A     -0.489311    53A     -0.486830    54A     -0.470302
      55A     -0.464009    56A     -0.445087    57A     -0.437885
      58A     -0.414246    59A     -0.381540    60A     -0.331670

  @DF-RHF Final Energy:  -811.47513180531359

   => Energetics <=

    Nuclear Repulsion Energy =           1169.2231562507522540
    One-Electron Energy =               -3433.4202563188696331
    Two-Electron Energy =                1452.7219682628037845
    Total Energy =                       -811.4751318053135947
  Basis Set: (AUG-CC-PVTZ AUX)
    Blend: AUG-CC-PVTZ-RI
    Molecular point group: c1

    Geometry (in Angstrom), charge = 0, multiplicity = 1:

       Center              X                  Y                   Z               Mass
    ------------   -----------------  -----------------  -----------------  -----------------
         O            1.367134296951    -0.378769108904    -0.932675942158    15.994914619570
         O            3.207120296951     1.902454891096    -0.300344942158    15.994914619570
         O            2.804470296951    -2.747705108904    -0.401032942158    15.994914619570
         O           -1.397444103049     2.387054191096     0.163309857842    15.994914619570
         N           -0.829236603049     0.167032491096    -0.227285642158    14.003074004430
         N           -3.049108703049     0.806480891096     0.239180057842    14.003074004430
         N           -4.668346703049    -0.811193108904     0.411805057842    14.003074004430
         C            2.706658296951     0.876795891096     0.558642057842    12.000000000000
         C            1.241907296951     1.108467891096     0.887020057842    12.000000000000
         C            2.656882296951    -0.391049108904    -0.286301942158    12.000000000000
         C            0.579021296951     0.684245891096    -0.415747942158    12.000000000000
         C            2.807161296951    -1.658774108904     0.521638057842    12.000000000000
         C           -1.122273703049    -1.114577108904    -0.309107942158    12.000000000000
         C           -1.739624703049     1.205133891096     0.081213057842    12.000000000000
         C           -2.412243703049    -1.503319108904    -0.105373942158    12.000000000000
         C           -3.356928703049    -0.471918108904     0.167679057842    12.000000000000
         H            3.339444296951     0.758026891096     1.450021057842     1.007825032230
         H            0.909770296951     0.445070891096     1.692657057842     1.007825032230
         H            0.990392296951     2.135308891096     1.157315057842     1.007825032230
         H            0.532517296951     1.514495891096    -1.125744942158     1.007825032230
         H            3.422555296951    -0.363041108904    -1.067457942158     1.007825032230
         H            1.975812296951    -1.731942108904     1.242391057842     1.007825032230
         H            3.751152296951    -1.608273108904     1.087457057842     1.007825032230
         H            3.108914296951     2.747565891096     0.177151057842     1.007825032230
         H           -0.305676703049    -1.787959108904    -0.544529942158     1.007825032230
         H            2.915093296951    -3.563830108904     0.118380057842     1.007825032230
         H           -2.698404703049    -2.547842108904    -0.154081942158     1.007825032230
         H           -5.023647703049    -1.636500108904    -0.057550942158     1.007825032230
         H           -5.294407703049    -0.012556108904     0.385269057842     1.007825032230

  Basis Set: AUG-CC-PVTZ
    Blend: AUG-CC-PVTZ
  Basis Set: (AUG-CC-PVTZ AUX)
    Blend: AUG-CC-PVTZ-JKFIT
	 Reference Energy          =    -811.4751318053135947 [Eh]
	 Singles Energy            =      -0.0000000000000000 [Eh]
	 Same-Spin Energy          =      -0.8299923005973452 [Eh]
	 Opposite-Spin Energy      =      -2.5254234255554717 [Eh]
	 Correlation Energy        =      -3.3554157261528168 [Eh]
	 Total Energy              =    -814.8305475314664363 [Eh]

	 ================> DF-SCS-MP2 Energies <==================
	-----------------------------------------------------------
	 SCS Same-Spin Scale       =       0.3333333333333333 [-]
	 SCS Opposite-Spin Scale   =       1.2000000000000000 [-]
	 SCS Same-Spin Energy      =      -0.2766641001991150 [Eh]
	 SCS Opposite-Spin Energy  =      -3.0305081106665659 [Eh]
	 SCS Correlation Energy    =      -3.3071722108656809 [Eh]
	 SCS Total Energy          =    -814.7823040161792960 [Eh]
	-----------------------------------------------------------

  Dipole Moment: [D]
     X:     1.4616      Y:    -4.5822      Z:     2.4579     Total:     5.4013

*** Psi4 exiting successfully. Buy a developer a beer!
