                               Psi4 1.3.2 release

  ==> Input File <==

--------------------------------------------------------------------------
#psi4
#
memory 32 gb

molecule  {
0 1
  O        1.3620710    -0.3800110    -0.9318440
  O        3.2020570     1.9012130    -0.2995130
  O        2.7994070    -2.7489470    -0.4002010
  O       -1.3621860     2.3740050     0.1547830
  N       -0.7982440     0.1994180    -0.2292560
  N       -3.0541720     0.8052390     0.2400120
  N       -4.6734100    -0.8124350     0.4126370
  C        2.7015950     0.8755540     0.5594740
  C        1.2368440     1.1072260     0.8878520
  C        2.6518190    -0.3922910    -0.2854700
  C        0.5739580     0.6830040    -0.4149160
  C        2.7404155    -1.6369422     0.5662761
  C       -1.1273370    -1.1158190    -0.3082760
  C       -1.7446880     1.2038920     0.0820450
  C       -2.4173070    -1.5045610    -0.1045420
  C       -3.3619920    -0.4731600     0.1685110
  H        3.3343810     0.7567850     1.4508530
  H        0.9047070     0.4438290     1.6934890
  H        0.9853290     2.1340670     1.1581470
  H        0.5274540     1.5132540    -1.1249130
  H        3.3962168    -0.3138669    -1.0835714
  H        1.9707490    -1.7331840     1.2432230
  H        3.7460890    -1.6095150     1.0882890
  H        3.1038510     2.7463240     0.1779830
  H       -0.3107400    -1.7892010    -0.5436980
  H        2.9100300    -3.5650720     0.1192120
  H       -2.7034680    -2.5490840    -0.1532500
  H       -5.0287110    -1.6377420    -0.0567190
  H       -5.2994710    -0.0137980     0.3861010
units angstrom
no_reorient  #important for SAPT in psi4, default
symmetry c1  #important for SAPT in psi4, default
}

set PROPERTIES_ORIGIN ["COM"]
properties('MP2/aug-cc-pvtz', properties = ['dipole'])
--------------------------------------------------------------------------

    Molecular point group: c1
  Charge       = 0
  Multiplicity = 1
  Basis Set: AUG-CC-PVTZ
    Blend: AUG-CC-PVTZ
  Basis Set: (AUG-CC-PVTZ AUX)
    Blend: AUG-CC-PVTZ-JKFIT

    Orbital Energies [Eh]
    ---------------------

    Doubly Occupied:

       1A    -20.574972     2A    -20.573574     3A    -20.571934
       4A    -20.503411     5A    -15.622099     6A    -15.588673
       7A    -15.541176     8A    -11.370244     9A    -11.345408
      10A    -11.330845    11A    -11.318719    12A    -11.300354
      13A    -11.297178    14A    -11.294448    15A    -11.237486
      16A    -11.237479    17A     -1.416753    18A     -1.382375
      19A     -1.369458    20A     -1.353810    21A     -1.292595
      22A     -1.261806    23A     -1.169471    24A     -1.079855
      25A     -1.070291    26A     -1.028578    27A     -0.929222
      28A     -0.899162    29A     -0.870429    30A     -0.831188
      31A     -0.809318    32A     -0.754802    33A     -0.739116
      34A     -0.718425    35A     -0.706942    36A     -0.691579
      37A     -0.683747    38A     -0.676199    39A     -0.658356
      40A     -0.635958    41A     -0.628025    42A     -0.618489
      43A     -0.603196    44A     -0.596366    45A     -0.585146
      46A     -0.573145    47A     -0.567542    48A     -0.543315
      49A     -0.532632    50A     -0.523239    51A     -0.512122
      52A     -0.484798    53A     -0.482733    54A     -0.472085
      55A     -0.463139    56A     -0.444753    57A     -0.438090
      58A     -0.416780    59A     -0.384069    60A     -0.335336

  @DF-RHF Final Energy:  -811.47052877651140

   => Energetics <=

    Nuclear Repulsion Energy =           1170.2724941779688379
    One-Electron Energy =               -3435.6011788359201091
    Two-Electron Energy =                1453.8581558814398704
    Total Energy =                       -811.4705287765114008
  Basis Set: (AUG-CC-PVTZ AUX)
    Blend: AUG-CC-PVTZ-RI
    Molecular point group: c1

    Geometry (in Angstrom), charge = 0, multiplicity = 1:

       Center              X                  Y                   Z               Mass
    ------------   -----------------  -----------------  -----------------  -----------------
         O            1.365424851042    -0.381454056705    -0.934083579340    15.994914619570
         O            3.205410851042     1.899769943295    -0.301752579340    15.994914619570
         O            2.802760851042    -2.750390056705    -0.402440579340    15.994914619570
         O           -1.358832148958     2.372561943295     0.152543420660    15.994914619570
         N           -0.794890148958     0.197974943295    -0.231495579340    14.003074004430
         N           -3.050818148958     0.803795943295     0.237772420660    14.003074004430
         N           -4.670056148958    -0.813878056705     0.410397420660    14.003074004430
         C            2.704948851042     0.874110943295     0.557234420660    12.000000000000
         C            1.240197851042     1.105782943295     0.885612420660    12.000000000000
         C            2.655172851042    -0.393734056705    -0.287709579340    12.000000000000
         C            0.577311851042     0.681560943295    -0.417155579340    12.000000000000
         C            2.743769351042    -1.638385256705     0.564036520660    12.000000000000
         C           -1.123983148958    -1.117262056705    -0.310515579340    12.000000000000
         C           -1.741334148958     1.202448943295     0.079805420660    12.000000000000
         C           -2.413953148958    -1.506004056705    -0.106781579340    12.000000000000
         C           -3.358638148958    -0.474603056705     0.166271420660    12.000000000000
         H            3.337734851042     0.755341943295     1.448613420660     1.007825032230
         H            0.908060851042     0.442385943295     1.691249420660     1.007825032230
         H            0.988682851042     2.132623943295     1.155907420660     1.007825032230
         H            0.530807851042     1.511810943295    -1.127152579340     1.007825032230
         H            3.399570651042    -0.315309956705    -1.085810979340     1.007825032230
         H            1.974102851042    -1.734627056705     1.240983420660     1.007825032230
         H            3.749442851042    -1.610958056705     1.086049420660     1.007825032230
         H            3.107204851042     2.744880943295     0.175743420660     1.007825032230
         H           -0.307386148958    -1.790644056705    -0.545937579340     1.007825032230
         H            2.913383851042    -3.566515056705     0.116972420660     1.007825032230
         H           -2.700114148958    -2.550527056705    -0.155489579340     1.007825032230
         H           -5.025357148958    -1.639185056705    -0.058958579340     1.007825032230
         H           -5.296117148958    -0.015241056705     0.383861420660     1.007825032230

  Basis Set: AUG-CC-PVTZ
    Blend: AUG-CC-PVTZ
  Basis Set: (AUG-CC-PVTZ AUX)
    Blend: AUG-CC-PVTZ-JKFIT
	 Reference Energy          =    -811.4705287765114008 [Eh]
	 Singles Energy            =      -0.0000000000000000 [Eh]
	 Same-Spin Energy          =      -0.8299621723233306 [Eh]
	 Opposite-Spin Energy      =      -2.5265038622628095 [Eh]
	 Correlation Energy        =      -3.3564660345861403 [Eh]
	 Total Energy              =    -814.8269948110975065 [Eh]

	 ================> DF-SCS-MP2 Energies <==================
	-----------------------------------------------------------
	 SCS Same-Spin Scale       =       0.3333333333333333 [-]
	 SCS Opposite-Spin Scale   =       1.2000000000000000 [-]
	 SCS Same-Spin Energy      =      -0.2766540574411102 [Eh]
	 SCS Opposite-Spin Energy  =      -3.0318046347153715 [Eh]
	 SCS Correlation Energy    =      -3.3084586921564818 [Eh]
	 SCS Total Energy          =    -814.7789874686678786 [Eh]
	-----------------------------------------------------------

  Dipole Moment: [D]
     X:     0.9786      Y:    -4.5303      Z:     2.5681     Total:     5.2987

*** Psi4 exiting successfully. Buy a developer a beer!
