                               Psi4 1.4a3.dev225

  ==> Input File <==

--------------------------------------------------------------------------
#psi4
#
memory 32 gb

molecule  {
0 1
  O       -1.4695130     0.3030610    -1.0874480
  O       -3.6436400    -1.4204040    -0.2669360
  O       -1.6911330     2.8536240     0.0000030
  O        1.1857770    -2.4961310     0.0874550
  N        0.6842480    -0.3150290    -0.3399290
  N        2.9133760    -0.9647370     0.2108410
  N        4.5636770     0.6178870     0.3785230
  C       -2.7686820    -0.6858470     0.5863090
  C       -1.3787780    -1.3118450     0.6568060
  C       -2.4925280     0.6283540    -0.1295840
  C       -0.6939390    -0.7805590    -0.6115670
  C       -2.0414120     1.7324860     0.8087370
  C        1.0545030     0.9838330    -0.4888120
  C        1.6080830    -1.3384950     0.0010630
  C        2.3487550     1.3478080    -0.2622830
  C        3.2578570     0.3046130     0.0876290
  H       -3.2188600    -0.5381750     1.5798200
  H       -0.8341690    -0.9801840     1.5464130
  H       -1.3950130    -2.4033150     0.6754970
  H       -0.6263030    -1.5384450    -1.3968420
  H       -3.3591510     0.9641520    -0.7058050
  H       -1.1460215     1.3785947     1.4371426
  H       -2.8667900     1.9743150     1.4948250
  H       -3.6905400    -2.3294490     0.0774600
  H        0.2668220     1.6750250    -0.7707300
  H       -1.4321050     3.5760960     0.5972330
  H        2.6621150     2.3809760    -0.3596430
  H        4.9550500     1.4416620    -0.0591730
  H        5.1797170    -0.1867780     0.4106900
units angstrom
no_reorient  #important for SAPT in psi4, default
symmetry c1  #important for SAPT in psi4, default
}

set PROPERTIES_ORIGIN ["COM"]
properties('MP2/aug-cc-pvtz', properties = ['dipole'])
--------------------------------------------------------------------------

    Molecular point group: c1
  Charge       = 0
  Multiplicity = 1
  Basis Set: AUG-CC-PVTZ
    Blend: AUG-CC-PVTZ
  Basis Set: (AUG-CC-PVTZ AUX)
    Blend: AUG-CC-PVTZ-JKFIT

    Orbital Energies [Eh]
    ---------------------

    Doubly Occupied:

       1A    -20.584707     2A    -20.574486     3A    -20.572684
       4A    -20.501743     5A    -15.618894     6A    -15.588791
       7A    -15.539677     8A    -11.368620     9A    -11.345670
      10A    -11.333059    11A    -11.314418    12A    -11.306296
      13A    -11.299555    14A    -11.295394    15A    -11.237018
      16A    -11.235141    17A     -1.418895    18A     -1.381995
      19A     -1.377771    20A     -1.366172    21A     -1.290109
      22A     -1.258476    23A     -1.168347    24A     -1.075959
      25A     -1.067505    26A     -1.024304    27A     -0.927978
      28A     -0.894484    29A     -0.867397    30A     -0.830182
      31A     -0.803635    32A     -0.753464    33A     -0.737614
      34A     -0.724192    35A     -0.707114    36A     -0.702438
      37A     -0.689842    38A     -0.672468    39A     -0.649841
      40A     -0.640774    41A     -0.622346    42A     -0.617706
      43A     -0.606904    44A     -0.595753    45A     -0.587215
      46A     -0.572437    47A     -0.566115    48A     -0.550607
      49A     -0.526530    50A     -0.520395    51A     -0.510848
      52A     -0.485130    53A     -0.480691    54A     -0.469860
      55A     -0.459121    56A     -0.448432    57A     -0.440641
      58A     -0.413501    59A     -0.382290    60A     -0.333769

  @DF-RHF Final Energy:  -811.47695194572805

   => Energetics <=

    Nuclear Repulsion Energy =           1184.9602858457121783
    One-Electron Energy =               -3464.9996809743720405
    Two-Electron Energy =                1468.5624431829314744
    Total Energy =                       -811.4769519457281604
  Basis Set: (AUG-CC-PVTZ AUX)
    Blend: AUG-CC-PVTZ-RI
    Molecular point group: c1

    Geometry (in Angstrom), charge = 0, multiplicity = 1:

       Center              X                  Y                   Z               Mass
    ------------   -----------------  -----------------  -----------------  -----------------
         O           -1.494145066403     0.326844711052    -1.067941998086    15.994914619570
         O           -3.668272066403    -1.396620288948    -0.247429998086    15.994914619570
         O           -1.715765066403     2.877407711052     0.019509001914    15.994914619570
         O            1.161144933597    -2.472347288948     0.106961001914    15.994914619570
         N            0.659615933597    -0.291245288948    -0.320422998086    14.003074004430
         N            2.888743933597    -0.940953288948     0.230347001914    14.003074004430
         N            4.539044933597     0.641670711052     0.398029001914    14.003074004430
         C           -2.793314066403    -0.662063288948     0.605815001914    12.000000000000
         C           -1.403410066403    -1.288061288948     0.676312001914    12.000000000000
         C           -2.517160066403     0.652137711052    -0.110077998086    12.000000000000
         C           -0.718571066403    -0.756775288948    -0.592060998086    12.000000000000
         C           -2.066044066403     1.756269711052     0.828243001914    12.000000000000
         C            1.029870933597     1.007616711052    -0.469305998086    12.000000000000
         C            1.583450933597    -1.314711288948     0.020569001914    12.000000000000
         C            2.324122933597     1.371591711052    -0.242776998086    12.000000000000
         C            3.233224933597     0.328396711052     0.107135001914    12.000000000000
         H           -3.243492066403    -0.514391288948     1.599326001914     1.007825032230
         H           -0.858801066403    -0.956400288948     1.565919001914     1.007825032230
         H           -1.419645066403    -2.379531288948     0.695003001914     1.007825032230
         H           -0.650935066403    -1.514661288948    -1.377335998086     1.007825032230
         H           -3.383783066403     0.987935711052    -0.686298998086     1.007825032230
         H           -1.170653566403     1.402378411052     1.456648601914     1.007825032230
         H           -2.891422066403     1.998098711052     1.514331001914     1.007825032230
         H           -3.715172066403    -2.305665288948     0.096966001914     1.007825032230
         H            0.242189933597     1.698808711052    -0.751223998086     1.007825032230
         H           -1.456737066403     3.599879711052     0.616739001914     1.007825032230
         H            2.637482933597     2.404759711052    -0.340136998086     1.007825032230
         H            4.930417933597     1.465445711052    -0.039666998086     1.007825032230
         H            5.155084933597    -0.162994288948     0.430196001914     1.007825032230

  Basis Set: AUG-CC-PVTZ
    Blend: AUG-CC-PVTZ
  Basis Set: (AUG-CC-PVTZ AUX)
    Blend: AUG-CC-PVTZ-JKFIT
	 Reference Energy          =    -811.4769519457280467 [Eh]
	 Singles Energy            =      -0.0000000000000000 [Eh]
	 Same-Spin Energy          =      -0.8309216698791633 [Eh]
	 Opposite-Spin Energy      =      -2.5274723445693601 [Eh]
	 Correlation Energy        =      -3.3583940144485234 [Eh]
	 Total Energy              =    -814.8353459601765962 [Eh]

	 ================> DF-SCS-MP2 Energies <==================
	-----------------------------------------------------------
	 SCS Same-Spin Scale       =       0.3333333333333333 [-]
	 SCS Opposite-Spin Scale   =       1.2000000000000000 [-]
	 SCS Same-Spin Energy      =      -0.2769738899597211 [Eh]
	 SCS Opposite-Spin Energy  =      -3.0329668134832319 [Eh]
	 SCS Correlation Energy    =      -3.3099407034429529 [Eh]
	 SCS Total Energy          =    -814.7868926491710226 [Eh]
	-----------------------------------------------------------

  Dipole Moment: [D]
     X:    -0.3533      Y:     4.6207      Z:     2.3838     Total:     5.2114

*** Psi4 exiting successfully. Buy a developer a beer!
