                               Psi4 1.3.2 release

  ==> Input File <==

--------------------------------------------------------------------------
#psi4
#
memory 32 gb

molecule  {
0 1
  O        1.3648548    -0.3909177    -0.9374832
  O        3.2020570     1.9012130    -0.2995130
  O        2.7994070    -2.7489470    -0.4002010
  O       -1.3621860     2.3740050     0.1547830
  N       -0.7982440     0.1994180    -0.2292560
  N       -3.0541720     0.8052390     0.2400120
  N       -4.6734100    -0.8124350     0.4126370
  C        2.7138239     0.8722801     0.5635613
  C        1.2368440     1.1072260     0.8878520
  C        2.6518190    -0.3922910    -0.2854700
  C        0.5739580     0.6830040    -0.4149160
  C        2.8020980    -1.6600160     0.5224700
  C       -1.1273370    -1.1158190    -0.3082760
  C       -1.7446880     1.2038920     0.0820450
  C       -2.4173070    -1.5045610    -0.1045420
  C       -3.3619920    -0.4731600     0.1685110
  H        3.3343810     0.7567850     1.4508530
  H        0.9047070     0.4438290     1.6934890
  H        0.9853290     2.1340670     1.1581470
  H        0.5274540     1.5132540    -1.1249130
  H        3.4174920    -0.3642830    -1.0666260
  H        1.9707490    -1.7331840     1.2432230
  H        3.7460890    -1.6095150     1.0882890
  H        3.1038510     2.7463240     0.1779830
  H       -0.3107400    -1.7892010    -0.5436980
  H        2.9100300    -3.5650720     0.1192120
  H       -2.7034680    -2.5490840    -0.1532500
  H       -5.0287110    -1.6377420    -0.0567190
  H       -5.2994710    -0.0137980     0.3861010
units angstrom
no_reorient  #important for SAPT in psi4, default
symmetry c1  #important for SAPT in psi4, default
}

set PROPERTIES_ORIGIN ["COM"]
properties('MP2/aug-cc-pvtz', properties = ['dipole'])
--------------------------------------------------------------------------

    Molecular point group: c1
  Charge       = 0
  Multiplicity = 1
  Basis Set: AUG-CC-PVTZ
    Blend: AUG-CC-PVTZ
  Basis Set: (AUG-CC-PVTZ AUX)
    Blend: AUG-CC-PVTZ-JKFIT

    Orbital Energies [Eh]
    ---------------------

    Doubly Occupied:

       1A    -20.577290     2A    -20.574369     3A    -20.573427
       4A    -20.503242     5A    -15.622066     6A    -15.588428
       7A    -15.540907     8A    -11.370084     9A    -11.345129
      10A    -11.331732    11A    -11.318290    12A    -11.300913
      13A    -11.296363    14A    -11.292523    15A    -11.237643
      16A    -11.237065    17A     -1.413785    18A     -1.382431
      19A     -1.373208    20A     -1.364698    21A     -1.292341
      22A     -1.261571    23A     -1.169231    24A     -1.078437
      25A     -1.068245    26A     -1.027000    27A     -0.926446
      28A     -0.897355    29A     -0.869317    30A     -0.830540
      31A     -0.806860    32A     -0.754268    33A     -0.738529
      34A     -0.720157    35A     -0.706988    36A     -0.692275
      37A     -0.688931    38A     -0.675247    39A     -0.655988
      40A     -0.636681    41A     -0.627876    42A     -0.618192
      43A     -0.604602    44A     -0.594712    45A     -0.588321
      46A     -0.572858    47A     -0.567311    48A     -0.544726
      49A     -0.533017    50A     -0.523500    51A     -0.510550
      52A     -0.486692    53A     -0.481528    54A     -0.467995
      55A     -0.460755    56A     -0.444466    57A     -0.438122
      58A     -0.416546    59A     -0.383924    60A     -0.335093

  @DF-RHF Final Energy:  -811.47856546454443

   => Energetics <=

    Nuclear Repulsion Energy =           1169.3890144864474223
    One-Electron Energy =               -3433.8535909859597268
    Two-Electron Energy =                1452.9860110349675324
    Total Energy =                       -811.4785654645445447
  Basis Set: (AUG-CC-PVTZ AUX)
    Blend: AUG-CC-PVTZ-RI
    Molecular point group: c1

    Geometry (in Angstrom), charge = 0, multiplicity = 1:

       Center              X                  Y                   Z               Mass
    ------------   -----------------  -----------------  -----------------  -----------------
         O            1.364012505990    -0.389976533277    -0.937301956506    15.994914619570
         O            3.201214705990     1.902154166723    -0.299331756506    15.994914619570
         O            2.798564705990    -2.748005833277    -0.400019756506    15.994914619570
         O           -1.363028294010     2.374946166723     0.154964243494    15.994914619570
         N           -0.799086294010     0.200359166723    -0.229074756506    14.003074004430
         N           -3.055014294010     0.806180166723     0.240193243494    14.003074004430
         N           -4.674252294010    -0.811493833277     0.412818243494    14.003074004430
         C            2.712981605990     0.873221266723     0.563742543494    12.000000000000
         C            1.236001705990     1.108167166723     0.888033243494    12.000000000000
         C            2.650976705990    -0.391349833277    -0.285288756506    12.000000000000
         C            0.573115705990     0.683945166723    -0.414734756506    12.000000000000
         C            2.801255705990    -1.659074833277     0.522651243494    12.000000000000
         C           -1.128179294010    -1.114877833277    -0.308094756506    12.000000000000
         C           -1.745530294010     1.204833166723     0.082226243494    12.000000000000
         C           -2.418149294010    -1.503619833277    -0.104360756506    12.000000000000
         C           -3.362834294010    -0.472218833277     0.168692243494    12.000000000000
         H            3.333538705990     0.757726166723     1.451034243494     1.007825032230
         H            0.903864705990     0.444770166723     1.693670243494     1.007825032230
         H            0.984486705990     2.135008166723     1.158328243494     1.007825032230
         H            0.526611705990     1.514195166723    -1.124731756506     1.007825032230
         H            3.416649705990    -0.363341833277    -1.066444756506     1.007825032230
         H            1.969906705990    -1.732242833277     1.243404243494     1.007825032230
         H            3.745246705990    -1.608573833277     1.088470243494     1.007825032230
         H            3.103008705990     2.747265166723     0.178164243494     1.007825032230
         H           -0.311582294010    -1.788259833277    -0.543516756506     1.007825032230
         H            2.909187705990    -3.564130833277     0.119393243494     1.007825032230
         H           -2.704310294010    -2.548142833277    -0.153068756506     1.007825032230
         H           -5.029553294010    -1.636800833277    -0.056537756506     1.007825032230
         H           -5.300313294010    -0.012856833277     0.386282243494     1.007825032230

  Basis Set: AUG-CC-PVTZ
    Blend: AUG-CC-PVTZ
  Basis Set: (AUG-CC-PVTZ AUX)
    Blend: AUG-CC-PVTZ-JKFIT
	 Reference Energy          =    -811.4785654645444311 [Eh]
	 Singles Energy            =      -0.0000000000000000 [Eh]
	 Same-Spin Energy          =      -0.8296735779629918 [Eh]
	 Opposite-Spin Energy      =      -2.5254868448591834 [Eh]
	 Correlation Energy        =      -3.3551604228221752 [Eh]
	 Total Energy              =    -814.8337258873666542 [Eh]

	 ================> DF-SCS-MP2 Energies <==================
	-----------------------------------------------------------
	 SCS Same-Spin Scale       =       0.3333333333333333 [-]
	 SCS Opposite-Spin Scale   =       1.2000000000000000 [-]
	 SCS Same-Spin Energy      =      -0.2765578593209972 [Eh]
	 SCS Opposite-Spin Energy  =      -3.0305842138310202 [Eh]
	 SCS Correlation Energy    =      -3.3071420731520176 [Eh]
	 SCS Total Energy          =    -814.7857075376964531 [Eh]
	-----------------------------------------------------------

  Dipole Moment: [D]
     X:     1.0629      Y:    -4.6465      Z:     2.5109     Total:     5.3874

*** Psi4 exiting successfully. Buy a developer a beer!
