                               Psi4 1.4a3.dev225

  ==> Input File <==

--------------------------------------------------------------------------
#psi4
#
memory 32 gb

molecule  {
0 1
  O       -1.4695130     0.3030610    -1.0874480
  O       -3.6436400    -1.4204040    -0.2669360
  O       -1.6911330     2.8536240     0.0000030
  O        1.1857770    -2.4961310     0.0874550
  N        0.6842480    -0.3150290    -0.3399290
  N        2.9133760    -0.9647370     0.2108410
  N        4.5636770     0.6178870     0.3785230
  C       -2.7686820    -0.6858470     0.5863090
  C       -1.3787780    -1.3118450     0.6568060
  C       -2.4925280     0.6283540    -0.1295840
  C       -0.6939390    -0.7805590    -0.6115670
  C       -2.0414120     1.7324860     0.8087370
  C        1.0545030     0.9838330    -0.4888120
  C        1.6080830    -1.3384950     0.0010630
  C        2.3487550     1.3478080    -0.2622830
  C        3.2578570     0.3046130     0.0876290
  H       -3.2188600    -0.5381750     1.5798200
  H       -0.8341690    -0.9801840     1.5464130
  H       -1.3950130    -2.4033150     0.6754970
  H       -0.6275401    -1.5245827    -1.3824787
  H       -3.3591510     0.9641520    -0.7058050
  H       -1.1849610     1.3939850     1.4098140
  H       -2.8667900     1.9743150     1.4948250
  H       -3.6905400    -2.3294490     0.0774600
  H        0.2668220     1.6750250    -0.7707300
  H       -1.4321050     3.5760960     0.5972330
  H        2.6621150     2.3809760    -0.3596430
  H        4.9550500     1.4416620    -0.0591730
  H        5.1797170    -0.1867780     0.4106900
units angstrom
no_reorient  #important for SAPT in psi4, default
symmetry c1  #important for SAPT in psi4, default
}

set PROPERTIES_ORIGIN ["COM"]
properties('MP2/aug-cc-pvtz', properties = ['dipole'])
--------------------------------------------------------------------------

    Molecular point group: c1
  Charge       = 0
  Multiplicity = 1
  Basis Set: AUG-CC-PVTZ
    Blend: AUG-CC-PVTZ
  Basis Set: (AUG-CC-PVTZ AUX)
    Blend: AUG-CC-PVTZ-JKFIT

    Orbital Energies [Eh]
    ---------------------

    Doubly Occupied:

       1A    -20.583534     2A    -20.574234     3A    -20.572660
       4A    -20.501897     5A    -15.618894     6A    -15.588884
       7A    -15.539798     8A    -11.368774     9A    -11.345783
      10A    -11.330951    11A    -11.314506    12A    -11.300193
      13A    -11.299457    14A    -11.294683    15A    -11.237106
      16A    -11.235248    17A     -1.418837    18A     -1.381677
      19A     -1.377532    20A     -1.366087    21A     -1.290225
      22A     -1.258586    23A     -1.168484    24A     -1.076257
      25A     -1.068035    26A     -1.025040    27A     -0.930622
      28A     -0.895037    29A     -0.867817    30A     -0.831255
      31A     -0.805455    32A     -0.753846    33A     -0.737842
      34A     -0.725979    35A     -0.707294    36A     -0.702144
      37A     -0.690720    38A     -0.673729    39A     -0.651414
      40A     -0.642430    41A     -0.622788    42A     -0.617774
      43A     -0.606696    44A     -0.595765    45A     -0.587594
      46A     -0.572487    47A     -0.566294    48A     -0.551325
      49A     -0.526733    50A     -0.521023    51A     -0.511155
      52A     -0.485093    53A     -0.480725    54A     -0.472388
      55A     -0.459451    56A     -0.448784    57A     -0.440827
      58A     -0.413642    59A     -0.382527    60A     -0.333911

  @DF-RHF Final Energy:  -811.47946151494807

   => Energetics <=

    Nuclear Repulsion Energy =           1185.2770103971263325
    One-Electron Energy =               -3465.6130858450746928
    Two-Electron Energy =                1468.8566139330000624
    Total Energy =                       -811.4794615149480705
  Basis Set: (AUG-CC-PVTZ AUX)
    Blend: AUG-CC-PVTZ-RI
    Molecular point group: c1

    Geometry (in Angstrom), charge = 0, multiplicity = 1:

       Center              X                  Y                   Z               Mass
    ------------   -----------------  -----------------  -----------------  -----------------
         O           -1.493966763196     0.326714888410    -1.067884458260    15.994914619570
         O           -3.668093763196    -1.396750111590    -0.247372458260    15.994914619570
         O           -1.715586763196     2.877277888410     0.019566541740    15.994914619570
         O            1.161323236804    -2.472477111590     0.107018541740    15.994914619570
         N            0.659794236804    -0.291375111590    -0.320365458260    14.003074004430
         N            2.888922236804    -0.941083111590     0.230404541740    14.003074004430
         N            4.539223236804     0.641540888410     0.398086541740    14.003074004430
         C           -2.793135763196    -0.662193111590     0.605872541740    12.000000000000
         C           -1.403231763196    -1.288191111590     0.676369541740    12.000000000000
         C           -2.516981763196     0.652007888410    -0.110020458260    12.000000000000
         C           -0.718392763196    -0.756905111590    -0.592003458260    12.000000000000
         C           -2.065865763196     1.756139888410     0.828300541740    12.000000000000
         C            1.030049236804     1.007486888410    -0.469248458260    12.000000000000
         C            1.583629236804    -1.314841111590     0.020626541740    12.000000000000
         C            2.324301236804     1.371461888410    -0.242719458260    12.000000000000
         C            3.233403236804     0.328266888410     0.107192541740    12.000000000000
         H           -3.243313763196    -0.514521111590     1.599383541740     1.007825032230
         H           -0.858622763196    -0.956530111590     1.565976541740     1.007825032230
         H           -1.419466763196    -2.379661111590     0.695060541740     1.007825032230
         H           -0.651993863196    -1.500928811590    -1.362915158260     1.007825032230
         H           -3.383604763196     0.987805888410    -0.686241458260     1.007825032230
         H           -1.209414763196     1.417638888410     1.429377541740     1.007825032230
         H           -2.891243763196     1.997968888410     1.514388541740     1.007825032230
         H           -3.714993763196    -2.305795111590     0.097023541740     1.007825032230
         H            0.242368236804     1.698678888410    -0.751166458260     1.007825032230
         H           -1.456558763196     3.599749888410     0.616796541740     1.007825032230
         H            2.637661236804     2.404629888410    -0.340079458260     1.007825032230
         H            4.930596236804     1.465315888410    -0.039609458260     1.007825032230
         H            5.155263236804    -0.163124111590     0.430253541740     1.007825032230

  Basis Set: AUG-CC-PVTZ
    Blend: AUG-CC-PVTZ
  Basis Set: (AUG-CC-PVTZ AUX)
    Blend: AUG-CC-PVTZ-JKFIT
	 Reference Energy          =    -811.4794615149480705 [Eh]
	 Singles Energy            =      -0.0000000000000000 [Eh]
	 Same-Spin Energy          =      -0.8307192415978897 [Eh]
	 Opposite-Spin Energy      =      -2.5267892120812387 [Eh]
	 Correlation Energy        =      -3.3575084536791282 [Eh]
	 Total Energy              =    -814.8369699686271588 [Eh]

	 ================> DF-SCS-MP2 Energies <==================
	-----------------------------------------------------------
	 SCS Same-Spin Scale       =       0.3333333333333333 [-]
	 SCS Opposite-Spin Scale   =       1.2000000000000000 [-]
	 SCS Same-Spin Energy      =      -0.2769064138659632 [Eh]
	 SCS Opposite-Spin Energy  =      -3.0321470544974862 [Eh]
	 SCS Correlation Energy    =      -3.3090534683634494 [Eh]
	 SCS Total Energy          =    -814.7885149833115292 [Eh]
	-----------------------------------------------------------

  Dipole Moment: [D]
     X:    -0.3290      Y:     4.5963      Z:     2.4050     Total:     5.1979

*** Psi4 exiting successfully. Buy a developer a beer!
