                               Psi4 1.3.2 release

  ==> Input File <==

--------------------------------------------------------------------------
#psi4
#
memory 32 gb

molecule  {
0 1
  O        1.3802392    -0.4454363    -0.9649260
  O        3.2020570     1.9012130    -0.2995130
  O        2.7994070    -2.7489470    -0.4002010
  O       -1.3621860     2.3740050     0.1547830
  N       -0.7982440     0.1994180    -0.2292560
  N       -3.0541720     0.8052390     0.2400120
  N       -4.6734100    -0.8124350     0.4126370
  C        2.7748787     0.8544716     0.5830220
  C        1.2368440     1.1072260     0.8878520
  C        2.6518190    -0.3922910    -0.2854700
  C        0.5739580     0.6830040    -0.4149160
  C        2.8020980    -1.6600160     0.5224700
  C       -1.1273370    -1.1158190    -0.3082760
  C       -1.7446880     1.2038920     0.0820450
  C       -2.4173070    -1.5045610    -0.1045420
  C       -3.3619920    -0.4731600     0.1685110
  H        3.3343810     0.7567850     1.4508530
  H        0.9047070     0.4438290     1.6934890
  H        0.9853290     2.1340670     1.1581470
  H        0.5274540     1.5132540    -1.1249130
  H        3.4174920    -0.3642830    -1.0666260
  H        1.9707490    -1.7331840     1.2432230
  H        3.7460890    -1.6095150     1.0882890
  H        3.1038510     2.7463240     0.1779830
  H       -0.3107400    -1.7892010    -0.5436980
  H        2.9100300    -3.5650720     0.1192120
  H       -2.7034680    -2.5490840    -0.1532500
  H       -5.0287110    -1.6377420    -0.0567190
  H       -5.2994710    -0.0137980     0.3861010
units angstrom
no_reorient  #important for SAPT in psi4, default
symmetry c1  #important for SAPT in psi4, default
}

set PROPERTIES_ORIGIN ["COM"]
properties('MP2/aug-cc-pvtz', properties = ['dipole'])
--------------------------------------------------------------------------

    Molecular point group: c1
  Charge       = 0
  Multiplicity = 1
  Basis Set: AUG-CC-PVTZ
    Blend: AUG-CC-PVTZ
  Basis Set: (AUG-CC-PVTZ AUX)
    Blend: AUG-CC-PVTZ-JKFIT

    Orbital Energies [Eh]
    ---------------------

    Doubly Occupied:

       1A    -20.575950     2A    -20.575016     3A    -20.574622
       4A    -20.504277     5A    -15.623792     6A    -15.588860
       7A    -15.541531     8A    -11.371108     9A    -11.345680
      10A    -11.336915    11A    -11.318422    12A    -11.301837
      13A    -11.293954    14A    -11.290462    15A    -11.241758
      16A    -11.237385    17A     -1.402367    18A     -1.382068
      19A     -1.371186    20A     -1.358494    21A     -1.292995
      22A     -1.262436    23A     -1.169933    24A     -1.077027
      25A     -1.064985    26A     -1.022670    27A     -0.925285
      28A     -0.897052    29A     -0.871135    30A     -0.829317
      31A     -0.810282    32A     -0.754949    33A     -0.737548
      34A     -0.717266    35A     -0.707890    36A     -0.691040
      37A     -0.686089    38A     -0.673275    39A     -0.652793
      40A     -0.634714    41A     -0.629010    42A     -0.616261
      43A     -0.605134    44A     -0.592606    45A     -0.586916
      46A     -0.573746    47A     -0.560103    48A     -0.543802
      49A     -0.535432    50A     -0.522367    51A     -0.511681
      52A     -0.490683    53A     -0.479979    54A     -0.464868
      55A     -0.456021    56A     -0.442957    57A     -0.439163
      58A     -0.417447    59A     -0.384793    60A     -0.335932

  @DF-RHF Final Energy:  -811.46494216931990

   => Energetics <=

    Nuclear Repulsion Energy =           1166.7021140198564808
    One-Electron Energy =               -3428.5275754577537555
    Two-Electron Energy =                1450.3605192685777183
    Total Energy =                       -811.4649421693197837
  Basis Set: (AUG-CC-PVTZ AUX)
    Blend: AUG-CC-PVTZ-RI
    Molecular point group: c1

    Geometry (in Angstrom), charge = 0, multiplicity = 1:

       Center              X                  Y                   Z               Mass
    ------------   -----------------  -----------------  -----------------  -----------------
         O            1.375087041385    -0.439714123742    -0.963840197543    15.994914619570
         O            3.196904841385     1.906935176258    -0.298427197543    15.994914619570
         O            2.794254841385    -2.743224823742    -0.399115197543    15.994914619570
         O           -1.367338158615     2.379727176258     0.155868802457    15.994914619570
         N           -0.803396158615     0.205140176258    -0.228170197543    14.003074004430
         N           -3.059324158615     0.810961176258     0.241097802457    14.003074004430
         N           -4.678562158615    -0.806712823742     0.413722802457    14.003074004430
         C            2.769726541385     0.860193776258     0.584107802457    12.000000000000
         C            1.231691841385     1.112948176258     0.888937802457    12.000000000000
         C            2.646666841385    -0.386568823742    -0.284384197543    12.000000000000
         C            0.568805841385     0.688726176258    -0.413830197543    12.000000000000
         C            2.796945841385    -1.654293823742     0.523555802457    12.000000000000
         C           -1.132489158615    -1.110096823742    -0.307190197543    12.000000000000
         C           -1.749840158615     1.209614176258     0.083130802457    12.000000000000
         C           -2.422459158615    -1.498838823742    -0.103456197543    12.000000000000
         C           -3.367144158615    -0.467437823742     0.169596802457    12.000000000000
         H            3.329228841385     0.762507176258     1.451938802457     1.007825032230
         H            0.899554841385     0.449551176258     1.694574802457     1.007825032230
         H            0.980176841385     2.139789176258     1.159232802457     1.007825032230
         H            0.522301841385     1.518976176258    -1.123827197543     1.007825032230
         H            3.412339841385    -0.358560823742    -1.065540197543     1.007825032230
         H            1.965596841385    -1.727461823742     1.244308802457     1.007825032230
         H            3.740936841385    -1.603792823742     1.089374802457     1.007825032230
         H            3.098698841385     2.752046176258     0.179068802457     1.007825032230
         H           -0.315892158615    -1.783478823742    -0.542612197543     1.007825032230
         H            2.904877841385    -3.559349823742     0.120297802457     1.007825032230
         H           -2.708620158615    -2.543361823742    -0.152164197543     1.007825032230
         H           -5.033863158615    -1.632019823742    -0.055633197543     1.007825032230
         H           -5.304623158615    -0.008075823742     0.387186802457     1.007825032230

  Basis Set: AUG-CC-PVTZ
    Blend: AUG-CC-PVTZ
  Basis Set: (AUG-CC-PVTZ AUX)
    Blend: AUG-CC-PVTZ-JKFIT
	 Reference Energy          =    -811.4649421693198974 [Eh]
	 Singles Energy            =      -0.0000000000000000 [Eh]
	 Same-Spin Energy          =      -0.8301373492500557 [Eh]
	 Opposite-Spin Energy      =      -2.5279114645689238 [Eh]
	 Correlation Energy        =      -3.3580488138189795 [Eh]
	 Total Energy              =    -814.8229909831388795 [Eh]

	 ================> DF-SCS-MP2 Energies <==================
	-----------------------------------------------------------
	 SCS Same-Spin Scale       =       0.3333333333333333 [-]
	 SCS Opposite-Spin Scale   =       1.2000000000000000 [-]
	 SCS Same-Spin Energy      =      -0.2767124497500185 [Eh]
	 SCS Opposite-Spin Energy  =      -3.0334937574827086 [Eh]
	 SCS Correlation Energy    =      -3.3102062072327270 [Eh]
	 SCS Total Energy          =    -814.7751483765525791 [Eh]
	-----------------------------------------------------------

  Dipole Moment: [D]
     X:     0.9971      Y:    -4.4963      Z:     2.6066     Total:     5.2920

*** Psi4 exiting successfully. Buy a developer a beer!
