                               Psi4 1.3.2 release

  ==> Input File <==

--------------------------------------------------------------------------
#psi4
#
memory 32 gb

molecule  {
0 1
  O        1.3620710    -0.3800110    -0.9318440
  O        3.2020570     1.9012130    -0.2995130
  O        2.7994070    -2.7489470    -0.4002010
  O       -1.3621860     2.3740050     0.1547830
  N       -0.7982440     0.1994180    -0.2292560
  N       -3.0541720     0.8052390     0.2400120
  N       -4.6734100    -0.8124350     0.4126370
  C        2.7015950     0.8755540     0.5594740
  C        1.2368440     1.1072260     0.8878520
  C        2.6518190    -0.3922910    -0.2854700
  C        0.5739580     0.6830040    -0.4149160
  C        2.8020980    -1.6600160     0.5224700
  C       -1.1273370    -1.1158190    -0.3082760
  C       -1.7446880     1.2038920     0.0820450
  C       -2.4173070    -1.5045610    -0.1045420
  C       -3.3703030    -0.4168708     0.2127287
  H        3.3343810     0.7567850     1.4508530
  H        0.9047070     0.4438290     1.6934890
  H        0.9853290     2.1340670     1.1581470
  H        0.5274540     1.5132540    -1.1249130
  H        3.4174920    -0.3642830    -1.0666260
  H        1.9707490    -1.7331840     1.2432230
  H        3.7460890    -1.6095150     1.0882890
  H        3.1038510     2.7463240     0.1779830
  H       -0.3107400    -1.7892010    -0.5436980
  H        2.9100300    -3.5650720     0.1192120
  H       -2.7034680    -2.5490840    -0.1532500
  H       -5.0754734    -1.6293591    -0.0330596
  H       -5.2994710    -0.0137980     0.3861010
units angstrom
no_reorient  #important for SAPT in psi4, default
symmetry c1  #important for SAPT in psi4, default
}

set PROPERTIES_ORIGIN ["COM"]
properties('MP2/aug-cc-pvtz', properties = ['dipole'])
--------------------------------------------------------------------------

    Molecular point group: c1
  Charge       = 0
  Multiplicity = 1
  Basis Set: AUG-CC-PVTZ
    Blend: AUG-CC-PVTZ
  Basis Set: (AUG-CC-PVTZ AUX)
    Blend: AUG-CC-PVTZ-JKFIT

    Orbital Energies [Eh]
    ---------------------

    Doubly Occupied:

       1A    -20.576749     2A    -20.573960     3A    -20.571742
       4A    -20.509004     5A    -15.618177     6A    -15.586216
       7A    -15.542458     8A    -11.375970     9A    -11.344887
      10A    -11.329794    11A    -11.310487    12A    -11.300299
      13A    -11.295930    14A    -11.292245    15A    -11.237353
      16A    -11.236235    17A     -1.415954    18A     -1.386058
      19A     -1.372800    20A     -1.365655    21A     -1.298201
      22A     -1.262573    23A     -1.180191    24A     -1.076774
      25A     -1.064295    26A     -1.023727    27A     -0.925271
      28A     -0.891109    29A     -0.875466    30A     -0.831961
      31A     -0.804888    32A     -0.751851    33A     -0.736652
      34A     -0.720381    35A     -0.711944    36A     -0.692760
      37A     -0.690126    38A     -0.674862    39A     -0.655357
      40A     -0.637245    41A     -0.628775    42A     -0.614592
      43A     -0.604946    44A     -0.594469    45A     -0.587863
      46A     -0.572285    47A     -0.568366    48A     -0.544696
      49A     -0.533578    50A     -0.522843    51A     -0.509940
      52A     -0.485204    53A     -0.482504    54A     -0.467603
      55A     -0.460642    56A     -0.447282    57A     -0.436427
      58A     -0.417691    59A     -0.390698    60A     -0.331915

  @DF-RHF Final Energy:  -811.47512843611048

   => Energetics <=

    Nuclear Repulsion Energy =           1170.0676634508506595
    One-Electron Energy =               -3435.1857293843186199
    Two-Electron Energy =                1453.6429374973572521
    Total Energy =                       -811.4751284361104808
  Basis Set: (AUG-CC-PVTZ AUX)
    Blend: AUG-CC-PVTZ-RI
    Molecular point group: c1

    Geometry (in Angstrom), charge = 0, multiplicity = 1:

       Center              X                  Y                   Z               Mass
    ------------   -----------------  -----------------  -----------------  -----------------
         O            1.362717687708    -0.383022693538    -0.934285532801    15.994914619570
         O            3.202703687708     1.898201306462    -0.301954532801    15.994914619570
         O            2.800053687708    -2.751958693538    -0.402642532801    15.994914619570
         O           -1.361539312292     2.370993306462     0.152341467199    15.994914619570
         N           -0.797597312292     0.196406306462    -0.231697532801    14.003074004430
         N           -3.053525312292     0.802227306462     0.237570467199    14.003074004430
         N           -4.672763312292    -0.815446693538     0.410195467199    14.003074004430
         C            2.702241687708     0.872542306462     0.557032467199    12.000000000000
         C            1.237490687708     1.104214306462     0.885410467199    12.000000000000
         C            2.652465687708    -0.395302693538    -0.287911532801    12.000000000000
         C            0.574604687708     0.679992306462    -0.417357532801    12.000000000000
         C            2.802744687708    -1.663027693538     0.520028467199    12.000000000000
         C           -1.126690312292    -1.118830693538    -0.310717532801    12.000000000000
         C           -1.744041312292     1.200880306462     0.079603467199    12.000000000000
         C           -2.416660312292    -1.507572693538    -0.106983532801    12.000000000000
         C           -3.369656312292    -0.419882493538     0.210287167199    12.000000000000
         H            3.335027687708     0.753773306462     1.448411467199     1.007825032230
         H            0.905353687708     0.440817306462     1.691047467199     1.007825032230
         H            0.985975687708     2.131055306462     1.155705467199     1.007825032230
         H            0.528100687708     1.510242306462    -1.127354532801     1.007825032230
         H            3.418138687708    -0.367294693538    -1.069067532801     1.007825032230
         H            1.971395687708    -1.736195693538     1.240781467199     1.007825032230
         H            3.746735687708    -1.612526693538     1.085847467199     1.007825032230
         H            3.104497687708     2.743312306462     0.175541467199     1.007825032230
         H           -0.310093312292    -1.792212693538    -0.546139532801     1.007825032230
         H            2.910676687708    -3.568083693538     0.116770467199     1.007825032230
         H           -2.702821312292    -2.552095693538    -0.155691532801     1.007825032230
         H           -5.074826712292    -1.632370793538    -0.035501132801     1.007825032230
         H           -5.298824312292    -0.016809693538     0.383659467199     1.007825032230

  Basis Set: AUG-CC-PVTZ
    Blend: AUG-CC-PVTZ
  Basis Set: (AUG-CC-PVTZ AUX)
    Blend: AUG-CC-PVTZ-JKFIT
	 Reference Energy          =    -811.4751284361104808 [Eh]
	 Singles Energy            =      -0.0000000000000000 [Eh]
	 Same-Spin Energy          =      -0.8286309106835279 [Eh]
	 Opposite-Spin Energy      =      -2.5241499015116169 [Eh]
	 Correlation Energy        =      -3.3527808121951450 [Eh]
	 Total Energy              =    -814.8279092483056729 [Eh]

	 ================> DF-SCS-MP2 Energies <==================
	-----------------------------------------------------------
	 SCS Same-Spin Scale       =       0.3333333333333333 [-]
	 SCS Opposite-Spin Scale   =       1.2000000000000000 [-]
	 SCS Same-Spin Energy      =      -0.2762103035611759 [Eh]
	 SCS Opposite-Spin Energy  =      -3.0289798818139402 [Eh]
	 SCS Correlation Energy    =      -3.3051901853751162 [Eh]
	 SCS Total Energy          =    -814.7803186214855486 [Eh]
	-----------------------------------------------------------

  Dipole Moment: [D]
     X:     0.9122      Y:    -4.4347      Z:     2.5755     Total:     5.2088

*** Psi4 exiting successfully. Buy a developer a beer!
