                               Psi4 1.3.2 release

  ==> Input File <==

--------------------------------------------------------------------------
#psi4
#
memory 32 gb

molecule  {
0 1
  O        1.3620710    -0.3800110    -0.9318440
  O        3.2020570     1.9012130    -0.2995130
  O        2.7994070    -2.7489470    -0.4002010
  O       -1.3621860     2.3740050     0.1547830
  N       -0.7982440     0.1994180    -0.2292560
  N       -3.0541720     0.8052390     0.2400120
  N       -4.6734100    -0.8124350     0.4126370
  C        2.7015950     0.8755540     0.5594740
  C        1.2368440     1.1072260     0.8878520
  C        2.6518190    -0.3922910    -0.2854700
  C        0.5739580     0.6830040    -0.4149160
  C        2.8020980    -1.6600160     0.5224700
  C       -1.1273370    -1.1158190    -0.3082760
  C       -1.7446880     1.2038920     0.0820450
  C       -2.4173070    -1.5045610    -0.1045420
  C       -3.3619920    -0.4731600     0.1685110
  H        3.4494767     0.7351824     1.6129835
  H        0.9047070     0.4438290     1.6934890
  H        0.9853290     2.1340670     1.1581470
  H        0.5274540     1.5132540    -1.1249130
  H        3.4174920    -0.3642830    -1.0666260
  H        1.9707490    -1.7331840     1.2432230
  H        3.7460890    -1.6095150     1.0882890
  H        3.1038510     2.7463240     0.1779830
  H       -0.3107400    -1.7892010    -0.5436980
  H        2.9100300    -3.5650720     0.1192120
  H       -2.7034680    -2.5490840    -0.1532500
  H       -5.0287110    -1.6377420    -0.0567190
  H       -5.2994710    -0.0137980     0.3861010
units angstrom
no_reorient  #important for SAPT in psi4, default
symmetry c1  #important for SAPT in psi4, default
}

set PROPERTIES_ORIGIN ["COM"]
properties('MP2/aug-cc-pvtz', properties = ['dipole'])
--------------------------------------------------------------------------

    Molecular point group: c1
  Charge       = 0
  Multiplicity = 1
  Basis Set: AUG-CC-PVTZ
    Blend: AUG-CC-PVTZ
  Basis Set: (AUG-CC-PVTZ AUX)
    Blend: AUG-CC-PVTZ-JKFIT

    Orbital Energies [Eh]
    ---------------------

    Doubly Occupied:

       1A    -20.579274     2A    -20.577229     3A    -20.575076
       4A    -20.503932     5A    -15.622868     6A    -15.588940
       7A    -15.541518     8A    -11.370790     9A    -11.345756
      10A    -11.332707    11A    -11.323587    12A    -11.319106
      13A    -11.296304    14A    -11.295287    15A    -11.239341
      16A    -11.237802    17A     -1.418620    18A     -1.383619
      19A     -1.374762    20A     -1.367170    21A     -1.293050
      22A     -1.262346    23A     -1.169845    24A     -1.079092
      25A     -1.067697    26A     -1.029015    27A     -0.925385
      28A     -0.898266    29A     -0.868288    30A     -0.831263
      31A     -0.797179    32A     -0.754778    33A     -0.733698
      34A     -0.720640    35A     -0.702709    36A     -0.692706
      37A     -0.689524    38A     -0.676431    39A     -0.657239
      40A     -0.636494    41A     -0.626218    42A     -0.617356
      43A     -0.603956    44A     -0.596121    45A     -0.587569
      46A     -0.571925    47A     -0.568889    48A     -0.545403
      49A     -0.532200    50A     -0.525078    51A     -0.510884
      52A     -0.484734    53A     -0.482142    54A     -0.467744
      55A     -0.455087    56A     -0.443788    57A     -0.437683
      58A     -0.417126    59A     -0.384309    60A     -0.335740

  @DF-RHF Final Energy:  -811.45875645660249

   => Energetics <=

    Nuclear Repulsion Energy =           1168.8123966414595998
    One-Electron Energy =               -3432.5957367428682119
    Two-Electron Energy =                1452.3245836448061254
    Total Energy =                       -811.4587564566024867
  Basis Set: (AUG-CC-PVTZ AUX)
    Blend: AUG-CC-PVTZ-RI
    Molecular point group: c1

    Geometry (in Angstrom), charge = 0, multiplicity = 1:

       Center              X                  Y                   Z               Mass
    ------------   -----------------  -----------------  -----------------  -----------------
         O            1.361560190929    -0.379915165005    -0.932563498736    15.994914619570
         O            3.201546190929     1.901308834995    -0.300232498736    15.994914619570
         O            2.798896190929    -2.748851165005    -0.400920498736    15.994914619570
         O           -1.362696809071     2.374100834995     0.154063501264    15.994914619570
         N           -0.798754809071     0.199513834995    -0.229975498736    14.003074004430
         N           -3.054682809071     0.805334834995     0.239292501264    14.003074004430
         N           -4.673920809071    -0.812339165005     0.411917501264    14.003074004430
         C            2.701084190929     0.875649834995     0.558754501264    12.000000000000
         C            1.236333190929     1.107321834995     0.887132501264    12.000000000000
         C            2.651308190929    -0.392195165005    -0.286189498736    12.000000000000
         C            0.573447190929     0.683099834995    -0.415635498736    12.000000000000
         C            2.801587190929    -1.659920165005     0.521750501264    12.000000000000
         C           -1.127847809071    -1.115723165005    -0.308995498736    12.000000000000
         C           -1.745198809071     1.203987834995     0.081325501264    12.000000000000
         C           -2.417817809071    -1.504465165005    -0.105261498736    12.000000000000
         C           -3.362502809071    -0.473064165005     0.167791501264    12.000000000000
         H            3.448965890929     0.735278234995     1.612264001264     1.007825032230
         H            0.904196190929     0.443924834995     1.692769501264     1.007825032230
         H            0.984818190929     2.134162834995     1.157427501264     1.007825032230
         H            0.526943190929     1.513349834995    -1.125632498736     1.007825032230
         H            3.416981190929    -0.364187165005    -1.067345498736     1.007825032230
         H            1.970238190929    -1.733088165005     1.242503501264     1.007825032230
         H            3.745578190929    -1.609419165005     1.087569501264     1.007825032230
         H            3.103340190929     2.746419834995     0.177263501264     1.007825032230
         H           -0.311250809071    -1.789105165005    -0.544417498736     1.007825032230
         H            2.909519190929    -3.564976165005     0.118492501264     1.007825032230
         H           -2.703978809071    -2.548988165005    -0.153969498736     1.007825032230
         H           -5.029221809071    -1.637646165005    -0.057438498736     1.007825032230
         H           -5.299981809071    -0.013702165005     0.385381501264     1.007825032230

  Basis Set: AUG-CC-PVTZ
    Blend: AUG-CC-PVTZ
  Basis Set: (AUG-CC-PVTZ AUX)
    Blend: AUG-CC-PVTZ-JKFIT
	 Reference Energy          =    -811.4587564566024867 [Eh]
	 Singles Energy            =      -0.0000000000000000 [Eh]
	 Same-Spin Energy          =      -0.8301001216955218 [Eh]
	 Opposite-Spin Energy      =      -2.5273163477713965 [Eh]
	 Correlation Energy        =      -3.3574164694669184 [Eh]
	 Total Energy              =    -814.8161729260693846 [Eh]

	 ================> DF-SCS-MP2 Energies <==================
	-----------------------------------------------------------
	 SCS Same-Spin Scale       =       0.3333333333333333 [-]
	 SCS Opposite-Spin Scale   =       1.2000000000000000 [-]
	 SCS Same-Spin Energy      =      -0.2767000405651739 [Eh]
	 SCS Opposite-Spin Energy  =      -3.0327796173256756 [Eh]
	 SCS Correlation Energy    =      -3.3094796578908494 [Eh]
	 SCS Total Energy          =    -814.7682361144933338 [Eh]
	-----------------------------------------------------------

  Dipole Moment: [D]
     X:     0.9388      Y:    -4.6224      Z:     2.3282     Total:     5.2601

*** Psi4 exiting successfully. Buy a developer a beer!
