                               Psi4 1.3.2 release

  ==> Input File <==

--------------------------------------------------------------------------
#psi4
#
memory 32 gb

molecule  {
0 1
  O        1.3620710    -0.3800110    -0.9318440
  O        3.2020570     1.9012130    -0.2995130
  O        2.7994070    -2.7489470    -0.4002010
  O       -1.3621860     2.3740050     0.1547830
  N       -0.7982440     0.1994180    -0.2292560
  N       -3.0541720     0.8052390     0.2400120
  N       -4.6734100    -0.8124350     0.4126370
  C        2.7015950     0.8755540     0.5594740
  C        1.2368440     1.1072260     0.8878520
  C        2.6518190    -0.3922910    -0.2854700
  C        0.5778800     0.6709713    -0.4168286
  C        2.8020980    -1.6600160     0.5224700
  C       -1.1160006    -1.1184689    -0.3104944
  C       -1.7446880     1.2038920     0.0820450
  C       -2.4173070    -1.5045610    -0.1045420
  C       -3.3619920    -0.4731600     0.1685110
  H        3.3343810     0.7567850     1.4508530
  H        0.9047070     0.4438290     1.6934890
  H        0.9853290     2.1340670     1.1581470
  H        0.5274540     1.5132540    -1.1249130
  H        3.4174920    -0.3642830    -1.0666260
  H        1.9707490    -1.7331840     1.2432230
  H        3.7460890    -1.6095150     1.0882890
  H        3.1038510     2.7463240     0.1779830
  H       -0.3107400    -1.7892010    -0.5436980
  H        2.9100300    -3.5650720     0.1192120
  H       -2.7034680    -2.5490840    -0.1532500
  H       -5.0287110    -1.6377420    -0.0567190
  H       -5.2994710    -0.0137980     0.3861010
units angstrom
no_reorient  #important for SAPT in psi4, default
symmetry c1  #important for SAPT in psi4, default
}

set PROPERTIES_ORIGIN ["COM"]
properties('MP2/aug-cc-pvtz', properties = ['dipole'])
--------------------------------------------------------------------------

    Molecular point group: c1
  Charge       = 0
  Multiplicity = 1
  Basis Set: AUG-CC-PVTZ
    Blend: AUG-CC-PVTZ
  Basis Set: (AUG-CC-PVTZ AUX)
    Blend: AUG-CC-PVTZ-JKFIT

    Orbital Energies [Eh]
    ---------------------

    Doubly Occupied:

       1A    -20.578329     2A    -20.574435     3A    -20.574361
       4A    -20.502906     5A    -15.622219     6A    -15.587880
       7A    -15.540614     8A    -11.370150     9A    -11.344593
      10A    -11.330583    11A    -11.319186    12A    -11.301049
      13A    -11.297539    14A    -11.294108    15A    -11.237586
      16A    -11.236719    17A     -1.420184    18A     -1.382362
      19A     -1.373991    20A     -1.366938    21A     -1.291824
      22A     -1.261591    23A     -1.168837    24A     -1.078269
      25A     -1.068326    26A     -1.027431    27A     -0.926643
      28A     -0.899030    29A     -0.868928    30A     -0.830537
      31A     -0.806951    32A     -0.753727    33A     -0.739402
      34A     -0.721491    35A     -0.707318    36A     -0.693506
      37A     -0.689318    38A     -0.676602    39A     -0.657917
      40A     -0.636602    41A     -0.627448    42A     -0.619043
      43A     -0.605258    44A     -0.595682    45A     -0.589923
      46A     -0.571414    47A     -0.569784    48A     -0.545555
      49A     -0.532503    50A     -0.524007    51A     -0.509772
      52A     -0.486774    53A     -0.481739    54A     -0.469060
      55A     -0.461308    56A     -0.444092    57A     -0.437218
      58A     -0.416483    59A     -0.383219    60A     -0.333283

  @DF-RHF Final Energy:  -811.47885337756588

   => Energetics <=

    Nuclear Repulsion Energy =           1170.0032544270693506
    One-Electron Energy =               -3435.0371274141193680
    Two-Electron Energy =                1453.5550196094841340
    Total Energy =                       -811.4788533775658834
  Basis Set: (AUG-CC-PVTZ AUX)
    Blend: AUG-CC-PVTZ-RI
    Molecular point group: c1

    Geometry (in Angstrom), charge = 0, multiplicity = 1:

       Center              X                  Y                   Z               Mass
    ------------   -----------------  -----------------  -----------------  -----------------
         O            1.361264694459    -0.379235174046    -0.931625674050    15.994914619570
         O            3.201250694459     1.901988825954    -0.299294674050    15.994914619570
         O            2.798600694459    -2.748171174046    -0.399982674050    15.994914619570
         O           -1.362992305541     2.374780825954     0.155001325950    15.994914619570
         N           -0.799050305541     0.200193825954    -0.229037674050    14.003074004430
         N           -3.054978305541     0.806014825954     0.240230325950    14.003074004430
         N           -4.674216305541    -0.811659174046     0.412855325950    14.003074004430
         C            2.700788694459     0.876329825954     0.559692325950    12.000000000000
         C            1.236037694459     1.108001825954     0.888070325950    12.000000000000
         C            2.651012694459    -0.391515174046    -0.285251674050    12.000000000000
         C            0.577073694459     0.671747125954    -0.416610274050    12.000000000000
         C            2.801291694459    -1.659240174046     0.522688325950    12.000000000000
         C           -1.116806905541    -1.117693074046    -0.310276074050    12.000000000000
         C           -1.745494305541     1.204667825954     0.082263325950    12.000000000000
         C           -2.418113305541    -1.503785174046    -0.104323674050    12.000000000000
         C           -3.362798305541    -0.472384174046     0.168729325950    12.000000000000
         H            3.333574694459     0.757560825954     1.451071325950     1.007825032230
         H            0.903900694459     0.444604825954     1.693707325950     1.007825032230
         H            0.984522694459     2.134842825954     1.158365325950     1.007825032230
         H            0.526647694459     1.514029825954    -1.124694674050     1.007825032230
         H            3.416685694459    -0.363507174046    -1.066407674050     1.007825032230
         H            1.969942694459    -1.732408174046     1.243441325950     1.007825032230
         H            3.745282694459    -1.608739174046     1.088507325950     1.007825032230
         H            3.103044694459     2.747099825954     0.178201325950     1.007825032230
         H           -0.311546305541    -1.788425174046    -0.543479674050     1.007825032230
         H            2.909223694459    -3.564296174046     0.119430325950     1.007825032230
         H           -2.704274305541    -2.548308174046    -0.153031674050     1.007825032230
         H           -5.029517305541    -1.636966174046    -0.056500674050     1.007825032230
         H           -5.300277305541    -0.013022174046     0.386319325950     1.007825032230

  Basis Set: AUG-CC-PVTZ
    Blend: AUG-CC-PVTZ
  Basis Set: (AUG-CC-PVTZ AUX)
    Blend: AUG-CC-PVTZ-JKFIT
	 Reference Energy          =    -811.4788533775658834 [Eh]
	 Singles Energy            =      -0.0000000000000000 [Eh]
	 Same-Spin Energy          =      -0.8297737336463094 [Eh]
	 Opposite-Spin Energy      =      -2.5252153674084949 [Eh]
	 Correlation Energy        =      -3.3549891010548043 [Eh]
	 Total Energy              =    -814.8338424786206815 [Eh]

	 ================> DF-SCS-MP2 Energies <==================
	-----------------------------------------------------------
	 SCS Same-Spin Scale       =       0.3333333333333333 [-]
	 SCS Opposite-Spin Scale   =       1.2000000000000000 [-]
	 SCS Same-Spin Energy      =      -0.2765912445487698 [Eh]
	 SCS Opposite-Spin Energy  =      -3.0302584408901940 [Eh]
	 SCS Correlation Energy    =      -3.3068496854389640 [Eh]
	 SCS Total Energy          =    -814.7857030630048030 [Eh]
	-----------------------------------------------------------

  Dipole Moment: [D]
     X:     1.1373      Y:    -4.7044      Z:     2.4809     Total:     5.4387

*** Psi4 exiting successfully. Buy a developer a beer!
