                               Psi4 1.3.2 release

  ==> Input File <==

--------------------------------------------------------------------------
#psi4
#
memory 32 gb

molecule  {
0 1
  O        1.3620710    -0.3800110    -0.9318440
  O        3.2020570     1.9012130    -0.2995130
  O        2.7994070    -2.7489470    -0.4002010
  O       -1.3621860     2.3740050     0.1547830
  N       -0.7982440     0.1994180    -0.2292560
  N       -3.0541720     0.8052390     0.2400120
  N       -4.6734100    -0.8124350     0.4126370
  C        2.7015950     0.8755540     0.5594740
  C        1.2246991     1.0637223     0.8600914
  C        2.5989303    -0.3929597    -0.2796755
  C        0.5739580     0.6830040    -0.4149160
  C        2.8020980    -1.6600160     0.5224700
  C       -1.1273370    -1.1158190    -0.3082760
  C       -1.7446880     1.2038920     0.0820450
  C       -2.4173070    -1.5045610    -0.1045420
  C       -3.3619920    -0.4731600     0.1685110
  H        3.3343810     0.7567850     1.4508530
  H        0.9047070     0.4438290     1.6934890
  H        0.9853290     2.1340670     1.1581470
  H        0.5274540     1.5132540    -1.1249130
  H        3.4174920    -0.3642830    -1.0666260
  H        1.9707490    -1.7331840     1.2432230
  H        3.7460890    -1.6095150     1.0882890
  H        3.1038510     2.7463240     0.1779830
  H       -0.3107400    -1.7892010    -0.5436980
  H        2.9100300    -3.5650720     0.1192120
  H       -2.7034680    -2.5490840    -0.1532500
  H       -5.0287110    -1.6377420    -0.0567190
  H       -5.2994710    -0.0137980     0.3861010
units angstrom
no_reorient  #important for SAPT in psi4, default
symmetry c1  #important for SAPT in psi4, default
}

set PROPERTIES_ORIGIN ["COM"]
properties('MP2/aug-cc-pvtz', properties = ['dipole'])
--------------------------------------------------------------------------

    Molecular point group: c1
  Charge       = 0
  Multiplicity = 1
  Basis Set: AUG-CC-PVTZ
    Blend: AUG-CC-PVTZ
  Basis Set: (AUG-CC-PVTZ AUX)
    Blend: AUG-CC-PVTZ-JKFIT

    Orbital Energies [Eh]
    ---------------------

    Doubly Occupied:

       1A    -20.577108     2A    -20.576513     3A    -20.574646
       4A    -20.503888     5A    -15.622970     6A    -15.589200
       7A    -15.541784     8A    -11.370977     9A    -11.346071
      10A    -11.331828    11A    -11.319677    12A    -11.299875
      13A    -11.294986    14A    -11.292153    15A    -11.238237
      16A    -11.237585    17A     -1.430563    18A     -1.383828
      19A     -1.372655    20A     -1.367905    21A     -1.293614
      22A     -1.263707    23A     -1.170484    24A     -1.084571
      25A     -1.068952    26A     -1.029439    27A     -0.928194
      28A     -0.898960    29A     -0.868336    30A     -0.832772
      31A     -0.804354    32A     -0.755560    33A     -0.743019
      34A     -0.722032    35A     -0.707659    36A     -0.692422
      37A     -0.689584    38A     -0.676798    39A     -0.658605
      40A     -0.639030    41A     -0.632249    42A     -0.619199
      43A     -0.606699    44A     -0.597760    45A     -0.591458
      46A     -0.575436    47A     -0.565311    48A     -0.543373
      49A     -0.536162    50A     -0.519126    51A     -0.512082
      52A     -0.485330    53A     -0.476725    54A     -0.468008
      55A     -0.460031    56A     -0.443391    57A     -0.437919
      58A     -0.417003    59A     -0.385222    60A     -0.336381

  @DF-RHF Final Energy:  -811.47289378973085

   => Energetics <=

    Nuclear Repulsion Energy =           1172.0504975706985533
    One-Electron Energy =               -3439.0279654179989848
    Two-Electron Energy =                1455.5045740575696982
    Total Energy =                       -811.4728937897307333
  Basis Set: (AUG-CC-PVTZ AUX)
    Blend: AUG-CC-PVTZ-RI
    Molecular point group: c1

    Geometry (in Angstrom), charge = 0, multiplicity = 1:

       Center              X                  Y                   Z               Mass
    ------------   -----------------  -----------------  -----------------  -----------------
         O            1.365507511973    -0.377676863879    -0.930683225554    15.994914619570
         O            3.205493511973     1.903547136121    -0.298352225554    15.994914619570
         O            2.802843511973    -2.746612863879    -0.399040225554    15.994914619570
         O           -1.358749488027     2.376339136121     0.155943774446    15.994914619570
         N           -0.794807488027     0.201752136121    -0.228095225554    14.003074004430
         N           -3.050735488027     0.807573136121     0.241172774446    14.003074004430
         N           -4.669973488027    -0.810100863879     0.413797774446    14.003074004430
         C            2.705031511973     0.877888136121     0.560634774446    12.000000000000
         C            1.228135611973     1.066056436121     0.861252174446    12.000000000000
         C            2.602366811973    -0.390625563879    -0.278514725554    12.000000000000
         C            0.577394511973     0.685338136121    -0.413755225554    12.000000000000
         C            2.805534511973    -1.657681863879     0.523630774446    12.000000000000
         C           -1.123900488027    -1.113484863879    -0.307115225554    12.000000000000
         C           -1.741251488027     1.206226136121     0.083205774446    12.000000000000
         C           -2.413870488027    -1.502226863879    -0.103381225554    12.000000000000
         C           -3.358555488027    -0.470825863879     0.169671774446    12.000000000000
         H            3.337817511973     0.759119136121     1.452013774446     1.007825032230
         H            0.908143511973     0.446163136121     1.694649774446     1.007825032230
         H            0.988765511973     2.136401136121     1.159307774446     1.007825032230
         H            0.530890511973     1.515588136121    -1.123752225554     1.007825032230
         H            3.420928511973    -0.361948863879    -1.065465225554     1.007825032230
         H            1.974185511973    -1.730849863879     1.244383774446     1.007825032230
         H            3.749525511973    -1.607180863879     1.089449774446     1.007825032230
         H            3.107287511973     2.748658136121     0.179143774446     1.007825032230
         H           -0.307303488027    -1.786866863879    -0.542537225554     1.007825032230
         H            2.913466511973    -3.562737863879     0.120372774446     1.007825032230
         H           -2.700031488027    -2.546749863879    -0.152089225554     1.007825032230
         H           -5.025274488027    -1.635407863879    -0.055558225554     1.007825032230
         H           -5.296034488027    -0.011463863879     0.387261774446     1.007825032230

  Basis Set: AUG-CC-PVTZ
    Blend: AUG-CC-PVTZ
  Basis Set: (AUG-CC-PVTZ AUX)
    Blend: AUG-CC-PVTZ-JKFIT
	 Reference Energy          =    -811.4728937897308469 [Eh]
	 Singles Energy            =      -0.0000000000000000 [Eh]
	 Same-Spin Energy          =      -0.8303685225607167 [Eh]
	 Opposite-Spin Energy      =      -2.5255246330849701 [Eh]
	 Correlation Energy        =      -3.3558931556456866 [Eh]
	 Total Energy              =    -814.8287869453765779 [Eh]

	 ================> DF-SCS-MP2 Energies <==================
	-----------------------------------------------------------
	 SCS Same-Spin Scale       =       0.3333333333333333 [-]
	 SCS Opposite-Spin Scale   =       1.2000000000000000 [-]
	 SCS Same-Spin Energy      =      -0.2767895075202389 [Eh]
	 SCS Opposite-Spin Energy  =      -3.0306295597019641 [Eh]
	 SCS Correlation Energy    =      -3.3074190672222032 [Eh]
	 SCS Total Energy          =    -814.7803128569530600 [Eh]
	-----------------------------------------------------------

  Dipole Moment: [D]
     X:     0.8727      Y:    -4.6284      Z:     2.4954     Total:     5.3301

*** Psi4 exiting successfully. Buy a developer a beer!
