                               Psi4 1.3.2 release

  ==> Input File <==

--------------------------------------------------------------------------
#psi4
#
memory 32 gb

molecule  {
0 1
  O        1.3620710    -0.3800110    -0.9318440
  O        3.2020570     1.9012130    -0.2995130
  O        2.7994070    -2.7489470    -0.4002010
  O       -1.3621860     2.3740050     0.1547830
  N       -0.7982440     0.1994180    -0.2292560
  N       -3.0541720     0.8052390     0.2400120
  N       -4.6734100    -0.8124350     0.4126370
  C        2.7015950     0.8755540     0.5594740
  C        1.2368440     1.1072260     0.8878520
  C        2.6518190    -0.3922910    -0.2854700
  C        0.5739580     0.6830040    -0.4149160
  C        2.8020980    -1.6600160     0.5224700
  C       -1.1273370    -1.1158190    -0.3082760
  C       -1.7446880     1.2038920     0.0820450
  C       -2.4173070    -1.5045610    -0.1045420
  C       -3.3619920    -0.4731600     0.1685110
  H        3.3343810     0.7567850     1.4508530
  H        0.9350336     0.5044022     1.6199282
  H        0.9853290     2.1340670     1.1581470
  H        0.5274540     1.5132540    -1.1249130
  H        3.4174920    -0.3642830    -1.0666260
  H        1.9707490    -1.7331840     1.2432230
  H        3.7460890    -1.6095150     1.0882890
  H        3.1038510     2.7463240     0.1779830
  H       -0.3107400    -1.7892010    -0.5436980
  H        2.9100300    -3.5650720     0.1192120
  H       -2.7034680    -2.5490840    -0.1532500
  H       -5.0287110    -1.6377420    -0.0567190
  H       -5.2994710    -0.0137980     0.3861010
units angstrom
no_reorient  #important for SAPT in psi4, default
symmetry c1  #important for SAPT in psi4, default
}

set PROPERTIES_ORIGIN ["COM"]
properties('MP2/aug-cc-pvtz', properties = ['dipole'])
--------------------------------------------------------------------------

    Molecular point group: c1
  Charge       = 0
  Multiplicity = 1
  Basis Set: AUG-CC-PVTZ
    Blend: AUG-CC-PVTZ
  Basis Set: (AUG-CC-PVTZ AUX)
    Blend: AUG-CC-PVTZ-JKFIT

    Orbital Energies [Eh]
    ---------------------

    Doubly Occupied:

       1A    -20.577981     2A    -20.573385     3A    -20.572663
       4A    -20.503020     5A    -15.621811     6A    -15.588394
       7A    -15.540842     8A    -11.369895     9A    -11.345075
      10A    -11.329801    11A    -11.318332    12A    -11.300126
      13A    -11.297206    14A    -11.292938    15A    -11.237077
      16A    -11.224388    17A     -1.416476    18A     -1.382333
      19A     -1.373385    20A     -1.365329    21A     -1.292254
      22A     -1.261475    23A     -1.169172    24A     -1.082325
      25A     -1.069203    26A     -1.029943    27A     -0.926713
      28A     -0.897989    29A     -0.871320    30A     -0.834960
      31A     -0.806120    32A     -0.754645    33A     -0.739534
      34A     -0.720898    35A     -0.707024    36A     -0.692953
      37A     -0.690920    38A     -0.677471    39A     -0.657340
      40A     -0.638540    41A     -0.630812    42A     -0.619552
      43A     -0.605477    44A     -0.595272    45A     -0.588661
      46A     -0.572825    47A     -0.568627    48A     -0.546125
      49A     -0.535421    50A     -0.524004    51A     -0.512834
      52A     -0.485757    53A     -0.481917    54A     -0.469239
      55A     -0.460727    56A     -0.444327    57A     -0.437751
      58A     -0.416345    59A     -0.383689    60A     -0.334920

  @DF-RHF Final Energy:  -811.47349813270841

   => Energetics <=

    Nuclear Repulsion Energy =           1170.4794744767405064
    One-Electron Energy =               -3435.9748745191814123
    Two-Electron Energy =                1454.0219019097326054
    Total Energy =                       -811.4734981327083005
  Basis Set: (AUG-CC-PVTZ AUX)
    Blend: AUG-CC-PVTZ-RI
    Molecular point group: c1

    Geometry (in Angstrom), charge = 0, multiplicity = 1:

       Center              X                  Y                   Z               Mass
    ------------   -----------------  -----------------  -----------------  -----------------
         O            1.361936395046    -0.380279860092    -0.931517503940    15.994914619570
         O            3.201922395046     1.900944139908    -0.299186503940    15.994914619570
         O            2.799272395046    -2.749215860092    -0.399874503940    15.994914619570
         O           -1.362320604954     2.373736139908     0.155109496060    15.994914619570
         N           -0.798378604954     0.199149139908    -0.228929503940    14.003074004430
         N           -3.054306604954     0.804970139908     0.240338496060    14.003074004430
         N           -4.673544604954    -0.812703860092     0.412963496060    14.003074004430
         C            2.701460395046     0.875285139908     0.559800496060    12.000000000000
         C            1.236709395046     1.106957139908     0.888178496060    12.000000000000
         C            2.651684395046    -0.392559860092    -0.285143503940    12.000000000000
         C            0.573823395046     0.682735139908    -0.414589503940    12.000000000000
         C            2.801963395046    -1.660284860092     0.522796496060    12.000000000000
         C           -1.127471604954    -1.116087860092    -0.307949503940    12.000000000000
         C           -1.744822604954     1.203623139908     0.082371496060    12.000000000000
         C           -2.417441604954    -1.504829860092    -0.104215503940    12.000000000000
         C           -3.362126604954    -0.473428860092     0.168837496060    12.000000000000
         H            3.334246395046     0.756516139908     1.451179496060     1.007825032230
         H            0.934898995046     0.504133339908     1.620254696060     1.007825032230
         H            0.985194395046     2.133798139908     1.158473496060     1.007825032230
         H            0.527319395046     1.512985139908    -1.124586503940     1.007825032230
         H            3.417357395046    -0.364551860092    -1.066299503940     1.007825032230
         H            1.970614395046    -1.733452860092     1.243549496060     1.007825032230
         H            3.745954395046    -1.609783860092     1.088615496060     1.007825032230
         H            3.103716395046     2.746055139908     0.178309496060     1.007825032230
         H           -0.310874604954    -1.789469860092    -0.543371503940     1.007825032230
         H            2.909895395046    -3.565340860092     0.119538496060     1.007825032230
         H           -2.703602604954    -2.549352860092    -0.152923503940     1.007825032230
         H           -5.028845604954    -1.638010860092    -0.056392503940     1.007825032230
         H           -5.299605604954    -0.014066860092     0.386427496060     1.007825032230

  Basis Set: AUG-CC-PVTZ
    Blend: AUG-CC-PVTZ
  Basis Set: (AUG-CC-PVTZ AUX)
    Blend: AUG-CC-PVTZ-JKFIT
	 Reference Energy          =    -811.4734981327084142 [Eh]
	 Singles Energy            =      -0.0000000000000000 [Eh]
	 Same-Spin Energy          =      -0.8295522580645307 [Eh]
	 Opposite-Spin Energy      =      -2.5245175208554311 [Eh]
	 Correlation Energy        =      -3.3540697789199618 [Eh]
	 Total Energy              =    -814.8275679116284209 [Eh]

	 ================> DF-SCS-MP2 Energies <==================
	-----------------------------------------------------------
	 SCS Same-Spin Scale       =       0.3333333333333333 [-]
	 SCS Opposite-Spin Scale   =       1.2000000000000000 [-]
	 SCS Same-Spin Energy      =      -0.2765174193548435 [Eh]
	 SCS Opposite-Spin Energy  =      -3.0294210250265174 [Eh]
	 SCS Correlation Energy    =      -3.3059384443813609 [Eh]
	 SCS Total Energy          =    -814.7794365770897684 [Eh]
	-----------------------------------------------------------

  Dipole Moment: [D]
     X:     1.0635      Y:    -4.7013      Z:     2.5168     Total:     5.4376

*** Psi4 exiting successfully. Buy a developer a beer!
