                               Psi4 1.3.2 release

  ==> Input File <==

--------------------------------------------------------------------------
#psi4
#
memory 32 gb

molecule  {
0 1
  O        1.3620710    -0.3800110    -0.9318440
  O        3.2020570     1.9012130    -0.2995130
  O        2.7994070    -2.7489470    -0.4002010
  O       -1.3621860     2.3740050     0.1547830
  N       -0.7982440     0.1994180    -0.2292560
  N       -3.0541720     0.8052390     0.2400120
  N       -4.6734100    -0.8124350     0.4126370
  C        2.6963766     0.8928177     0.5766853
  C        1.2368440     1.1072260     0.8878520
  C        2.6518190    -0.3922910    -0.2854700
  C        0.5739580     0.6830040    -0.4149160
  C        2.8020980    -1.6600160     0.5224700
  C       -1.1273370    -1.1158190    -0.3082760
  C       -1.7446880     1.2038920     0.0820450
  C       -2.4173070    -1.5045610    -0.1045420
  C       -3.3619920    -0.4731600     0.1685110
  H        3.3343810     0.7567850     1.4508530
  H        0.9047070     0.4438290     1.6934890
  H        0.9853290     2.1340670     1.1581470
  H        0.5274540     1.5132540    -1.1249130
  H        3.4174920    -0.3642830    -1.0666260
  H        1.9707490    -1.7331840     1.2432230
  H        3.7460890    -1.6095150     1.0882890
  H        3.0971035     2.7379199     0.1911659
  H       -0.3107400    -1.7892010    -0.5436980
  H        2.9100300    -3.5650720     0.1192120
  H       -2.7034680    -2.5490840    -0.1532500
  H       -5.0287110    -1.6377420    -0.0567190
  H       -5.2994710    -0.0137980     0.3861010
units angstrom
no_reorient  #important for SAPT in psi4, default
symmetry c1  #important for SAPT in psi4, default
}

set PROPERTIES_ORIGIN ["COM"]
properties('MP2/aug-cc-pvtz', properties = ['dipole'])
--------------------------------------------------------------------------

    Molecular point group: c1
  Charge       = 0
  Multiplicity = 1
  Basis Set: AUG-CC-PVTZ
    Blend: AUG-CC-PVTZ
  Basis Set: (AUG-CC-PVTZ AUX)
    Blend: AUG-CC-PVTZ-JKFIT

    Orbital Energies [Eh]
    ---------------------

    Doubly Occupied:

       1A    -20.577355     2A    -20.575535     3A    -20.572746
       4A    -20.503141     5A    -15.621911     6A    -15.588447
       7A    -15.540892     8A    -11.370011     9A    -11.345146
      10A    -11.331089    11A    -11.318397    12A    -11.300539
      13A    -11.296213    14A    -11.293327    15A    -11.237136
      16A    -11.236805    17A     -1.416170    18A     -1.382609
      19A     -1.373975    20A     -1.366139    21A     -1.292319
      22A     -1.261499    23A     -1.169200    24A     -1.079522
      25A     -1.067333    26A     -1.027767    27A     -0.926623
      28A     -0.897169    29A     -0.867947    30A     -0.830356
      31A     -0.807156    32A     -0.754324    33A     -0.739189
      34A     -0.720313    35A     -0.706565    36A     -0.692479
      37A     -0.687951    38A     -0.675769    39A     -0.656763
      40A     -0.637714    41A     -0.628457    42A     -0.619308
      43A     -0.604719    44A     -0.594755    45A     -0.589153
      46A     -0.573728    47A     -0.569550    48A     -0.544568
      49A     -0.532861    50A     -0.522569    51A     -0.510719
      52A     -0.483854    53A     -0.480759    54A     -0.468789
      55A     -0.462664    56A     -0.444898    57A     -0.437472
      58A     -0.416456    59A     -0.383939    60A     -0.335115

  @DF-RHF Final Energy:  -811.47839535578078

   => Energetics <=

    Nuclear Repulsion Energy =           1169.7234575866482373
    One-Electron Energy =               -3434.5039568328297719
    Two-Electron Energy =                1453.3021038904007582
    Total Energy =                       -811.4783953557807763
  Basis Set: (AUG-CC-PVTZ AUX)
    Blend: AUG-CC-PVTZ-RI
    Molecular point group: c1

    Geometry (in Angstrom), charge = 0, multiplicity = 1:

       Center              X                  Y                   Z               Mass
    ------------   -----------------  -----------------  -----------------  -----------------
         O            1.362376681890    -0.380885994150    -0.932811956747    15.994914619570
         O            3.202362681890     1.900338005850    -0.300480956747    15.994914619570
         O            2.799712681890    -2.749821994150    -0.401168956747    15.994914619570
         O           -1.361880318110     2.373130005850     0.153815043253    15.994914619570
         N           -0.797938318110     0.198543005850    -0.230223956747    14.003074004430
         N           -3.053866318110     0.804364005850     0.239044043253    14.003074004430
         N           -4.673104318110    -0.813309994150     0.411669043253    14.003074004430
         C            2.696682281890     0.891942705850     0.575717343253    12.000000000000
         C            1.237149681890     1.106351005850     0.886884043253    12.000000000000
         C            2.652124681890    -0.393165994150    -0.286437956747    12.000000000000
         C            0.574263681890     0.682129005850    -0.415883956747    12.000000000000
         C            2.802403681890    -1.660890994150     0.521502043253    12.000000000000
         C           -1.127031318110    -1.116693994150    -0.309243956747    12.000000000000
         C           -1.744382318110     1.203017005850     0.081077043253    12.000000000000
         C           -2.417001318110    -1.505435994150    -0.105509956747    12.000000000000
         C           -3.361686318110    -0.474034994150     0.167543043253    12.000000000000
         H            3.334686681890     0.755910005850     1.449885043253     1.007825032230
         H            0.905012681890     0.442954005850     1.692521043253     1.007825032230
         H            0.985634681890     2.133192005850     1.157179043253     1.007825032230
         H            0.527759681890     1.512379005850    -1.125880956747     1.007825032230
         H            3.417797681890    -0.365157994150    -1.067593956747     1.007825032230
         H            1.971054681890    -1.734058994150     1.242255043253     1.007825032230
         H            3.746394681890    -1.610389994150     1.087321043253     1.007825032230
         H            3.097409181890     2.737044905850     0.190197943253     1.007825032230
         H           -0.310434318110    -1.790075994150    -0.544665956747     1.007825032230
         H            2.910335681890    -3.565946994150     0.118244043253     1.007825032230
         H           -2.703162318110    -2.549958994150    -0.154217956747     1.007825032230
         H           -5.028405318110    -1.638616994150    -0.057686956747     1.007825032230
         H           -5.299165318110    -0.014672994150     0.385133043253     1.007825032230

  Basis Set: AUG-CC-PVTZ
    Blend: AUG-CC-PVTZ
  Basis Set: (AUG-CC-PVTZ AUX)
    Blend: AUG-CC-PVTZ-JKFIT
	 Reference Energy          =    -811.4783953557807763 [Eh]
	 Singles Energy            =      -0.0000000000000000 [Eh]
	 Same-Spin Energy          =      -0.8297076781839310 [Eh]
	 Opposite-Spin Energy      =      -2.5253643596846835 [Eh]
	 Correlation Energy        =      -3.3550720378686147 [Eh]
	 Total Energy              =    -814.8334673936493573 [Eh]

	 ================> DF-SCS-MP2 Energies <==================
	-----------------------------------------------------------
	 SCS Same-Spin Scale       =       0.3333333333333333 [-]
	 SCS Opposite-Spin Scale   =       1.2000000000000000 [-]
	 SCS Same-Spin Energy      =      -0.2765692260613103 [Eh]
	 SCS Opposite-Spin Energy  =      -3.0304372316216202 [Eh]
	 SCS Correlation Energy    =      -3.3070064576829306 [Eh]
	 SCS Total Energy          =    -814.7854018134637499 [Eh]
	-----------------------------------------------------------

  Dipole Moment: [D]
     X:     1.0511      Y:    -4.6743      Z:     2.5106     Total:     5.4090

*** Psi4 exiting successfully. Buy a developer a beer!
