                               Psi4 1.3.2 release

  ==> Input File <==

--------------------------------------------------------------------------
#psi4
#
memory 32 gb

molecule  {
0 1
  O        1.3620710    -0.3800110    -0.9318440
  O        3.2020570     1.9012130    -0.2995130
  O        2.7994070    -2.7489470    -0.4002010
  O       -1.3621860     2.3740050     0.1547830
  N       -0.7757585     0.1938820    -0.2343130
  N       -3.0541720     0.8052390     0.2400120
  N       -4.6734100    -0.8124350     0.4126370
  C        2.7015950     0.8755540     0.5594740
  C        1.2368440     1.1072260     0.8878520
  C        2.6518190    -0.3922910    -0.2854700
  C        0.5739580     0.6830040    -0.4149160
  C        2.8020980    -1.6600160     0.5224700
  C       -1.1273370    -1.1158190    -0.3082760
  C       -1.7446880     1.2038920     0.0820450
  C       -2.4173070    -1.5045610    -0.1045420
  C       -3.3619920    -0.4731600     0.1685110
  H        3.3343810     0.7567850     1.4508530
  H        0.9047070     0.4438290     1.6934890
  H        0.9853290     2.1340670     1.1581470
  H        0.5274540     1.5132540    -1.1249130
  H        3.4174920    -0.3642830    -1.0666260
  H        1.9707490    -1.7331840     1.2432230
  H        3.7460890    -1.6095150     1.0882890
  H        3.1038510     2.7463240     0.1779830
  H       -0.2989627    -1.7744050    -0.5444072
  H        2.9100300    -3.5650720     0.1192120
  H       -2.7034680    -2.5490840    -0.1532500
  H       -5.0287110    -1.6377420    -0.0567190
  H       -5.2994710    -0.0137980     0.3861010
units angstrom
no_reorient  #important for SAPT in psi4, default
symmetry c1  #important for SAPT in psi4, default
}

set PROPERTIES_ORIGIN ["COM"]
properties('MP2/aug-cc-pvtz', properties = ['dipole'])
--------------------------------------------------------------------------

    Molecular point group: c1
  Charge       = 0
  Multiplicity = 1
  Basis Set: AUG-CC-PVTZ
    Blend: AUG-CC-PVTZ
  Basis Set: (AUG-CC-PVTZ AUX)
    Blend: AUG-CC-PVTZ-JKFIT

    Orbital Energies [Eh]
    ---------------------

    Doubly Occupied:

       1A    -20.577427     2A    -20.574079     3A    -20.571996
       4A    -20.505199     5A    -15.621239     6A    -15.588982
       7A    -15.541829     8A    -11.372180     9A    -11.345903
      10A    -11.329079    11A    -11.318285    12A    -11.300498
      13A    -11.296517    14A    -11.292530    15A    -11.236828
      16A    -11.236282    17A     -1.416893    18A     -1.381791
      19A     -1.373266    20A     -1.365510    21A     -1.292283
      22A     -1.262240    23A     -1.170349    24A     -1.079149
      25A     -1.069051    26A     -1.026538    27A     -0.927966
      28A     -0.894998    29A     -0.868995    30A     -0.831322
      31A     -0.805940    32A     -0.754225    33A     -0.738612
      34A     -0.720632    35A     -0.707109    36A     -0.692962
      37A     -0.689341    38A     -0.675640    39A     -0.655523
      40A     -0.636990    41A     -0.626758    42A     -0.618780
      43A     -0.604079    44A     -0.595208    45A     -0.588458
      46A     -0.575265    47A     -0.568093    48A     -0.544811
      49A     -0.532433    50A     -0.524015    51A     -0.510240
      52A     -0.485546    53A     -0.482858    54A     -0.468174
      55A     -0.460832    56A     -0.445128    57A     -0.437668
      58A     -0.416795    59A     -0.384242    60A     -0.334350

  @DF-RHF Final Energy:  -811.47830465622496

   => Energetics <=

    Nuclear Repulsion Energy =           1170.0422808821856506
    One-Electron Energy =               -3435.1413501880447257
    Two-Electron Energy =                1453.6207646496343386
    Total Energy =                       -811.4783046562249638
  Basis Set: (AUG-CC-PVTZ AUX)
    Blend: AUG-CC-PVTZ-RI
    Molecular point group: c1

    Geometry (in Angstrom), charge = 0, multiplicity = 1:

       Center              X                  Y                   Z               Mass
    ------------   -----------------  -----------------  -----------------  -----------------
         O            1.360632194591    -0.379735335473    -0.931528988876    15.994914619570
         O            3.200618194591     1.901488664527    -0.299197988876    15.994914619570
         O            2.797968194591    -2.748671335473    -0.399885988876    15.994914619570
         O           -1.363624805409     2.374280664527     0.155098011124    15.994914619570
         N           -0.777197305409     0.194157664527    -0.233997988876    14.003074004430
         N           -3.055610805409     0.805514664527     0.240327011124    14.003074004430
         N           -4.674848805409    -0.812159335473     0.412952011124    14.003074004430
         C            2.700156194591     0.875829664527     0.559789011124    12.000000000000
         C            1.235405194591     1.107501664527     0.888167011124    12.000000000000
         C            2.650380194591    -0.392015335473    -0.285154988876    12.000000000000
         C            0.572519194591     0.683279664527    -0.414600988876    12.000000000000
         C            2.800659194591    -1.659740335473     0.522785011124    12.000000000000
         C           -1.128775805409    -1.115543335473    -0.307960988876    12.000000000000
         C           -1.746126805409     1.204167664527     0.082360011124    12.000000000000
         C           -2.418745805409    -1.504285335473    -0.104226988876    12.000000000000
         C           -3.363430805409    -0.472884335473     0.168826011124    12.000000000000
         H            3.332942194591     0.757060664527     1.451168011124     1.007825032230
         H            0.903268194591     0.444104664527     1.693804011124     1.007825032230
         H            0.983890194591     2.134342664527     1.158462011124     1.007825032230
         H            0.526015194591     1.513529664527    -1.124597988876     1.007825032230
         H            3.416053194591    -0.364007335473    -1.066310988876     1.007825032230
         H            1.969310194591    -1.732908335473     1.243538011124     1.007825032230
         H            3.744650194591    -1.609239335473     1.088604011124     1.007825032230
         H            3.102412194591     2.746599664527     0.178298011124     1.007825032230
         H           -0.300401505409    -1.774129335473    -0.544092188876     1.007825032230
         H            2.908591194591    -3.564796335473     0.119527011124     1.007825032230
         H           -2.704906805409    -2.548808335473    -0.152934988876     1.007825032230
         H           -5.030149805409    -1.637466335473    -0.056403988876     1.007825032230
         H           -5.300909805409    -0.013522335473     0.386416011124     1.007825032230

  Basis Set: AUG-CC-PVTZ
    Blend: AUG-CC-PVTZ
  Basis Set: (AUG-CC-PVTZ AUX)
    Blend: AUG-CC-PVTZ-JKFIT
	 Reference Energy          =    -811.4783046562249638 [Eh]
	 Singles Energy            =      -0.0000000000000000 [Eh]
	 Same-Spin Energy          =      -0.8297979771189837 [Eh]
	 Opposite-Spin Energy      =      -2.5254193276339860 [Eh]
	 Correlation Energy        =      -3.3552173047529696 [Eh]
	 Total Energy              =    -814.8335219609779188 [Eh]

	 ================> DF-SCS-MP2 Energies <==================
	-----------------------------------------------------------
	 SCS Same-Spin Scale       =       0.3333333333333333 [-]
	 SCS Opposite-Spin Scale   =       1.2000000000000000 [-]
	 SCS Same-Spin Energy      =      -0.2765993257063279 [Eh]
	 SCS Opposite-Spin Energy  =      -3.0305031931607833 [Eh]
	 SCS Correlation Energy    =      -3.3071025188671110 [Eh]
	 SCS Total Energy          =    -814.7854071750920184 [Eh]
	-----------------------------------------------------------

  Dipole Moment: [D]
     X:     1.0145      Y:    -4.6077      Z:     2.5040     Total:     5.3413

*** Psi4 exiting successfully. Buy a developer a beer!
