                               Psi4 1.3.2 release

  ==> Input File <==

--------------------------------------------------------------------------
#psi4
#
memory 32 gb

molecule  {
0 1
  O        1.3620710    -0.3800110    -0.9318440
  O        3.2020570     1.9012130    -0.2995130
  O        2.7994070    -2.7489470    -0.4002010
  O       -1.3621860     2.3740050     0.1547830
  N       -0.7895643     0.1817483    -0.2128932
  N       -3.0541720     0.8052390     0.2400120
  N       -4.6734100    -0.8124350     0.4126370
  C        2.7015950     0.8755540     0.5594740
  C        1.2368440     1.1072260     0.8878520
  C        2.6518190    -0.3922910    -0.2854700
  C        0.5739580     0.6830040    -0.4149160
  C        2.8020980    -1.6600160     0.5224700
  C       -1.1273370    -1.1158190    -0.3082760
  C       -1.7446880     1.2038920     0.0820450
  C       -2.4173070    -1.5045610    -0.1045420
  C       -3.3619920    -0.4731600     0.1685110
  H        3.3343810     0.7567850     1.4508530
  H        0.9047070     0.4438290     1.6934890
  H        0.9853290     2.1340670     1.1581470
  H        0.5463807     1.5152712    -1.1235373
  H        3.4174920    -0.3642830    -1.0666260
  H        1.9707490    -1.7331840     1.2432230
  H        3.7460890    -1.6095150     1.0882890
  H        3.1038510     2.7463240     0.1779830
  H       -0.3107400    -1.7892010    -0.5436980
  H        2.9100300    -3.5650720     0.1192120
  H       -2.7034680    -2.5490840    -0.1532500
  H       -5.0287110    -1.6377420    -0.0567190
  H       -5.2994710    -0.0137980     0.3861010
units angstrom
no_reorient  #important for SAPT in psi4, default
symmetry c1  #important for SAPT in psi4, default
}

set PROPERTIES_ORIGIN ["COM"]
properties('MP2/aug-cc-pvtz', properties = ['dipole'])
--------------------------------------------------------------------------

    Molecular point group: c1
  Charge       = 0
  Multiplicity = 1
  Basis Set: AUG-CC-PVTZ
    Blend: AUG-CC-PVTZ
  Basis Set: (AUG-CC-PVTZ AUX)
    Blend: AUG-CC-PVTZ-JKFIT

    Orbital Energies [Eh]
    ---------------------

    Doubly Occupied:

       1A    -20.577618     2A    -20.574582     3A    -20.572434
       4A    -20.505549     5A    -15.622560     6A    -15.587895
       7A    -15.540742     8A    -11.372081     9A    -11.344613
      10A    -11.331331    11A    -11.317064    12A    -11.300889
      13A    -11.296742    14A    -11.292921    15A    -11.236703
      16A    -11.235066    17A     -1.416827    18A     -1.382387
      19A     -1.373584    20A     -1.365846    21A     -1.293396
      22A     -1.262817    23A     -1.169171    24A     -1.079177
      25A     -1.068683    26A     -1.027166    27A     -0.927051
      28A     -0.896379    29A     -0.868740    30A     -0.831234
      31A     -0.806190    32A     -0.753898    33A     -0.740114
      34A     -0.721138    35A     -0.706449    36A     -0.693084
      37A     -0.689648    38A     -0.675428    39A     -0.655480
      40A     -0.636852    41A     -0.627435    42A     -0.618743
      43A     -0.604318    44A     -0.594883    45A     -0.589087
      46A     -0.574298    47A     -0.568000    48A     -0.544989
      49A     -0.532147    50A     -0.524302    51A     -0.510531
      52A     -0.486175    53A     -0.484301    54A     -0.468475
      55A     -0.461459    56A     -0.445203    57A     -0.437936
      58A     -0.416127    59A     -0.383949    60A     -0.333648

  @DF-RHF Final Energy:  -811.47877289318922

   => Energetics <=

    Nuclear Repulsion Energy =           1170.0070099774784467
    One-Electron Energy =               -3435.0604989104008382
    Two-Electron Energy =                1453.5747160397331754
    Total Energy =                       -811.4787728931892161
  Basis Set: (AUG-CC-PVTZ AUX)
    Blend: AUG-CC-PVTZ-RI
    Molecular point group: c1

    Geometry (in Angstrom), charge = 0, multiplicity = 1:

       Center              X                  Y                   Z               Mass
    ------------   -----------------  -----------------  -----------------  -----------------
         O            1.361451771843    -0.378930423738    -0.932859049438    15.994914619570
         O            3.201437771843     1.902293576262    -0.300528049438    15.994914619570
         O            2.798787771843    -2.747866423738    -0.401216049438    15.994914619570
         O           -1.362805228157     2.375085576262     0.153767950562    15.994914619570
         N           -0.790183528157     0.182828876262    -0.213908249438    14.003074004430
         N           -3.054791228157     0.806319576262     0.238996950562    14.003074004430
         N           -4.674029228157    -0.811354423738     0.411621950562    14.003074004430
         C            2.700975771843     0.876634576262     0.558458950562    12.000000000000
         C            1.236224771843     1.108306576262     0.886836950562    12.000000000000
         C            2.651199771843    -0.391210423738    -0.286485049438    12.000000000000
         C            0.573338771843     0.684084576262    -0.415931049438    12.000000000000
         C            2.801478771843    -1.658935423738     0.521454950562    12.000000000000
         C           -1.127956228157    -1.114738423738    -0.309291049438    12.000000000000
         C           -1.745307228157     1.204972576262     0.081029950562    12.000000000000
         C           -2.417926228157    -1.503480423738    -0.105557049438    12.000000000000
         C           -3.362611228157    -0.472079423738     0.167495950562    12.000000000000
         H            3.333761771843     0.757865576262     1.449837950562     1.007825032230
         H            0.904087771843     0.444909576262     1.692473950562     1.007825032230
         H            0.984709771843     2.135147576262     1.157131950562     1.007825032230
         H            0.545761471843     1.516351776262    -1.124552349438     1.007825032230
         H            3.416872771843    -0.363202423738    -1.067641049438     1.007825032230
         H            1.970129771843    -1.732103423738     1.242207950562     1.007825032230
         H            3.745469771843    -1.608434423738     1.087273950562     1.007825032230
         H            3.103231771843     2.747404576262     0.176967950562     1.007825032230
         H           -0.311359228157    -1.788120423738    -0.544713049438     1.007825032230
         H            2.909410771843    -3.563991423738     0.118196950562     1.007825032230
         H           -2.704087228157    -2.548003423738    -0.154265049438     1.007825032230
         H           -5.029330228157    -1.636661423738    -0.057734049438     1.007825032230
         H           -5.300090228157    -0.012717423738     0.385085950562     1.007825032230

  Basis Set: AUG-CC-PVTZ
    Blend: AUG-CC-PVTZ
  Basis Set: (AUG-CC-PVTZ AUX)
    Blend: AUG-CC-PVTZ-JKFIT
	 Reference Energy          =    -811.4787728931892161 [Eh]
	 Singles Energy            =      -0.0000000000000000 [Eh]
	 Same-Spin Energy          =      -0.8297864100284285 [Eh]
	 Opposite-Spin Energy      =      -2.5252763642937115 [Eh]
	 Correlation Energy        =      -3.3550627743221400 [Eh]
	 Total Energy              =    -814.8338356675113801 [Eh]

	 ================> DF-SCS-MP2 Energies <==================
	-----------------------------------------------------------
	 SCS Same-Spin Scale       =       0.3333333333333333 [-]
	 SCS Opposite-Spin Scale   =       1.2000000000000000 [-]
	 SCS Same-Spin Energy      =      -0.2765954700094762 [Eh]
	 SCS Opposite-Spin Energy  =      -3.0303316371524538 [Eh]
	 SCS Correlation Energy    =      -3.3069271071619299 [Eh]
	 SCS Total Energy          =    -814.7857000003511985 [Eh]
	-----------------------------------------------------------

  Dipole Moment: [D]
     X:     1.1016      Y:    -4.5905      Z:     2.4852     Total:     5.3350

*** Psi4 exiting successfully. Buy a developer a beer!
