                               Psi4 1.3.2 release

  ==> Input File <==

--------------------------------------------------------------------------
#psi4
#
memory 32 gb

molecule  {
0 1
  O        1.3620710    -0.3800110    -0.9318440
  O        3.2020570     1.9012130    -0.2995130
  O        2.7994070    -2.7489470    -0.4002010
  O       -1.3621860     2.3740050     0.1547830
  N       -0.7869883     0.1967000    -0.2317816
  N       -3.0541720     0.8052390     0.2400120
  N       -4.6734100    -0.8124350     0.4126370
  C        2.7015950     0.8755540     0.5594740
  C        1.2368440     1.1072260     0.8878520
  C        2.6518190    -0.3922910    -0.2854700
  C        0.5739580     0.6830040    -0.4149160
  C        2.8020980    -1.6600160     0.5224700
  C       -1.1273370    -1.1158190    -0.3082760
  C       -1.7446880     1.2038920     0.0820450
  C       -2.4173070    -1.5045610    -0.1045420
  C       -3.3619920    -0.4731600     0.1685110
  H        3.3343810     0.7567850     1.4508530
  H        0.9047070     0.4438290     1.6934890
  H        0.9853290     2.1340670     1.1581470
  H        0.5274540     1.5132540    -1.1249130
  H        3.4174920    -0.3642830    -1.0666260
  H        1.9707490    -1.7331840     1.2432230
  H        3.7460890    -1.6095150     1.0882890
  H        3.1038510     2.7463240     0.1779830
  H       -0.3048200    -1.7818284    -0.5440616
  H        2.9100300    -3.5650720     0.1192120
  H       -2.7034680    -2.5490840    -0.1532500
  H       -5.0287110    -1.6377420    -0.0567190
  H       -5.2994710    -0.0137980     0.3861010
units angstrom
no_reorient  #important for SAPT in psi4, default
symmetry c1  #important for SAPT in psi4, default
}

set PROPERTIES_ORIGIN ["COM"]
properties('MP2/aug-cc-pvtz', properties = ['dipole'])
--------------------------------------------------------------------------

    Molecular point group: c1
  Charge       = 0
  Multiplicity = 1
  Basis Set: AUG-CC-PVTZ
    Blend: AUG-CC-PVTZ
  Basis Set: (AUG-CC-PVTZ AUX)
    Blend: AUG-CC-PVTZ-JKFIT

    Orbital Energies [Eh]
    ---------------------

    Doubly Occupied:

       1A    -20.577591     2A    -20.574209     3A    -20.572438
       4A    -20.504121     5A    -15.621492     6A    -15.588666
       7A    -15.541309     8A    -11.371043     9A    -11.345467
      10A    -11.329906    11A    -11.318274    12A    -11.300676
      13A    -11.296692    14A    -11.292803    15A    -11.236915
      16A    -11.236533    17A     -1.416763    18A     -1.382092
      19A     -1.373420    20A     -1.365604    21A     -1.292245
      22A     -1.261819    23A     -1.169728    24A     -1.079050
      25A     -1.068981    26A     -1.027240    27A     -0.927360
      28A     -0.896213    29A     -0.869001    30A     -0.831060
      31A     -0.806158    32A     -0.754194    33A     -0.738667
      34A     -0.720783    35A     -0.706961    36A     -0.692885
      37A     -0.689317    38A     -0.675723    39A     -0.656067
      40A     -0.637067    41A     -0.627159    42A     -0.618646
      43A     -0.604335    44A     -0.595131    45A     -0.588577
      46A     -0.574058    47A     -0.568432    48A     -0.544832
      49A     -0.532479    50A     -0.523886    51A     -0.510310
      52A     -0.485706    53A     -0.482488    54A     -0.468339
      55A     -0.460974    56A     -0.444788    57A     -0.437766
      58A     -0.416591    59A     -0.383989    60A     -0.334636

  @DF-RHF Final Energy:  -811.47903647343492

   => Energetics <=

    Nuclear Repulsion Energy =           1169.9891680724033449
    One-Electron Energy =               -3435.0371043080017444
    Two-Electron Energy =                1453.5688997621632552
    Total Energy =                       -811.4790364734349168
  Basis Set: (AUG-CC-PVTZ AUX)
    Blend: AUG-CC-PVTZ-RI
    Molecular point group: c1

    Geometry (in Angstrom), charge = 0, multiplicity = 1:

       Center              X                  Y                   Z               Mass
    ------------   -----------------  -----------------  -----------------  -----------------
         O            1.361350651673    -0.379876156684    -0.931686616205    15.994914619570
         O            3.201336651673     1.901347843316    -0.299355616205    15.994914619570
         O            2.798686651673    -2.748812156684    -0.400043616205    15.994914619570
         O           -1.362906348327     2.374139843316     0.154940383795    15.994914619570
         N           -0.787708648327     0.196834843316    -0.231624216205    14.003074004430
         N           -3.054892348327     0.805373843316     0.240169383795    14.003074004430
         N           -4.674130348327    -0.812300156684     0.412794383795    14.003074004430
         C            2.700874651673     0.875688843316     0.559631383795    12.000000000000
         C            1.236123651673     1.107360843316     0.888009383795    12.000000000000
         C            2.651098651673    -0.392156156684    -0.285312616205    12.000000000000
         C            0.573237651673     0.683138843316    -0.414758616205    12.000000000000
         C            2.801377651673    -1.659881156684     0.522627383795    12.000000000000
         C           -1.128057348327    -1.115684156684    -0.308118616205    12.000000000000
         C           -1.745408348327     1.204026843316     0.082202383795    12.000000000000
         C           -2.418027348327    -1.504426156684    -0.104384616205    12.000000000000
         C           -3.362712348327    -0.473025156684     0.168668383795    12.000000000000
         H            3.333660651673     0.756919843316     1.451010383795     1.007825032230
         H            0.903986651673     0.443963843316     1.693646383795     1.007825032230
         H            0.984608651673     2.134201843316     1.158304383795     1.007825032230
         H            0.526733651673     1.513388843316    -1.124755616205     1.007825032230
         H            3.416771651673    -0.364148156684    -1.066468616205     1.007825032230
         H            1.970028651673    -1.733049156684     1.243380383795     1.007825032230
         H            3.745368651673    -1.609380156684     1.088446383795     1.007825032230
         H            3.103130651673     2.746458843316     0.178140383795     1.007825032230
         H           -0.305540348327    -1.781693556684    -0.543904216205     1.007825032230
         H            2.909309651673    -3.564937156684     0.119369383795     1.007825032230
         H           -2.704188348327    -2.548949156684    -0.153092616205     1.007825032230
         H           -5.029431348327    -1.637607156684    -0.056561616205     1.007825032230
         H           -5.300191348327    -0.013663156684     0.386258383795     1.007825032230

  Basis Set: AUG-CC-PVTZ
    Blend: AUG-CC-PVTZ
  Basis Set: (AUG-CC-PVTZ AUX)
    Blend: AUG-CC-PVTZ-JKFIT
	 Reference Energy          =    -811.4790364734349168 [Eh]
	 Singles Energy            =      -0.0000000000000000 [Eh]
	 Same-Spin Energy          =      -0.8297159436756159 [Eh]
	 Opposite-Spin Energy      =      -2.5252610784437719 [Eh]
	 Correlation Energy        =      -3.3549770221193880 [Eh]
	 Total Energy              =    -814.8340134955543590 [Eh]

	 ================> DF-SCS-MP2 Energies <==================
	-----------------------------------------------------------
	 SCS Same-Spin Scale       =       0.3333333333333333 [-]
	 SCS Opposite-Spin Scale   =       1.2000000000000000 [-]
	 SCS Same-Spin Energy      =      -0.2765719812252053 [Eh]
	 SCS Opposite-Spin Energy  =      -3.0303132941325264 [Eh]
	 SCS Correlation Energy    =      -3.3068852753577316 [Eh]
	 SCS Total Energy          =    -814.7859217487927026 [Eh]
	-----------------------------------------------------------

  Dipole Moment: [D]
     X:     1.0447      Y:    -4.6433      Z:     2.4967     Total:     5.3745

*** Psi4 exiting successfully. Buy a developer a beer!
