                               Psi4 1.3.2 release

  ==> Input File <==

--------------------------------------------------------------------------
#psi4
#
memory 32 gb

molecule  {
0 1
  O        1.3620710    -0.3800110    -0.9318440
  O        3.2020570     1.9012130    -0.2995130
  O        2.7994070    -2.7489470    -0.4002010
  O       -1.3621860     2.3740050     0.1547830
  N       -0.7982440     0.1994180    -0.2292560
  N       -3.0541720     0.8052390     0.2400120
  N       -4.6734100    -0.8124350     0.4126370
  C        2.6981632     0.8714017     0.5473633
  C        1.2368440     1.1072260     0.8878520
  C        2.6518190    -0.3922910    -0.2854700
  C        0.5859015     0.6802297    -0.4200221
  C        2.8020980    -1.6600160     0.5224700
  C       -1.1273370    -1.1158190    -0.3082760
  C       -1.7446880     1.2038920     0.0820450
  C       -2.4173070    -1.5045610    -0.1045420
  C       -3.3619920    -0.4731600     0.1685110
  H        3.3343810     0.7567850     1.4508530
  H        0.9047070     0.4438290     1.6934890
  H        0.9853290     2.1340670     1.1581470
  H        0.5274540     1.5132540    -1.1249130
  H        3.4174920    -0.3642830    -1.0666260
  H        1.9707490    -1.7331840     1.2432230
  H        3.7460890    -1.6095150     1.0882890
  H        3.1038510     2.7463240     0.1779830
  H       -0.3107400    -1.7892010    -0.5436980
  H        2.9100300    -3.5650720     0.1192120
  H       -2.7034680    -2.5490840    -0.1532500
  H       -5.0287110    -1.6377420    -0.0567190
  H       -5.2994710    -0.0137980     0.3861010
units angstrom
no_reorient  #important for SAPT in psi4, default
symmetry c1  #important for SAPT in psi4, default
}

set PROPERTIES_ORIGIN ["COM"]
properties('MP2/aug-cc-pvtz', properties = ['dipole'])
--------------------------------------------------------------------------

    Molecular point group: c1
  Charge       = 0
  Multiplicity = 1
  Basis Set: AUG-CC-PVTZ
    Blend: AUG-CC-PVTZ
  Basis Set: (AUG-CC-PVTZ AUX)
    Blend: AUG-CC-PVTZ-JKFIT

    Orbital Energies [Eh]
    ---------------------

    Doubly Occupied:

       1A    -20.578437     2A    -20.574759     3A    -20.574488
       4A    -20.502261     5A    -15.620645     6A    -15.587826
       7A    -15.540196     8A    -11.369151     9A    -11.344383
      10A    -11.330986    11A    -11.317502    12A    -11.301520
      13A    -11.297776    14A    -11.293751    15A    -11.236836
      16A    -11.236279    17A     -1.420199    18A     -1.381855
      19A     -1.374549    20A     -1.367314    21A     -1.291382
      22A     -1.259904    23A     -1.168232    24A     -1.079424
      25A     -1.069587    26A     -1.028641    27A     -0.926454
      28A     -0.896938    29A     -0.868696    30A     -0.831396
      31A     -0.806246    32A     -0.753456    33A     -0.738108
      34A     -0.722124    35A     -0.706598    36A     -0.693855
      37A     -0.690299    38A     -0.676129    39A     -0.656829
      40A     -0.637275    41A     -0.626806    42A     -0.618236
      43A     -0.604505    44A     -0.595708    45A     -0.588746
      46A     -0.571374    47A     -0.570111    48A     -0.545657
      49A     -0.532461    50A     -0.524869    51A     -0.510963
      52A     -0.487735    53A     -0.481979    54A     -0.469082
      55A     -0.460404    56A     -0.443832    57A     -0.438126
      58A     -0.415486    59A     -0.383186    60A     -0.334134

  @DF-RHF Final Energy:  -811.47926490781981

   => Energetics <=

    Nuclear Repulsion Energy =           1170.1821557705229679
    One-Electron Energy =               -3435.4114711532956790
    Two-Electron Energy =                1453.7500504749530137
    Total Energy =                       -811.4792649078196973
  Basis Set: (AUG-CC-PVTZ AUX)
    Blend: AUG-CC-PVTZ-RI
    Molecular point group: c1

    Geometry (in Angstrom), charge = 0, multiplicity = 1:

       Center              X                  Y                   Z               Mass
    ------------   -----------------  -----------------  -----------------  -----------------
         O            1.361621205904    -0.379645019269    -0.930934189700    15.994914619570
         O            3.201607205904     1.901578980731    -0.298603189700    15.994914619570
         O            2.798957205904    -2.748581019269    -0.399291189700    15.994914619570
         O           -1.362635794096     2.374370980731     0.155692810300    15.994914619570
         N           -0.798693794096     0.199783980731    -0.228346189700    14.003074004430
         N           -3.054621794096     0.805604980731     0.240921810300    14.003074004430
         N           -4.673859794096    -0.812069019269     0.413546810300    14.003074004430
         C            2.697713405904     0.871767680731     0.548273110300    12.000000000000
         C            1.236394205904     1.107591980731     0.888761810300    12.000000000000
         C            2.651369205904    -0.391925019269    -0.284560189700    12.000000000000
         C            0.585451705904     0.680595680731    -0.419112289700    12.000000000000
         C            2.801648205904    -1.659650019269     0.523379810300    12.000000000000
         C           -1.127786794096    -1.115453019269    -0.307366189700    12.000000000000
         C           -1.745137794096     1.204257980731     0.082954810300    12.000000000000
         C           -2.417756794096    -1.504195019269    -0.103632189700    12.000000000000
         C           -3.362441794096    -0.472794019269     0.169420810300    12.000000000000
         H            3.333931205904     0.757150980731     1.451762810300     1.007825032230
         H            0.904257205904     0.444194980731     1.694398810300     1.007825032230
         H            0.984879205904     2.134432980731     1.159056810300     1.007825032230
         H            0.527004205904     1.513619980731    -1.124003189700     1.007825032230
         H            3.417042205904    -0.363917019269    -1.065716189700     1.007825032230
         H            1.970299205904    -1.732818019269     1.244132810300     1.007825032230
         H            3.745639205904    -1.609149019269     1.089198810300     1.007825032230
         H            3.103401205904     2.746689980731     0.178892810300     1.007825032230
         H           -0.311189794096    -1.788835019269    -0.542788189700     1.007825032230
         H            2.909580205904    -3.564706019269     0.120121810300     1.007825032230
         H           -2.703917794096    -2.548718019269    -0.152340189700     1.007825032230
         H           -5.029160794096    -1.637376019269    -0.055809189700     1.007825032230
         H           -5.299920794096    -0.013432019269     0.387010810300     1.007825032230

  Basis Set: AUG-CC-PVTZ
    Blend: AUG-CC-PVTZ
  Basis Set: (AUG-CC-PVTZ AUX)
    Blend: AUG-CC-PVTZ-JKFIT
	 Reference Energy          =    -811.4792649078198110 [Eh]
	 Singles Energy            =      -0.0000000000000000 [Eh]
	 Same-Spin Energy          =      -0.8296840534024841 [Eh]
	 Opposite-Spin Energy      =      -2.5249672418496143 [Eh]
	 Correlation Energy        =      -3.3546512952520984 [Eh]
	 Total Energy              =    -814.8339162030719081 [Eh]

	 ================> DF-SCS-MP2 Energies <==================
	-----------------------------------------------------------
	 SCS Same-Spin Scale       =       0.3333333333333333 [-]
	 SCS Opposite-Spin Scale   =       1.2000000000000000 [-]
	 SCS Same-Spin Energy      =      -0.2765613511341614 [Eh]
	 SCS Opposite-Spin Energy  =      -3.0299606902195371 [Eh]
	 SCS Correlation Energy    =      -3.3065220413536984 [Eh]
	 SCS Total Energy          =    -814.7857869491734846 [Eh]
	-----------------------------------------------------------

  Dipole Moment: [D]
     X:     1.1633      Y:    -4.6913      Z:     2.4642     Total:     5.4253

*** Psi4 exiting successfully. Buy a developer a beer!
