                               Psi4 1.3.2 release

  ==> Input File <==

--------------------------------------------------------------------------
#psi4
#
memory 32 gb

molecule  {
0 1
  O        1.3620710    -0.3800110    -0.9318440
  O        3.2020570     1.9012130    -0.2995130
  O        2.7994070    -2.7489470    -0.4002010
  O       -1.3621860     2.3740050     0.1547830
  N       -0.7982440     0.1994180    -0.2292560
  N       -3.0541720     0.8052390     0.2400120
  N       -4.6734100    -0.8124350     0.4126370
  C        2.7015950     0.8755540     0.5594740
  C        1.2368440     1.1072260     0.8878520
  C        2.6518190    -0.3922910    -0.2854700
  C        0.5739580     0.6830040    -0.4149160
  C        2.8020980    -1.6600160     0.5224700
  C       -1.1273370    -1.1158190    -0.3082760
  C       -1.7446880     1.2038920     0.0820450
  C       -2.4173070    -1.5045610    -0.1045420
  C       -3.3619920    -0.4731600     0.1685110
  H        3.3343810     0.7567850     1.4508530
  H        0.9047070     0.4438290     1.6934890
  H        0.9853290     2.1340670     1.1581470
  H        0.5274540     1.5132540    -1.1249130
  H        3.4174920    -0.3642830    -1.0666260
  H        1.9707490    -1.7331840     1.2432230
  H        3.7460890    -1.6095150     1.0882890
  H        3.1038510     2.7463240     0.1779830
  H       -0.3107400    -1.7892010    -0.5436980
  H        2.9100300    -3.5650720     0.1192120
  H       -2.7034680    -2.5490840    -0.1532500
  H       -4.9838958    -1.6628814    -0.0434387
  H       -5.2633494     0.0136690     0.4137644
units angstrom
no_reorient  #important for SAPT in psi4, default
symmetry c1  #important for SAPT in psi4, default
}

set PROPERTIES_ORIGIN ["COM"]
properties('MP2/aug-cc-pvtz', properties = ['dipole'])
--------------------------------------------------------------------------

    Molecular point group: c1
  Charge       = 0
  Multiplicity = 1
  Basis Set: AUG-CC-PVTZ
    Blend: AUG-CC-PVTZ
  Basis Set: (AUG-CC-PVTZ AUX)
    Blend: AUG-CC-PVTZ-JKFIT

    Orbital Energies [Eh]
    ---------------------

    Doubly Occupied:

       1A    -20.577772     2A    -20.574331     3A    -20.572857
       4A    -20.502958     5A    -15.621537     6A    -15.588609
       7A    -15.540416     8A    -11.369826     9A    -11.343809
      10A    -11.330691    11A    -11.318309    12A    -11.300844
      13A    -11.296878    14A    -11.293069    15A    -11.236930
      16A    -11.236758    17A     -1.416627    18A     -1.382366
      19A     -1.373582    20A     -1.365696    21A     -1.292540
      22A     -1.261815    23A     -1.168847    24A     -1.078962
      25A     -1.068907    26A     -1.027771    27A     -0.926256
      28A     -0.897492    29A     -0.868009    30A     -0.830091
      31A     -0.806345    32A     -0.757310    33A     -0.738631
      34A     -0.721007    35A     -0.703735    36A     -0.692830
      37A     -0.688374    38A     -0.679325    39A     -0.658047
      40A     -0.637401    41A     -0.627489    42A     -0.618124
      43A     -0.604814    44A     -0.594870    45A     -0.588971
      46A     -0.572536    47A     -0.568755    48A     -0.544849
      49A     -0.532513    50A     -0.523722    51A     -0.510327
      52A     -0.485855    53A     -0.482074    54A     -0.468510
      55A     -0.461057    56A     -0.444420    57A     -0.437833
      58A     -0.416226    59A     -0.382886    60A     -0.335049

  @DF-RHF Final Energy:  -811.47853607551519

   => Energetics <=

    Nuclear Repulsion Energy =           1170.1168983789455069
    One-Electron Energy =               -3435.2939899776183665
    Two-Electron Energy =                1453.6985555231574381
    Total Energy =                       -811.4785360755151942
  Basis Set: (AUG-CC-PVTZ AUX)
    Blend: AUG-CC-PVTZ-RI
    Molecular point group: c1

    Geometry (in Angstrom), charge = 0, multiplicity = 1:

       Center              X                  Y                   Z               Mass
    ------------   -----------------  -----------------  -----------------  -----------------
         O            1.361711787665    -0.380021366908    -0.932025673360    15.994914619570
         O            3.201697787665     1.901202633092    -0.299694673360    15.994914619570
         O            2.799047787665    -2.748957366908    -0.400382673360    15.994914619570
         O           -1.362545212335     2.373994633092     0.154601326640    15.994914619570
         N           -0.798603212335     0.199407633092    -0.229437673360    14.003074004430
         N           -3.054531212335     0.805228633092     0.239830326640    14.003074004430
         N           -4.673769212335    -0.812445366908     0.412455326640    14.003074004430
         C            2.701235787665     0.875543633092     0.559292326640    12.000000000000
         C            1.236484787665     1.107215633092     0.887670326640    12.000000000000
         C            2.651459787665    -0.392301366908    -0.285651673360    12.000000000000
         C            0.573598787665     0.682993633092    -0.415097673360    12.000000000000
         C            2.801738787665    -1.660026366908     0.522288326640    12.000000000000
         C           -1.127696212335    -1.115829366908    -0.308457673360    12.000000000000
         C           -1.745047212335     1.203881633092     0.081863326640    12.000000000000
         C           -2.417666212335    -1.504571366908    -0.104723673360    12.000000000000
         C           -3.362351212335    -0.473170366908     0.168329326640    12.000000000000
         H            3.334021787665     0.756774633092     1.450671326640     1.007825032230
         H            0.904347787665     0.443818633092     1.693307326640     1.007825032230
         H            0.984969787665     2.134056633092     1.157965326640     1.007825032230
         H            0.527094787665     1.513243633092    -1.125094673360     1.007825032230
         H            3.417132787665    -0.364293366908    -1.066807673360     1.007825032230
         H            1.970389787665    -1.733194366908     1.243041326640     1.007825032230
         H            3.745729787665    -1.609525366908     1.088107326640     1.007825032230
         H            3.103491787665     2.746313633092     0.177801326640     1.007825032230
         H           -0.311099212335    -1.789211366908    -0.543879673360     1.007825032230
         H            2.909670787665    -3.565082366908     0.119030326640     1.007825032230
         H           -2.703827212335    -2.549094366908    -0.153431673360     1.007825032230
         H           -4.984255012335    -1.662891766908    -0.043620373360     1.007825032230
         H           -5.263708612335     0.013658633092     0.413582726640     1.007825032230

  Basis Set: AUG-CC-PVTZ
    Blend: AUG-CC-PVTZ
  Basis Set: (AUG-CC-PVTZ AUX)
    Blend: AUG-CC-PVTZ-JKFIT
	 Reference Energy          =    -811.4785360755151942 [Eh]
	 Singles Energy            =      -0.0000000000000000 [Eh]
	 Same-Spin Energy          =      -0.8297626019073985 [Eh]
	 Opposite-Spin Energy      =      -2.5252297455785331 [Eh]
	 Correlation Energy        =      -3.3549923474859318 [Eh]
	 Total Energy              =    -814.8335284230010984 [Eh]

	 ================> DF-SCS-MP2 Energies <==================
	-----------------------------------------------------------
	 SCS Same-Spin Scale       =       0.3333333333333333 [-]
	 SCS Opposite-Spin Scale   =       1.2000000000000000 [-]
	 SCS Same-Spin Energy      =      -0.2765875339691328 [Eh]
	 SCS Opposite-Spin Energy  =      -3.0302756946942395 [Eh]
	 SCS Correlation Energy    =      -3.3068632286633726 [Eh]
	 SCS Total Energy          =    -814.7853993041785543 [Eh]
	-----------------------------------------------------------

  Dipole Moment: [D]
     X:     1.1015      Y:    -4.6959      Z:     2.5491     Total:     5.4555

*** Psi4 exiting successfully. Buy a developer a beer!
