                               Psi4 1.3.2 release

  ==> Input File <==

--------------------------------------------------------------------------
#psi4
#
memory 32 gb

molecule  {
0 1
  O        1.3593855    -0.3691052    -0.9261556
  O        3.2020570     1.9012130    -0.2995130
  O        2.7994070    -2.7489470    -0.4002010
  O       -1.3621860     2.3740050     0.1547830
  N       -0.7982440     0.1994180    -0.2292560
  N       -3.0541720     0.8052390     0.2400120
  N       -4.6734100    -0.8124350     0.4126370
  C        2.6893623     0.8787313     0.5553223
  C        1.2368440     1.1072260     0.8878520
  C        2.6518190    -0.3922910    -0.2854700
  C        0.5739580     0.6830040    -0.4149160
  C        2.8020980    -1.6600160     0.5224700
  C       -1.1273370    -1.1158190    -0.3082760
  C       -1.7446880     1.2038920     0.0820450
  C       -2.4173070    -1.5045610    -0.1045420
  C       -3.3619920    -0.4731600     0.1685110
  H        3.3343810     0.7567850     1.4508530
  H        0.9047070     0.4438290     1.6934890
  H        0.9853290     2.1340670     1.1581470
  H        0.5274540     1.5132540    -1.1249130
  H        3.4174920    -0.3642830    -1.0666260
  H        1.9707490    -1.7331840     1.2432230
  H        3.7460890    -1.6095150     1.0882890
  H        3.1038510     2.7463240     0.1779830
  H       -0.3107400    -1.7892010    -0.5436980
  H        2.9100300    -3.5650720     0.1192120
  H       -2.7034680    -2.5490840    -0.1532500
  H       -5.0287110    -1.6377420    -0.0567190
  H       -5.2994710    -0.0137980     0.3861010
units angstrom
no_reorient  #important for SAPT in psi4, default
symmetry c1  #important for SAPT in psi4, default
}

set PROPERTIES_ORIGIN ["COM"]
properties('MP2/aug-cc-pvtz', properties = ['dipole'])
--------------------------------------------------------------------------

    Molecular point group: c1
  Charge       = 0
  Multiplicity = 1
  Basis Set: AUG-CC-PVTZ
    Blend: AUG-CC-PVTZ
  Basis Set: (AUG-CC-PVTZ AUX)
    Blend: AUG-CC-PVTZ-JKFIT

    Orbital Energies [Eh]
    ---------------------

    Doubly Occupied:

       1A    -20.578219     2A    -20.574324     3A    -20.572326
       4A    -20.502838     5A    -15.621378     6A    -15.588269
       7A    -15.540675     8A    -11.369690     9A    -11.344926
      10A    -11.329756    11A    -11.318269    12A    -11.300845
      13A    -11.297376    14A    -11.293677    15A    -11.236963
      16A    -11.235920    17A     -1.419730    18A     -1.382392
      19A     -1.373935    20A     -1.366637    21A     -1.292096
      22A     -1.261264    23A     -1.168972    24A     -1.079647
      25A     -1.069594    26A     -1.028946    27A     -0.927162
      28A     -0.897565    29A     -0.868648    30A     -0.831058
      31A     -0.805935    32A     -0.754222    33A     -0.738923
      34A     -0.721808    35A     -0.706617    36A     -0.693495
      37A     -0.689492    38A     -0.676399    39A     -0.657202
      40A     -0.637620    41A     -0.627297    42A     -0.618799
      43A     -0.604606    44A     -0.595483    45A     -0.589078
      46A     -0.572728    47A     -0.570148    48A     -0.544972
      49A     -0.532026    50A     -0.523961    51A     -0.510315
      52A     -0.485256    53A     -0.482544    54A     -0.468889
      55A     -0.461245    56A     -0.444389    57A     -0.437519
      58A     -0.416108    59A     -0.383528    60A     -0.334752

  @DF-RHF Final Energy:  -811.47953426461788

   => Energetics <=

    Nuclear Repulsion Energy =           1170.4933023306628002
    One-Electron Energy =               -3436.0287720785131569
    Two-Electron Energy =                1454.0559354832325880
    Total Energy =                       -811.4795342646179961
  Basis Set: (AUG-CC-PVTZ AUX)
    Blend: AUG-CC-PVTZ-RI
    Molecular point group: c1

    Geometry (in Angstrom), charge = 0, multiplicity = 1:

       Center              X                  Y                   Z               Mass
    ------------   -----------------  -----------------  -----------------  -----------------
         O            1.360221039315    -0.370041272864    -0.926336837351    15.994914619570
         O            3.202892539315     1.900276927136    -0.299694237351    15.994914619570
         O            2.800242539315    -2.749883072864    -0.400382237351    15.994914619570
         O           -1.361350460685     2.373068927136     0.154601762649    15.994914619570
         N           -0.797408460685     0.198481927136    -0.229437237351    14.003074004430
         N           -3.053336460685     0.804302927136     0.239830762649    14.003074004430
         N           -4.672574460685    -0.813371072864     0.412455762649    14.003074004430
         C            2.690197839315     0.877795227136     0.555141062649    12.000000000000
         C            1.237679539315     1.106289927136     0.887670762649    12.000000000000
         C            2.652654539315    -0.393227072864    -0.285651237351    12.000000000000
         C            0.574793539315     0.682067927136    -0.415097237351    12.000000000000
         C            2.802933539315    -1.660952072864     0.522288762649    12.000000000000
         C           -1.126501460685    -1.116755072864    -0.308457237351    12.000000000000
         C           -1.743852460685     1.202955927136     0.081863762649    12.000000000000
         C           -2.416471460685    -1.505497072864    -0.104723237351    12.000000000000
         C           -3.361156460685    -0.474096072864     0.168329762649    12.000000000000
         H            3.335216539315     0.755848927136     1.450671762649     1.007825032230
         H            0.905542539315     0.442892927136     1.693307762649     1.007825032230
         H            0.986164539315     2.133130927136     1.157965762649     1.007825032230
         H            0.528289539315     1.512317927136    -1.125094237351     1.007825032230
         H            3.418327539315    -0.365219072864    -1.066807237351     1.007825032230
         H            1.971584539315    -1.734120072864     1.243041762649     1.007825032230
         H            3.746924539315    -1.610451072864     1.088107762649     1.007825032230
         H            3.104686539315     2.745387927136     0.177801762649     1.007825032230
         H           -0.309904460685    -1.790137072864    -0.543879237351     1.007825032230
         H            2.910865539315    -3.566008072864     0.119030762649     1.007825032230
         H           -2.702632460685    -2.550020072864    -0.153431237351     1.007825032230
         H           -5.027875460685    -1.638678072864    -0.056900237351     1.007825032230
         H           -5.298635460685    -0.014734072864     0.385919762649     1.007825032230

  Basis Set: AUG-CC-PVTZ
    Blend: AUG-CC-PVTZ
  Basis Set: (AUG-CC-PVTZ AUX)
    Blend: AUG-CC-PVTZ-JKFIT
	 Reference Energy          =    -811.4795342646178824 [Eh]
	 Singles Energy            =      -0.0000000000000000 [Eh]
	 Same-Spin Energy          =      -0.8296627494703943 [Eh]
	 Opposite-Spin Energy      =      -2.5248479993186352 [Eh]
	 Correlation Energy        =      -3.3545107487890293 [Eh]
	 Total Energy              =    -814.8340450134069215 [Eh]

	 ================> DF-SCS-MP2 Energies <==================
	-----------------------------------------------------------
	 SCS Same-Spin Scale       =       0.3333333333333333 [-]
	 SCS Opposite-Spin Scale   =       1.2000000000000000 [-]
	 SCS Same-Spin Energy      =      -0.2765542498234648 [Eh]
	 SCS Opposite-Spin Energy  =      -3.0298175991823624 [Eh]
	 SCS Correlation Energy    =      -3.3063718490058269 [Eh]
	 SCS Total Energy          =    -814.7859061136236960 [Eh]
	-----------------------------------------------------------

  Dipole Moment: [D]
     X:     1.0867      Y:    -4.7115      Z:     2.4670     Total:     5.4282

*** Psi4 exiting successfully. Buy a developer a beer!
