                               Psi4 1.3.2 release

  ==> Input File <==

--------------------------------------------------------------------------
#psi4
#
memory 32 gb

molecule  {
0 1
  O        1.3620710    -0.3800110    -0.9318440
  O        3.2020570     1.9012130    -0.2995130
  O        2.7994070    -2.7489470    -0.4002010
  O       -1.3621860     2.3740050     0.1547830
  N       -0.7982440     0.1994180    -0.2292560
  N       -3.0541720     0.8052390     0.2400120
  N       -4.6734100    -0.8124350     0.4126370
  C        2.7015950     0.8755540     0.5594740
  C        1.2368440     1.1072260     0.8878520
  C        2.6518190    -0.3922910    -0.2854700
  C        0.5739580     0.6830040    -0.4149160
  C        2.8020980    -1.6600160     0.5224700
  C       -1.1273370    -1.1158190    -0.3082760
  C       -1.7446880     1.2038920     0.0820450
  C       -2.4173070    -1.5045610    -0.1045420
  C       -3.3619920    -0.4731600     0.1685110
  H        3.2192853     0.7783876     1.2887225
  H        0.9047070     0.4438290     1.6934890
  H        0.9853290     2.1340670     1.1581470
  H        0.5274540     1.5132540    -1.1249130
  H        3.4174920    -0.3642830    -1.0666260
  H        1.9707490    -1.7331840     1.2432230
  H        3.7460890    -1.6095150     1.0882890
  H        3.1038510     2.7463240     0.1779830
  H       -0.3107400    -1.7892010    -0.5436980
  H        2.9100300    -3.5650720     0.1192120
  H       -2.7034680    -2.5490840    -0.1532500
  H       -5.0287110    -1.6377420    -0.0567190
  H       -5.2994710    -0.0137980     0.3861010
units angstrom
no_reorient  #important for SAPT in psi4, default
symmetry c1  #important for SAPT in psi4, default
}

set PROPERTIES_ORIGIN ["COM"]
properties('MP2/aug-cc-pvtz', properties = ['dipole'])
--------------------------------------------------------------------------

    Molecular point group: c1
  Charge       = 0
  Multiplicity = 1
  Basis Set: AUG-CC-PVTZ
    Blend: AUG-CC-PVTZ
  Basis Set: (AUG-CC-PVTZ AUX)
    Blend: AUG-CC-PVTZ-JKFIT

    Orbital Energies [Eh]
    ---------------------

    Doubly Occupied:

       1A    -20.578288     2A    -20.571599     3A    -20.571450
       4A    -20.502568     5A    -15.621091     6A    -15.588039
       7A    -15.540407     8A    -11.369405     9A    -11.344644
      10A    -11.329722    11A    -11.317841    12A    -11.297512
      13A    -11.291900    14A    -11.275953    15A    -11.236600
      16A    -11.235412    17A     -1.415675    18A     -1.381967
      19A     -1.373459    20A     -1.365001    21A     -1.291776
      22A     -1.260915    23A     -1.168708    24A     -1.083534
      25A     -1.071363    26A     -1.027448    27A     -0.932606
      28A     -0.897253    29A     -0.874158    30A     -0.836158
      31A     -0.820753    32A     -0.754939    33A     -0.746878
      34A     -0.722034    35A     -0.709652    36A     -0.692864
      37A     -0.689104    38A     -0.675455    39A     -0.656365
      40A     -0.639478    41A     -0.629691    42A     -0.618861
      43A     -0.605328    44A     -0.594626    45A     -0.589880
      46A     -0.574021    47A     -0.568317    48A     -0.544812
      49A     -0.533291    50A     -0.523002    51A     -0.510715
      52A     -0.489440    53A     -0.481323    54A     -0.469060
      55A     -0.464048    56A     -0.444460    57A     -0.437545
      58A     -0.415899    59A     -0.383440    60A     -0.334507

  @DF-RHF Final Energy:  -811.44814554668176

   => Energetics <=

    Nuclear Repulsion Energy =           1171.3046829642366902
    One-Electron Energy =               -3437.5611894865460272
    Two-Electron Energy =                1454.8083609756276928
    Total Energy =                       -811.4481455466816442
  Basis Set: (AUG-CC-PVTZ AUX)
    Blend: AUG-CC-PVTZ-RI
    Molecular point group: c1

    Geometry (in Angstrom), charge = 0, multiplicity = 1:

       Center              X                  Y                   Z               Mass
    ------------   -----------------  -----------------  -----------------  -----------------
         O            1.362581777244    -0.380106909097    -0.931124432812    15.994914619570
         O            3.202567777244     1.901117090903    -0.298793432812    15.994914619570
         O            2.799917777244    -2.749042909097    -0.399481432812    15.994914619570
         O           -1.361675222756     2.373909090903     0.155502567188    15.994914619570
         N           -0.797733222756     0.199322090903    -0.228536432812    14.003074004430
         N           -3.053661222756     0.805143090903     0.240731567188    14.003074004430
         N           -4.672899222756    -0.812530909097     0.413356567188    14.003074004430
         C            2.702105777244     0.875458090903     0.560193567188    12.000000000000
         C            1.237354777244     1.107130090903     0.888571567188    12.000000000000
         C            2.652329777244    -0.392386909097    -0.284750432812    12.000000000000
         C            0.574468777244     0.682908090903    -0.414196432812    12.000000000000
         C            2.802608777244    -1.660111909097     0.523189567188    12.000000000000
         C           -1.126826222756    -1.115914909097    -0.307556432812    12.000000000000
         C           -1.744177222756     1.203796090903     0.082764567188    12.000000000000
         C           -2.416796222756    -1.504656909097    -0.103822432812    12.000000000000
         C           -3.361481222756    -0.473255909097     0.169230567188    12.000000000000
         H            3.219796077244     0.778291690903     1.289442067188     1.007825032230
         H            0.905217777244     0.443733090903     1.694208567188     1.007825032230
         H            0.985839777244     2.133971090903     1.158866567188     1.007825032230
         H            0.527964777244     1.513158090903    -1.124193432812     1.007825032230
         H            3.418002777244    -0.364378909097    -1.065906432812     1.007825032230
         H            1.971259777244    -1.733279909097     1.243942567188     1.007825032230
         H            3.746599777244    -1.609610909097     1.089008567188     1.007825032230
         H            3.104361777244     2.746228090903     0.178702567188     1.007825032230
         H           -0.310229222756    -1.789296909097    -0.542978432812     1.007825032230
         H            2.910540777244    -3.565167909097     0.119931567188     1.007825032230
         H           -2.702957222756    -2.549179909097    -0.152530432812     1.007825032230
         H           -5.028200222756    -1.637837909097    -0.055999432812     1.007825032230
         H           -5.298960222756    -0.013893909097     0.386820567188     1.007825032230

  Basis Set: AUG-CC-PVTZ
    Blend: AUG-CC-PVTZ
  Basis Set: (AUG-CC-PVTZ AUX)
    Blend: AUG-CC-PVTZ-JKFIT
	 Reference Energy          =    -811.4481455466817579 [Eh]
	 Singles Energy            =      -0.0000000000000000 [Eh]
	 Same-Spin Energy          =      -0.8294231546050055 [Eh]
	 Opposite-Spin Energy      =      -2.5240732288981715 [Eh]
	 Correlation Energy        =      -3.3534963835031770 [Eh]
	 Total Energy              =    -814.8016419301849282 [Eh]

	 ================> DF-SCS-MP2 Energies <==================
	-----------------------------------------------------------
	 SCS Same-Spin Scale       =       0.3333333333333333 [-]
	 SCS Opposite-Spin Scale   =       1.2000000000000000 [-]
	 SCS Same-Spin Energy      =      -0.2764743848683351 [Eh]
	 SCS Opposite-Spin Energy  =      -3.0288878746778058 [Eh]
	 SCS Correlation Energy    =      -3.3053622595461412 [Eh]
	 SCS Total Energy          =    -814.7535078062278444 [Eh]
	-----------------------------------------------------------

  Dipole Moment: [D]
     X:     1.1377      Y:    -4.7248      Z:     2.5721     Total:     5.4986

*** Psi4 exiting successfully. Buy a developer a beer!
