                               Psi4 1.3.2 release

  ==> Input File <==

--------------------------------------------------------------------------
#psi4
#
memory 32 gb

molecule  {
0 1
  O        1.3620710    -0.3800110    -0.9318440
  O        3.2020570     1.9012130    -0.2995130
  O        2.7994070    -2.7489470    -0.4002010
  O       -1.3621860     2.3740050     0.1547830
  N       -0.7982440     0.1994180    -0.2292560
  N       -3.0541720     0.8052390     0.2400120
  N       -4.6734100    -0.8124350     0.4126370
  C        2.7015950     0.8755540     0.5594740
  C        1.2368440     1.1072260     0.8878520
  C        2.6518190    -0.3922910    -0.2854700
  C        0.5739580     0.6830040    -0.4149160
  C        2.8020980    -1.6600160     0.5224700
  C       -1.1048047    -1.1209252    -0.3135713
  C       -1.7268943     1.2209160     0.0802322
  C       -2.4173070    -1.5045610    -0.1045420
  C       -3.3619920    -0.4731600     0.1685110
  H        3.3343810     0.7567850     1.4508530
  H        0.9047070     0.4438290     1.6934890
  H        0.9853290     2.1340670     1.1581470
  H        0.5274540     1.5132540    -1.1249130
  H        3.4174920    -0.3642830    -1.0666260
  H        1.9707490    -1.7331840     1.2432230
  H        3.7460890    -1.6095150     1.0882890
  H        3.1038510     2.7463240     0.1779830
  H       -0.3107400    -1.7892010    -0.5436980
  H        2.9100300    -3.5650720     0.1192120
  H       -2.7034680    -2.5490840    -0.1532500
  H       -5.0287110    -1.6377420    -0.0567190
  H       -5.2994710    -0.0137980     0.3861010
units angstrom
no_reorient  #important for SAPT in psi4, default
symmetry c1  #important for SAPT in psi4, default
}

set PROPERTIES_ORIGIN ["COM"]
properties('MP2/aug-cc-pvtz', properties = ['dipole'])
--------------------------------------------------------------------------

    Molecular point group: c1
  Charge       = 0
  Multiplicity = 1
  Basis Set: AUG-CC-PVTZ
    Blend: AUG-CC-PVTZ
  Basis Set: (AUG-CC-PVTZ AUX)
    Blend: AUG-CC-PVTZ-JKFIT

    Orbital Energies [Eh]
    ---------------------

    Doubly Occupied:

       1A    -20.578085     2A    -20.575061     3A    -20.573345
       4A    -20.509596     5A    -15.621842     6A    -15.585343
       7A    -15.538524     8A    -11.371259     9A    -11.341335
      10A    -11.330629    11A    -11.319345    12A    -11.301588
      13A    -11.297272    14A    -11.293584    15A    -11.237758
      16A    -11.237070    17A     -1.418226    18A     -1.391770
      19A     -1.374060    20A     -1.367556    21A     -1.294065
      22A     -1.260728    23A     -1.162641    24A     -1.078457
      25A     -1.066175    26A     -1.026674    27A     -0.926308
      28A     -0.900108    29A     -0.866777    30A     -0.828432
      31A     -0.806541    32A     -0.751213    33A     -0.739247
      34A     -0.721473    35A     -0.707265    36A     -0.693318
      37A     -0.689642    38A     -0.676465    39A     -0.657311
      40A     -0.636425    41A     -0.627824    42A     -0.622423
      43A     -0.607693    44A     -0.594959    45A     -0.590911
      46A     -0.571322    47A     -0.568834    48A     -0.545339
      49A     -0.532760    50A     -0.524428    51A     -0.512814
      52A     -0.486675    53A     -0.484670    54A     -0.468923
      55A     -0.462206    56A     -0.448490    57A     -0.438396
      58A     -0.413590    59A     -0.381743    60A     -0.331646

  @DF-RHF Final Energy:  -811.47745176972592

   => Energetics <=

    Nuclear Repulsion Energy =           1169.8582352898570207
    One-Electron Energy =               -3434.7350590172227385
    Two-Electron Energy =                1453.3993719576399144
    Total Energy =                       -811.4774517697258034
  Basis Set: (AUG-CC-PVTZ AUX)
    Blend: AUG-CC-PVTZ-RI
    Molecular point group: c1

    Geometry (in Angstrom), charge = 0, multiplicity = 1:

       Center              X                  Y                   Z               Mass
    ------------   -----------------  -----------------  -----------------  -----------------
         O            1.359940063707    -0.380640801543    -0.931468357106    15.994914619570
         O            3.199926063707     1.900583198457    -0.299137357106    15.994914619570
         O            2.797276063707    -2.749576801543    -0.399825357106    15.994914619570
         O           -1.364316936293     2.373375198457     0.155158642894    15.994914619570
         N           -0.800374936293     0.198788198457    -0.228880357106    14.003074004430
         N           -3.056302936293     0.804609198457     0.240387642894    14.003074004430
         N           -4.675540936293    -0.813064801543     0.413012642894    14.003074004430
         C            2.699464063707     0.874924198457     0.559849642894    12.000000000000
         C            1.234713063707     1.106596198457     0.888227642894    12.000000000000
         C            2.649688063707    -0.392920801543    -0.285094357106    12.000000000000
         C            0.571827063707     0.682374198457    -0.414540357106    12.000000000000
         C            2.799967063707    -1.660645801543     0.522845642894    12.000000000000
         C           -1.106935636293    -1.121555001543    -0.313195657106    12.000000000000
         C           -1.729025236293     1.220286198457     0.080607842894    12.000000000000
         C           -2.419437936293    -1.505190801543    -0.104166357106    12.000000000000
         C           -3.364122936293    -0.473789801543     0.168886642894    12.000000000000
         H            3.332250063707     0.756155198457     1.451228642894     1.007825032230
         H            0.902576063707     0.443199198457     1.693864642894     1.007825032230
         H            0.983198063707     2.133437198457     1.158522642894     1.007825032230
         H            0.525323063707     1.512624198457    -1.124537357106     1.007825032230
         H            3.415361063707    -0.364912801543    -1.066250357106     1.007825032230
         H            1.968618063707    -1.733813801543     1.243598642894     1.007825032230
         H            3.743958063707    -1.610144801543     1.088664642894     1.007825032230
         H            3.101720063707     2.745694198457     0.178358642894     1.007825032230
         H           -0.312870936293    -1.789830801543    -0.543322357106     1.007825032230
         H            2.907899063707    -3.565701801543     0.119587642894     1.007825032230
         H           -2.705598936293    -2.549713801543    -0.152874357106     1.007825032230
         H           -5.030841936293    -1.638371801543    -0.056343357106     1.007825032230
         H           -5.301601936293    -0.014427801543     0.386476642894     1.007825032230

  Basis Set: AUG-CC-PVTZ
    Blend: AUG-CC-PVTZ
  Basis Set: (AUG-CC-PVTZ AUX)
    Blend: AUG-CC-PVTZ-JKFIT
	 Reference Energy          =    -811.4774517697259171 [Eh]
	 Singles Energy            =      -0.0000000000000000 [Eh]
	 Same-Spin Energy          =      -0.8295567629711382 [Eh]
	 Opposite-Spin Energy      =      -2.5252632680424614 [Eh]
	 Correlation Energy        =      -3.3548200310135998 [Eh]
	 Total Energy              =    -814.8322718007394769 [Eh]

	 ================> DF-SCS-MP2 Energies <==================
	-----------------------------------------------------------
	 SCS Same-Spin Scale       =       0.3333333333333333 [-]
	 SCS Opposite-Spin Scale   =       1.2000000000000000 [-]
	 SCS Same-Spin Energy      =      -0.2765189209903794 [Eh]
	 SCS Opposite-Spin Energy  =      -3.0303159216509536 [Eh]
	 SCS Correlation Energy    =      -3.3068348426413330 [Eh]
	 SCS Total Energy          =    -814.7842866123672820 [Eh]
	-----------------------------------------------------------

  Dipole Moment: [D]
     X:     1.2476      Y:    -4.4684      Z:     2.4847     Total:     5.2628

*** Psi4 exiting successfully. Buy a developer a beer!
