                               Psi4 1.3.2 release

  ==> Input File <==

--------------------------------------------------------------------------
#psi4
#
memory 32 gb

molecule  {
0 1
  O        1.3620710    -0.3800110    -0.9318440
  O        3.2020570     1.9012130    -0.2995130
  O        2.7994070    -2.7489470    -0.4002010
  O       -1.3621860     2.3740050     0.1547830
  N       -0.7982440     0.1994180    -0.2292560
  N       -3.0541720     0.8052390     0.2400120
  N       -4.6734100    -0.8124350     0.4126370
  C        2.7015950     0.8755540     0.5594740
  C        1.2368440     1.1072260     0.8878520
  C        2.6518190    -0.3922910    -0.2854700
  C        0.5954505     0.6105996    -0.4287773
  C        2.8020980    -1.6600160     0.5224700
  C       -1.1273370    -1.1158190    -0.3082760
  C       -1.7968093     1.1513172     0.0844124
  C       -2.4173070    -1.5045610    -0.1045420
  C       -3.3619920    -0.4731600     0.1685110
  H        3.3343810     0.7567850     1.4508530
  H        0.9047070     0.4438290     1.6934890
  H        0.9853290     2.1340670     1.1581470
  H        0.5274540     1.5132540    -1.1249130
  H        3.4174920    -0.3642830    -1.0666260
  H        1.9707490    -1.7331840     1.2432230
  H        3.7460890    -1.6095150     1.0882890
  H        3.1038510     2.7463240     0.1779830
  H       -0.3107400    -1.7892010    -0.5436980
  H        2.9100300    -3.5650720     0.1192120
  H       -2.7034680    -2.5490840    -0.1532500
  H       -5.0287110    -1.6377420    -0.0567190
  H       -5.2994710    -0.0137980     0.3861010
units angstrom
no_reorient  #important for SAPT in psi4, default
symmetry c1  #important for SAPT in psi4, default
}

set PROPERTIES_ORIGIN ["COM"]
properties('MP2/aug-cc-pvtz', properties = ['dipole'])
--------------------------------------------------------------------------

    Molecular point group: c1
  Charge       = 0
  Multiplicity = 1
  Basis Set: AUG-CC-PVTZ
    Blend: AUG-CC-PVTZ
  Basis Set: (AUG-CC-PVTZ AUX)
    Blend: AUG-CC-PVTZ-JKFIT

    Orbital Energies [Eh]
    ---------------------

    Doubly Occupied:

       1A    -20.580278     2A    -20.580246     3A    -20.572721
       4A    -20.482177     5A    -15.624829     6A    -15.594602
       7A    -15.546084     8A    -11.366396     9A    -11.353457
      10A    -11.330972    11A    -11.320635    12A    -11.299885
      13A    -11.299767    14A    -11.297893    15A    -11.240553
      16A    -11.233759    17A     -1.439158    18A     -1.375858
      19A     -1.372266    20A     -1.361545    21A     -1.281584
      22A     -1.255519    23A     -1.186415    24A     -1.077537
      25A     -1.073356    26A     -1.027842    27A     -0.928179
      28A     -0.899619    29A     -0.875667    30A     -0.836215
      31A     -0.809552    32A     -0.761946    33A     -0.741687
      34A     -0.723234    35A     -0.709342    36A     -0.696610
      37A     -0.690099    38A     -0.677843    39A     -0.662790
      40A     -0.637848    41A     -0.629292    42A     -0.618371
      43A     -0.603655    44A     -0.599543    45A     -0.582680
      46A     -0.575506    47A     -0.561678    48A     -0.546273
      49A     -0.532451    50A     -0.522047    51A     -0.503141
      52A     -0.488576    53A     -0.472621    54A     -0.470479
      55A     -0.459478    56A     -0.438914    57A     -0.433348
      58A     -0.408839    59A     -0.382738    60A     -0.333164

  @DF-RHF Final Energy:  -811.46284526584111

   => Energetics <=

    Nuclear Repulsion Energy =           1170.6961359928379807
    One-Electron Energy =               -3436.3404434422382110
    Two-Electron Energy =                1454.1814621835590060
    Total Energy =                       -811.4628452658409969
  Basis Set: (AUG-CC-PVTZ AUX)
    Blend: AUG-CC-PVTZ-RI
    Molecular point group: c1

    Geometry (in Angstrom), charge = 0, multiplicity = 1:

       Center              X                  Y                   Z               Mass
    ------------   -----------------  -----------------  -----------------  -----------------
         O            1.363689481684    -0.373406843126    -0.931236601152    15.994914619570
         O            3.203675481684     1.907817156874    -0.298905601152    15.994914619570
         O            2.801025481684    -2.742342843126    -0.399593601152    15.994914619570
         O           -1.360567518316     2.380609156874     0.155390398848    15.994914619570
         N           -0.796625518316     0.206022156874    -0.228648601152    14.003074004430
         N           -3.052553518316     0.811843156874     0.240619398848    14.003074004430
         N           -4.671791518316    -0.805830843126     0.413244398848    14.003074004430
         C            2.703213481684     0.882158156874     0.560081398848    12.000000000000
         C            1.238462481684     1.113830156874     0.888459398848    12.000000000000
         C            2.653437481684    -0.385686843126    -0.284862601152    12.000000000000
         C            0.597068981684     0.617203756874    -0.428169901152    12.000000000000
         C            2.803716481684    -1.653411843126     0.523077398848    12.000000000000
         C           -1.125718518316    -1.109214843126    -0.307668601152    12.000000000000
         C           -1.795190818316     1.157921356874     0.085019798848    12.000000000000
         C           -2.415688518316    -1.497956843126    -0.103934601152    12.000000000000
         C           -3.360373518316    -0.466555843126     0.169118398848    12.000000000000
         H            3.335999481684     0.763389156874     1.451460398848     1.007825032230
         H            0.906325481684     0.450433156874     1.694096398848     1.007825032230
         H            0.986947481684     2.140671156874     1.158754398848     1.007825032230
         H            0.529072481684     1.519858156874    -1.124305601152     1.007825032230
         H            3.419110481684    -0.357678843126    -1.066018601152     1.007825032230
         H            1.972367481684    -1.726579843126     1.243830398848     1.007825032230
         H            3.747707481684    -1.602910843126     1.088896398848     1.007825032230
         H            3.105469481684     2.752928156874     0.178590398848     1.007825032230
         H           -0.309121518316    -1.782596843126    -0.543090601152     1.007825032230
         H            2.911648481684    -3.558467843126     0.119819398848     1.007825032230
         H           -2.701849518316    -2.542479843126    -0.152642601152     1.007825032230
         H           -5.027092518316    -1.631137843126    -0.056111601152     1.007825032230
         H           -5.297852518316    -0.007193843126     0.386708398848     1.007825032230

  Basis Set: AUG-CC-PVTZ
    Blend: AUG-CC-PVTZ
  Basis Set: (AUG-CC-PVTZ AUX)
    Blend: AUG-CC-PVTZ-JKFIT
	 Reference Energy          =    -811.4628452658411106 [Eh]
	 Singles Energy            =      -0.0000000000000000 [Eh]
	 Same-Spin Energy          =      -0.8310971558116366 [Eh]
	 Opposite-Spin Energy      =      -2.5261856853332176 [Eh]
	 Correlation Energy        =      -3.3572828411448543 [Eh]
	 Total Energy              =    -814.8201281069859760 [Eh]

	 ================> DF-SCS-MP2 Energies <==================
	-----------------------------------------------------------
	 SCS Same-Spin Scale       =       0.3333333333333333 [-]
	 SCS Opposite-Spin Scale   =       1.2000000000000000 [-]
	 SCS Same-Spin Energy      =      -0.2770323852705455 [Eh]
	 SCS Opposite-Spin Energy  =      -3.0314228223998612 [Eh]
	 SCS Correlation Energy    =      -3.3084552076704066 [Eh]
	 SCS Total Energy          =    -814.7713004735114737 [Eh]
	-----------------------------------------------------------

  Dipole Moment: [D]
     X:     0.9514      Y:    -5.4730      Z:     2.4471     Total:     6.0702

*** Psi4 exiting successfully. Buy a developer a beer!
