                               Psi4 1.3.2 release

  ==> Input File <==

--------------------------------------------------------------------------
#psi4
#
memory 32 gb

molecule  {
0 1
  O        1.3620710    -0.3800110    -0.9318440
  O        3.2020570     1.9012130    -0.2995130
  O        2.7994070    -2.7489470    -0.4002010
  O       -1.3621860     2.3740050     0.1547830
  N       -0.7982440     0.1994180    -0.2292560
  N       -3.0541720     0.8052390     0.2400120
  N       -4.6734100    -0.8124350     0.4126370
  C        2.7015950     0.8755540     0.5594740
  C        1.2368440     1.1072260     0.8878520
  C        2.6842133    -0.4158079    -0.2504157
  C        0.5739580     0.6830040    -0.4149160
  C        2.8020980    -1.6600160     0.5224700
  C       -1.1273370    -1.1158190    -0.3082760
  C       -1.7446880     1.2038920     0.0820450
  C       -2.4173070    -1.5045610    -0.1045420
  C       -3.3619920    -0.4731600     0.1685110
  H        3.3416664     0.7206854     1.4400448
  H        0.9047070     0.4438290     1.6934890
  H        0.9853290     2.1340670     1.1581470
  H        0.5274540     1.5132540    -1.1249130
  H        3.4174920    -0.3642830    -1.0666260
  H        1.9707490    -1.7331840     1.2432230
  H        3.7460890    -1.6095150     1.0882890
  H        3.1038510     2.7463240     0.1779830
  H       -0.3107400    -1.7892010    -0.5436980
  H        2.9100300    -3.5650720     0.1192120
  H       -2.7034680    -2.5490840    -0.1532500
  H       -5.0287110    -1.6377420    -0.0567190
  H       -5.2994710    -0.0137980     0.3861010
units angstrom
no_reorient  #important for SAPT in psi4, default
symmetry c1  #important for SAPT in psi4, default
}

set PROPERTIES_ORIGIN ["COM"]
properties('MP2/aug-cc-pvtz', properties = ['dipole'])
--------------------------------------------------------------------------

    Molecular point group: c1
  Charge       = 0
  Multiplicity = 1
  Basis Set: AUG-CC-PVTZ
    Blend: AUG-CC-PVTZ
  Basis Set: (AUG-CC-PVTZ AUX)
    Blend: AUG-CC-PVTZ-JKFIT

    Orbital Energies [Eh]
    ---------------------

    Doubly Occupied:

       1A    -20.580051     2A    -20.576223     3A    -20.567422
       4A    -20.502060     5A    -15.620228     6A    -15.587612
       7A    -15.539855     8A    -11.368784     9A    -11.344113
      10A    -11.328064    11A    -11.317059    12A    -11.302885
      13A    -11.298440    14A    -11.294649    15A    -11.237019
      16A    -11.235966    17A     -1.407434    18A     -1.381750
      19A     -1.375706    20A     -1.362332    21A     -1.290904
      22A     -1.259348    23A     -1.167990    24A     -1.079415
      25A     -1.072091    26A     -1.030949    27A     -0.929363
      28A     -0.896257    29A     -0.868931    30A     -0.828074
      31A     -0.804867    32A     -0.753265    33A     -0.736204
      34A     -0.721366    35A     -0.707464    36A     -0.692900
      37A     -0.689168    38A     -0.675375    39A     -0.655574
      40A     -0.637315    41A     -0.625506    42A     -0.618328
      43A     -0.606276    44A     -0.594763    45A     -0.586483
      46A     -0.571228    47A     -0.565948    48A     -0.544439
      49A     -0.532404    50A     -0.522604    51A     -0.510129
      52A     -0.484563    53A     -0.481817    54A     -0.469341
      55A     -0.463493    56A     -0.444798    57A     -0.438590
      58A     -0.415324    59A     -0.382883    60A     -0.333878

  @DF-RHF Final Energy:  -811.47507823509818

   => Energetics <=

    Nuclear Repulsion Energy =           1169.4257826355385532
    One-Electron Energy =               -3433.9671966538689958
    Two-Electron Energy =                1453.0663357832320344
    Total Energy =                       -811.4750782350981808
  Basis Set: (AUG-CC-PVTZ AUX)
    Blend: AUG-CC-PVTZ-RI
    Molecular point group: c1

    Geometry (in Angstrom), charge = 0, multiplicity = 1:

       Center              X                  Y                   Z               Mass
    ------------   -----------------  -----------------  -----------------  -----------------
         O            1.360326860824    -0.378608139387    -0.933648350521    15.994914619570
         O            3.200312860824     1.902615860613    -0.301317350521    15.994914619570
         O            2.797662860824    -2.747544139387    -0.402005350521    15.994914619570
         O           -1.363930139176     2.375407860613     0.152978649479    15.994914619570
         N           -0.799988139176     0.200820860613    -0.231060350521    14.003074004430
         N           -3.055916139176     0.806641860613     0.238207649479    14.003074004430
         N           -4.675154139176    -0.811032139387     0.410832649479    14.003074004430
         C            2.699850860824     0.876956860613     0.557669649479    12.000000000000
         C            1.235099860824     1.108628860613     0.886047649479    12.000000000000
         C            2.682469160824    -0.414405039387    -0.252220050521    12.000000000000
         C            0.572213860824     0.684406860613    -0.416720350521    12.000000000000
         C            2.800353860824    -1.658613139387     0.520665649479    12.000000000000
         C           -1.129081139176    -1.114416139387    -0.310080350521    12.000000000000
         C           -1.746432139176     1.205294860613     0.080240649479    12.000000000000
         C           -2.419051139176    -1.503158139387    -0.106346350521    12.000000000000
         C           -3.363736139176    -0.471757139387     0.166706649479    12.000000000000
         H            3.339922260824     0.722088260613     1.438240449479     1.007825032230
         H            0.902962860824     0.445231860613     1.691684649479     1.007825032230
         H            0.983584860824     2.135469860613     1.156342649479     1.007825032230
         H            0.525709860824     1.514656860613    -1.126717350521     1.007825032230
         H            3.415747860824    -0.362880139387    -1.068430350521     1.007825032230
         H            1.969004860824    -1.731781139387     1.241418649479     1.007825032230
         H            3.744344860824    -1.608112139387     1.086484649479     1.007825032230
         H            3.102106860824     2.747726860613     0.176178649479     1.007825032230
         H           -0.312484139176    -1.787798139387    -0.545502350521     1.007825032230
         H            2.908285860824    -3.563669139387     0.117407649479     1.007825032230
         H           -2.705212139176    -2.547681139387    -0.155054350521     1.007825032230
         H           -5.030455139176    -1.636339139387    -0.058523350521     1.007825032230
         H           -5.301215139176    -0.012395139387     0.384296649479     1.007825032230

  Basis Set: AUG-CC-PVTZ
    Blend: AUG-CC-PVTZ
  Basis Set: (AUG-CC-PVTZ AUX)
    Blend: AUG-CC-PVTZ-JKFIT
	 Reference Energy          =    -811.4750782350981808 [Eh]
	 Singles Energy            =      -0.0000000000000000 [Eh]
	 Same-Spin Energy          =      -0.8301602528853750 [Eh]
	 Opposite-Spin Energy      =      -2.5261720191193429 [Eh]
	 Correlation Energy        =      -3.3563322720047180 [Eh]
	 Total Energy              =    -814.8314105071028735 [Eh]

	 ================> DF-SCS-MP2 Energies <==================
	-----------------------------------------------------------
	 SCS Same-Spin Scale       =       0.3333333333333333 [-]
	 SCS Opposite-Spin Scale   =       1.2000000000000000 [-]
	 SCS Same-Spin Energy      =      -0.2767200842951250 [Eh]
	 SCS Opposite-Spin Energy  =      -3.0314064229432112 [Eh]
	 SCS Correlation Energy    =      -3.3081265072383363 [Eh]
	 SCS Total Energy          =    -814.7832047423364656 [Eh]
	-----------------------------------------------------------

  Dipole Moment: [D]
     X:     1.2541      Y:    -4.7495      Z:     2.5474     Total:     5.5336

*** Psi4 exiting successfully. Buy a developer a beer!
