                               Psi4 1.3.2 release

  ==> Input File <==

--------------------------------------------------------------------------
#psi4
#
memory 32 gb

molecule  {
0 1
  O        1.3620710    -0.3800110    -0.9318440
  O        3.2020570     1.9012130    -0.2995130
  O        2.7994070    -2.7489470    -0.4002010
  O       -1.3621860     2.3740050     0.1547830
  N       -0.7982440     0.1994180    -0.2292560
  N       -3.0541720     0.8052390     0.2400120
  N       -4.6734100    -0.8124350     0.4126370
  C        2.7015950     0.8755540     0.5594740
  C        1.2368440     1.1072260     0.8878520
  C        2.6033535    -0.3541289    -0.3361082
  C        0.5739580     0.6830040    -0.4149160
  C        2.8020980    -1.6600160     0.5224700
  C       -1.1273370    -1.1158190    -0.3082760
  C       -1.7446880     1.2038920     0.0820450
  C       -2.4173070    -1.5045610    -0.1045420
  C       -3.3619920    -0.4731600     0.1685110
  H        3.3220103     0.8111920     1.4650252
  H        0.9047070     0.4438290     1.6934890
  H        0.9853290     2.1340670     1.1581470
  H        0.5274540     1.5132540    -1.1249130
  H        3.4174920    -0.3642830    -1.0666260
  H        1.9707490    -1.7331840     1.2432230
  H        3.7460890    -1.6095150     1.0882890
  H        3.1038510     2.7463240     0.1779830
  H       -0.3107400    -1.7892010    -0.5436980
  H        2.9100300    -3.5650720     0.1192120
  H       -2.7034680    -2.5490840    -0.1532500
  H       -5.0287110    -1.6377420    -0.0567190
  H       -5.2994710    -0.0137980     0.3861010
units angstrom
no_reorient  #important for SAPT in psi4, default
symmetry c1  #important for SAPT in psi4, default
}

set PROPERTIES_ORIGIN ["COM"]
properties('MP2/aug-cc-pvtz', properties = ['dipole'])
--------------------------------------------------------------------------

    Molecular point group: c1
  Charge       = 0
  Multiplicity = 1
  Basis Set: AUG-CC-PVTZ
    Blend: AUG-CC-PVTZ
  Basis Set: (AUG-CC-PVTZ AUX)
    Blend: AUG-CC-PVTZ-JKFIT

    Orbital Energies [Eh]
    ---------------------

    Doubly Occupied:

       1A    -20.580568     2A    -20.574296     3A    -20.571754
       4A    -20.504540     5A    -15.623975     6A    -15.589465
       7A    -15.542206     8A    -11.371556     9A    -11.346412
      10A    -11.334817    11A    -11.320120    12A    -11.298563
      13A    -11.293705    14A    -11.292501    15A    -11.238598
      16A    -11.236627    17A     -1.435825    18A     -1.384428
      19A     -1.371193    20A     -1.366872    21A     -1.294204
      22A     -1.264392    23A     -1.170800    24A     -1.081489
      25A     -1.064584    26A     -1.022935    27A     -0.922810
      28A     -0.899390    29A     -0.869011    30A     -0.835481
      31A     -0.808646    32A     -0.755758    33A     -0.743115
      34A     -0.722027    35A     -0.706717    36A     -0.692614
      37A     -0.688574    38A     -0.676797    39A     -0.658763
      40A     -0.636880    41A     -0.631524    42A     -0.618937
      43A     -0.606374    44A     -0.598484    45A     -0.589752
      46A     -0.574575    47A     -0.569971    48A     -0.545962
      49A     -0.535726    50A     -0.527250    51A     -0.508067
      52A     -0.486816    53A     -0.482001    54A     -0.466016
      55A     -0.455869    56A     -0.444149    57A     -0.430774
      58A     -0.417377    59A     -0.384943    60A     -0.336507

  @DF-RHF Final Energy:  -811.47440259113478

   => Energetics <=

    Nuclear Repulsion Energy =           1170.7681954884510560
    One-Electron Energy =               -3436.4770294485360864
    Two-Electron Energy =                1454.2344313689502542
    Total Energy =                       -811.4744025911347762
  Basis Set: (AUG-CC-PVTZ AUX)
    Blend: AUG-CC-PVTZ-RI
    Molecular point group: c1

    Geometry (in Angstrom), charge = 0, multiplicity = 1:

       Center              X                  Y                   Z               Mass
    ------------   -----------------  -----------------  -----------------  -----------------
         O            1.364686915726    -0.382269069410    -0.929231020603    15.994914619570
         O            3.204672915726     1.898954930590    -0.296900020603    15.994914619570
         O            2.802022915726    -2.751205069410    -0.397588020603    15.994914619570
         O           -1.359570084274     2.371746930590     0.157395979397    15.994914619570
         N           -0.795628084274     0.197159930590    -0.226643020603    14.003074004430
         N           -3.051556084274     0.802980930590     0.242624979397    14.003074004430
         N           -4.670794084274    -0.814693069410     0.415249979397    14.003074004430
         C            2.704210915726     0.873295930590     0.562086979397    12.000000000000
         C            1.239459915726     1.104967930590     0.890464979397    12.000000000000
         C            2.605969415726    -0.356386969410    -0.333495220603    12.000000000000
         C            0.576573915726     0.680745930590    -0.412303020603    12.000000000000
         C            2.804713915726    -1.662274069410     0.525082979397    12.000000000000
         C           -1.124721084274    -1.118077069410    -0.305663020603    12.000000000000
         C           -1.742072084274     1.201633930590     0.084657979397    12.000000000000
         C           -2.414691084274    -1.506819069410    -0.101929020603    12.000000000000
         C           -3.359376084274    -0.475418069410     0.171123979397    12.000000000000
         H            3.324626215726     0.808933930590     1.467638179397     1.007825032230
         H            0.907322915726     0.441570930590     1.696101979397     1.007825032230
         H            0.987944915726     2.131808930590     1.160759979397     1.007825032230
         H            0.530069915726     1.510995930590    -1.122300020603     1.007825032230
         H            3.420107915726    -0.366541069410    -1.064013020603     1.007825032230
         H            1.973364915726    -1.735442069410     1.245835979397     1.007825032230
         H            3.748704915726    -1.611773069410     1.090901979397     1.007825032230
         H            3.106466915726     2.744065930590     0.180595979397     1.007825032230
         H           -0.308124084274    -1.791459069410    -0.541085020603     1.007825032230
         H            2.912645915726    -3.567330069410     0.121824979397     1.007825032230
         H           -2.700852084274    -2.551342069410    -0.150637020603     1.007825032230
         H           -5.026095084274    -1.640000069410    -0.054106020603     1.007825032230
         H           -5.296855084274    -0.016056069410     0.388713979397     1.007825032230

  Basis Set: AUG-CC-PVTZ
    Blend: AUG-CC-PVTZ
  Basis Set: (AUG-CC-PVTZ AUX)
    Blend: AUG-CC-PVTZ-JKFIT
	 Reference Energy          =    -811.4744025911347762 [Eh]
	 Singles Energy            =      -0.0000000000000000 [Eh]
	 Same-Spin Energy          =      -0.8294915404062518 [Eh]
	 Opposite-Spin Energy      =      -2.5244889774094936 [Eh]
	 Correlation Energy        =      -3.3539805178157454 [Eh]
	 Total Energy              =    -814.8283831089505611 [Eh]

	 ================> DF-SCS-MP2 Energies <==================
	-----------------------------------------------------------
	 SCS Same-Spin Scale       =       0.3333333333333333 [-]
	 SCS Opposite-Spin Scale   =       1.2000000000000000 [-]
	 SCS Same-Spin Energy      =      -0.2764971801354172 [Eh]
	 SCS Opposite-Spin Energy  =      -3.0293867728913924 [Eh]
	 SCS Correlation Energy    =      -3.3058839530268096 [Eh]
	 SCS Total Energy          =    -814.7802865441616404 [Eh]
	-----------------------------------------------------------

  Dipole Moment: [D]
     X:     0.7861      Y:    -4.5601      Z:     2.3944     Total:     5.2101

*** Psi4 exiting successfully. Buy a developer a beer!
