                               Psi4 1.3.2 release

  ==> Input File <==

--------------------------------------------------------------------------
#psi4
#
memory 32 gb

molecule  {
0 1
  O        1.3620710    -0.3800110    -0.9318440
  O        3.2020570     1.9012130    -0.2995130
  O        2.7994070    -2.7489470    -0.4002010
  O       -1.3621860     2.3740050     0.1547830
  N       -0.7982440     0.1994180    -0.2292560
  N       -3.0541720     0.8052390     0.2400120
  N       -4.6734100    -0.8124350     0.4126370
  C        2.7015950     0.8755540     0.5594740
  C        1.2368440     1.1072260     0.8878520
  C        2.6448926    -0.3723387    -0.2717606
  C        0.5926804     0.6893090    -0.3999319
  C        2.8020980    -1.6600160     0.5224700
  C       -1.1273370    -1.1158190    -0.3082760
  C       -1.7446880     1.2038920     0.0820450
  C       -2.4173070    -1.5045610    -0.1045420
  C       -3.3619920    -0.4731600     0.1685110
  H        3.3343810     0.7567850     1.4508530
  H        0.9047070     0.4438290     1.6934890
  H        0.9853290     2.1340670     1.1581470
  H        0.5274540     1.5132540    -1.1249130
  H        3.4174920    -0.3642830    -1.0666260
  H        1.9707490    -1.7331840     1.2432230
  H        3.7460890    -1.6095150     1.0882890
  H        3.1038510     2.7463240     0.1779830
  H       -0.3107400    -1.7892010    -0.5436980
  H        2.9100300    -3.5650720     0.1192120
  H       -2.7034680    -2.5490840    -0.1532500
  H       -5.0287110    -1.6377420    -0.0567190
  H       -5.2994710    -0.0137980     0.3861010
units angstrom
no_reorient  #important for SAPT in psi4, default
symmetry c1  #important for SAPT in psi4, default
}

set PROPERTIES_ORIGIN ["COM"]
properties('MP2/aug-cc-pvtz', properties = ['dipole'])
--------------------------------------------------------------------------

    Molecular point group: c1
  Charge       = 0
  Multiplicity = 1
  Basis Set: AUG-CC-PVTZ
    Blend: AUG-CC-PVTZ
  Basis Set: (AUG-CC-PVTZ AUX)
    Blend: AUG-CC-PVTZ-JKFIT

    Orbital Energies [Eh]
    ---------------------

    Doubly Occupied:

       1A    -20.578281     2A    -20.575589     3A    -20.574785
       4A    -20.502219     5A    -15.620471     6A    -15.587773
       7A    -15.540014     8A    -11.368886     9A    -11.344321
      10A    -11.331665    11A    -11.317486    12A    -11.301459
      13A    -11.297641    14A    -11.293735    15A    -11.237662
      16A    -11.236214    17A     -1.418657    18A     -1.381708
      19A     -1.374209    20A     -1.366656    21A     -1.291143
      22A     -1.259162    23A     -1.167997    24A     -1.083989
      25A     -1.069133    26A     -1.028890    27A     -0.926288
      28A     -0.896537    29A     -0.869410    30A     -0.830972
      31A     -0.805926    32A     -0.753072    33A     -0.738793
      34A     -0.721917    35A     -0.707111    36A     -0.692941
      37A     -0.690252    38A     -0.674788    39A     -0.655733
      40A     -0.637455    41A     -0.627708    42A     -0.618032
      43A     -0.603576    44A     -0.595022    45A     -0.588648
      46A     -0.572025    47A     -0.566873    48A     -0.545501
      49A     -0.533643    50A     -0.525034    51A     -0.511339
      52A     -0.492146    53A     -0.482160    54A     -0.468778
      55A     -0.461395    56A     -0.444029    57A     -0.437326
      58A     -0.415119    59A     -0.383505    60A     -0.334417

  @DF-RHF Final Energy:  -811.47719218155817

   => Energetics <=

    Nuclear Repulsion Energy =           1170.2836759565116154
    One-Electron Energy =               -3435.6073059246191406
    Two-Electron Energy =                1453.8464377865493589
    Total Energy =                       -811.4771921815581663
  Basis Set: (AUG-CC-PVTZ AUX)
    Blend: AUG-CC-PVTZ-RI
    Molecular point group: c1

    Geometry (in Angstrom), charge = 0, multiplicity = 1:

       Center              X                  Y                   Z               Mass
    ------------   -----------------  -----------------  -----------------  -----------------
         O            1.361447655792    -0.381398534340    -0.933360197582    15.994914619570
         O            3.201433655792     1.899825465660    -0.301029197582    15.994914619570
         O            2.798783655792    -2.750334534340    -0.401717197582    15.994914619570
         O           -1.362809344208     2.372617465660     0.153266802418    15.994914619570
         N           -0.798867344208     0.198030465660    -0.230772197582    14.003074004430
         N           -3.054795344208     0.803851465660     0.238495802418    14.003074004430
         N           -4.674033344208    -0.813822534340     0.411120802418    14.003074004430
         C            2.700971655792     0.874166465660     0.557957802418    12.000000000000
         C            1.236220655792     1.105838465660     0.886335802418    12.000000000000
         C            2.644269255792    -0.373726234340    -0.273276797582    12.000000000000
         C            0.592057055792     0.687921465660    -0.401448097582    12.000000000000
         C            2.801474655792    -1.661403534340     0.520953802418    12.000000000000
         C           -1.127960344208    -1.117206534340    -0.309792197582    12.000000000000
         C           -1.745311344208     1.202504465660     0.080528802418    12.000000000000
         C           -2.417930344208    -1.505948534340    -0.106058197582    12.000000000000
         C           -3.362615344208    -0.474547534340     0.166994802418    12.000000000000
         H            3.333757655792     0.755397465660     1.449336802418     1.007825032230
         H            0.904083655792     0.442441465660     1.691972802418     1.007825032230
         H            0.984705655792     2.132679465660     1.156630802418     1.007825032230
         H            0.526830655792     1.511866465660    -1.126429197582     1.007825032230
         H            3.416868655792    -0.365670534340    -1.068142197582     1.007825032230
         H            1.970125655792    -1.734571534340     1.241706802418     1.007825032230
         H            3.745465655792    -1.610902534340     1.086772802418     1.007825032230
         H            3.103227655792     2.744936465660     0.176466802418     1.007825032230
         H           -0.311363344208    -1.790588534340    -0.545214197582     1.007825032230
         H            2.909406655792    -3.566459534340     0.117695802418     1.007825032230
         H           -2.704091344208    -2.550471534340    -0.154766197582     1.007825032230
         H           -5.029334344208    -1.639129534340    -0.058235197582     1.007825032230
         H           -5.300094344208    -0.015185534340     0.384584802418     1.007825032230

  Basis Set: AUG-CC-PVTZ
    Blend: AUG-CC-PVTZ
  Basis Set: (AUG-CC-PVTZ AUX)
    Blend: AUG-CC-PVTZ-JKFIT
	 Reference Energy          =    -811.4771921815581663 [Eh]
	 Singles Energy            =      -0.0000000000000000 [Eh]
	 Same-Spin Energy          =      -0.8300167567603332 [Eh]
	 Opposite-Spin Energy      =      -2.5256547755940986 [Eh]
	 Correlation Energy        =      -3.3556715323544317 [Eh]
	 Total Energy              =    -814.8328637139126158 [Eh]

	 ================> DF-SCS-MP2 Energies <==================
	-----------------------------------------------------------
	 SCS Same-Spin Scale       =       0.3333333333333333 [-]
	 SCS Opposite-Spin Scale   =       1.2000000000000000 [-]
	 SCS Same-Spin Energy      =      -0.2766722522534444 [Eh]
	 SCS Opposite-Spin Energy  =      -3.0307857307129180 [Eh]
	 SCS Correlation Energy    =      -3.3074579829663624 [Eh]
	 SCS Total Energy          =    -814.7846501645245780 [Eh]
	-----------------------------------------------------------

  Dipole Moment: [D]
     X:     1.1600      Y:    -4.6385      Z:     2.5249     Total:     5.4071

*** Psi4 exiting successfully. Buy a developer a beer!
