                               Psi4 1.3.2 release

  ==> Input File <==

--------------------------------------------------------------------------
#psi4
#
memory 32 gb

molecule  {
0 1
  O        1.3620710    -0.3800110    -0.9318440
  O        3.2020570     1.9012130    -0.2995130
  O        2.7994070    -2.7489470    -0.4002010
  O       -1.3621860     2.3740050     0.1547830
  N       -0.7982440     0.1994180    -0.2292560
  N       -2.9887003     0.7883701     0.2265163
  N       -4.6734100    -0.8124350     0.4126370
  C        2.7015950     0.8755540     0.5594740
  C        1.2368440     1.1072260     0.8878520
  C        2.6518190    -0.3922910    -0.2854700
  C        0.5739580     0.6830040    -0.4149160
  C        2.8020980    -1.6600160     0.5224700
  C       -1.1273370    -1.1158190    -0.3082760
  C       -1.7446880     1.2038920     0.0820450
  C       -2.3643420    -1.4521974    -0.1088985
  C       -3.3619920    -0.4731600     0.1685110
  H        3.3343810     0.7567850     1.4508530
  H        0.9047070     0.4438290     1.6934890
  H        0.9853290     2.1340670     1.1581470
  H        0.5274540     1.5132540    -1.1249130
  H        3.4174920    -0.3642830    -1.0666260
  H        1.9707490    -1.7331840     1.2432230
  H        3.7460890    -1.6095150     1.0882890
  H        3.1038510     2.7463240     0.1779830
  H       -0.3107400    -1.7892010    -0.5436980
  H        2.9100300    -3.5650720     0.1192120
  H       -2.7034680    -2.5490840    -0.1532500
  H       -5.0287110    -1.6377420    -0.0567190
  H       -5.2994710    -0.0137980     0.3861010
units angstrom
no_reorient  #important for SAPT in psi4, default
symmetry c1  #important for SAPT in psi4, default
}

set PROPERTIES_ORIGIN ["COM"]
properties('MP2/aug-cc-pvtz', properties = ['dipole'])
--------------------------------------------------------------------------

    Molecular point group: c1
  Charge       = 0
  Multiplicity = 1
  Basis Set: AUG-CC-PVTZ
    Blend: AUG-CC-PVTZ
  Basis Set: (AUG-CC-PVTZ AUX)
    Blend: AUG-CC-PVTZ-JKFIT

    Orbital Energies [Eh]
    ---------------------

    Doubly Occupied:

       1A    -20.576205     2A    -20.572077     3A    -20.569510
       4A    -20.494786     5A    -15.612017     6A    -15.599237
       7A    -15.534797     8A    -11.361385     9A    -11.353376
      10A    -11.325697    11A    -11.305056    12A    -11.298287
      13A    -11.295025    14A    -11.290610    15A    -11.235948
      16A    -11.233443    17A     -1.413626    18A     -1.381938
      19A     -1.371731    20A     -1.363559    21A     -1.295457
      22A     -1.260406    23A     -1.182743    24A     -1.084322
      25A     -1.070071    26A     -1.027207    27A     -0.928151
      28A     -0.893834    29A     -0.874741    30A     -0.831479
      31A     -0.804792    32A     -0.761949    33A     -0.735830
      34A     -0.719784    35A     -0.711784    36A     -0.690982
      37A     -0.688782    38A     -0.678404    39A     -0.655630
      40A     -0.632046    41A     -0.628962    42A     -0.614049
      43A     -0.605931    44A     -0.598387    45A     -0.587057
      46A     -0.567460    47A     -0.566509    48A     -0.543004
      49A     -0.532461    50A     -0.519575    51A     -0.509145
      52A     -0.484926    53A     -0.482389    54A     -0.466802
      55A     -0.459353    56A     -0.440633    57A     -0.429475
      58A     -0.411418    59A     -0.386493    60A     -0.339194

  @DF-RHF Final Energy:  -811.46941711509794

   => Energetics <=

    Nuclear Repulsion Energy =           1173.4969962718162151
    One-Electron Energy =               -3442.1529712802798713
    Two-Electron Energy =                1457.1865578933654888
    Total Energy =                       -811.4694171150979400
  Basis Set: (AUG-CC-PVTZ AUX)
    Blend: AUG-CC-PVTZ-RI
    Molecular point group: c1

    Geometry (in Angstrom), charge = 0, multiplicity = 1:

       Center              X                  Y                   Z               Mass
    ------------   -----------------  -----------------  -----------------  -----------------
         O            1.355235011924    -0.381737866496    -0.930781573585    15.994914619570
         O            3.195221011924     1.899486133504    -0.298450573585    15.994914619570
         O            2.792571011924    -2.750673866496    -0.399138573585    15.994914619570
         O           -1.369021988076     2.372278133504     0.155845426415    15.994914619570
         N           -0.805079988076     0.197691133504    -0.228193573585    14.003074004430
         N           -2.995536288076     0.786643233504     0.227578726415    14.003074004430
         N           -4.680245988076    -0.814161866496     0.413699426415    14.003074004430
         C            2.694759011924     0.873827133504     0.560536426415    12.000000000000
         C            1.230008011924     1.105499133504     0.888914426415    12.000000000000
         C            2.644983011924    -0.394017866496    -0.284407573585    12.000000000000
         C            0.567122011924     0.681277133504    -0.413853573585    12.000000000000
         C            2.795262011924    -1.661742866496     0.523532426415    12.000000000000
         C           -1.134172988076    -1.117545866496    -0.307213573585    12.000000000000
         C           -1.751523988076     1.202165133504     0.083107426415    12.000000000000
         C           -2.371177988076    -1.453924266496    -0.107836073585    12.000000000000
         C           -3.368827988076    -0.474886866496     0.169573426415    12.000000000000
         H            3.327545011924     0.755058133504     1.451915426415     1.007825032230
         H            0.897871011924     0.442102133504     1.694551426415     1.007825032230
         H            0.978493011924     2.132340133504     1.159209426415     1.007825032230
         H            0.520618011924     1.511527133504    -1.123850573585     1.007825032230
         H            3.410656011924    -0.366009866496    -1.065563573585     1.007825032230
         H            1.963913011924    -1.734910866496     1.244285426415     1.007825032230
         H            3.739253011924    -1.611241866496     1.089351426415     1.007825032230
         H            3.097015011924     2.744597133504     0.179045426415     1.007825032230
         H           -0.317575988076    -1.790927866496    -0.542635573585     1.007825032230
         H            2.903194011924    -3.566798866496     0.120274426415     1.007825032230
         H           -2.710303988076    -2.550810866496    -0.152187573585     1.007825032230
         H           -5.035546988076    -1.639468866496    -0.055656573585     1.007825032230
         H           -5.306306988076    -0.015524866496     0.387163426415     1.007825032230

  Basis Set: AUG-CC-PVTZ
    Blend: AUG-CC-PVTZ
  Basis Set: (AUG-CC-PVTZ AUX)
    Blend: AUG-CC-PVTZ-JKFIT
	 Reference Energy          =    -811.4694171150979400 [Eh]
	 Singles Energy            =      -0.0000000000000000 [Eh]
	 Same-Spin Energy          =      -0.8299243761383714 [Eh]
	 Opposite-Spin Energy      =      -2.5241201671292872 [Eh]
	 Correlation Energy        =      -3.3540445432676584 [Eh]
	 Total Energy              =    -814.8234616583655452 [Eh]

	 ================> DF-SCS-MP2 Energies <==================
	-----------------------------------------------------------
	 SCS Same-Spin Scale       =       0.3333333333333333 [-]
	 SCS Opposite-Spin Scale   =       1.2000000000000000 [-]
	 SCS Same-Spin Energy      =      -0.2766414587127904 [Eh]
	 SCS Opposite-Spin Energy  =      -3.0289442005551446 [Eh]
	 SCS Correlation Energy    =      -3.3055856592679351 [Eh]
	 SCS Total Energy          =    -814.7750027743659302 [Eh]
	-----------------------------------------------------------

  Dipole Moment: [D]
     X:     0.5715      Y:    -4.8266      Z:     2.5366     Total:     5.4824

*** Psi4 exiting successfully. Buy a developer a beer!
