                               Psi4 1.3.2 release

  ==> Input File <==

--------------------------------------------------------------------------
#psi4
#
memory 32 gb

molecule  {
0 1
  O        1.3735494    -0.3792672    -0.9542429
  O        3.2020570     1.9012130    -0.2995130
  O        2.7994070    -2.7489470    -0.4002010
  O       -1.3621860     2.3740050     0.1547830
  N       -0.7982440     0.1994180    -0.2292560
  N       -3.0541720     0.8052390     0.2400120
  N       -4.6734100    -0.8124350     0.4126370
  C        2.7015950     0.8755540     0.5594740
  C        1.2368440     1.1072260     0.8878520
  C        2.6518190    -0.3922910    -0.2854700
  C        0.5739580     0.6830040    -0.4149160
  C        2.8020980    -1.6600160     0.5224700
  C       -1.1273370    -1.1158190    -0.3082760
  C       -1.7446880     1.2038920     0.0820450
  C       -2.4173070    -1.5045610    -0.1045420
  C       -3.3619920    -0.4731600     0.1685110
  H        3.3343810     0.7567850     1.4508530
  H        0.9047070     0.4438290     1.6934890
  H        0.9853290     2.1340670     1.1581470
  H        0.5274540     1.5132540    -1.1249130
  H        3.4037340    -0.3639597    -1.0798663
  H        1.9707490    -1.7331840     1.2432230
  H        3.7460890    -1.6095150     1.0882890
  H        3.1038510     2.7463240     0.1779830
  H       -0.3107400    -1.7892010    -0.5436980
  H        2.9100300    -3.5650720     0.1192120
  H       -2.7034680    -2.5490840    -0.1532500
  H       -5.0287110    -1.6377420    -0.0567190
  H       -5.2994710    -0.0137980     0.3861010
units angstrom
no_reorient  #important for SAPT in psi4, default
symmetry c1  #important for SAPT in psi4, default
}

set PROPERTIES_ORIGIN ["COM"]
properties('MP2/aug-cc-pvtz', properties = ['dipole'])
--------------------------------------------------------------------------

    Molecular point group: c1
  Charge       = 0
  Multiplicity = 1
  Basis Set: AUG-CC-PVTZ
    Blend: AUG-CC-PVTZ
  Basis Set: (AUG-CC-PVTZ AUX)
    Blend: AUG-CC-PVTZ-JKFIT

    Orbital Energies [Eh]
    ---------------------

    Doubly Occupied:

       1A    -20.577536     2A    -20.574270     3A    -20.572738
       4A    -20.503380     5A    -15.622343     6A    -15.588607
       7A    -15.541141     8A    -11.370306     9A    -11.345353
      10A    -11.331540    11A    -11.318693    12A    -11.301063
      13A    -11.296847    14A    -11.292022    15A    -11.237645
      16A    -11.237362    17A     -1.412993    18A     -1.382617
      19A     -1.373393    20A     -1.364479    21A     -1.292568
      22A     -1.261851    23A     -1.169441    24A     -1.079731
      25A     -1.068269    26A     -1.027434    27A     -0.926903
      28A     -0.897598    29A     -0.869092    30A     -0.830438
      31A     -0.806066    32A     -0.754518    33A     -0.738176
      34A     -0.720321    35A     -0.706900    36A     -0.692186
      37A     -0.689328    38A     -0.674831    39A     -0.655806
      40A     -0.637175    41A     -0.627805    42A     -0.618600
      43A     -0.604989    44A     -0.594884    45A     -0.588495
      46A     -0.572640    47A     -0.565726    48A     -0.545304
      49A     -0.532827    50A     -0.523854    51A     -0.510637
      52A     -0.486089    53A     -0.482478    54A     -0.468397
      55A     -0.460806    56A     -0.444756    57A     -0.437988
      58A     -0.416669    59A     -0.384061    60A     -0.335299

  @DF-RHF Final Energy:  -811.47842970336023

   => Energetics <=

    Nuclear Repulsion Energy =           1169.3242194227520940
    One-Electron Energy =               -3433.7147736257293218
    Two-Electron Energy =                1452.9121244996167661
    Total Energy =                       -811.4784297033602343
  Basis Set: (AUG-CC-PVTZ AUX)
    Blend: AUG-CC-PVTZ-RI
    Molecular point group: c1

    Geometry (in Angstrom), charge = 0, multiplicity = 1:

       Center              X                  Y                   Z               Mass
    ------------   -----------------  -----------------  -----------------  -----------------
         O            1.372801971526    -0.379321060710    -0.952606459912    15.994914619570
         O            3.201309571526     1.901159139290    -0.297876559912    15.994914619570
         O            2.798659571526    -2.749000860710    -0.398564559912    15.994914619570
         O           -1.362933428474     2.373951139290     0.156419440088    15.994914619570
         N           -0.798991428474     0.199364139290    -0.227619559912    14.003074004430
         N           -3.054919428474     0.805185139290     0.241648440088    14.003074004430
         N           -4.674157428474    -0.812488860710     0.414273440088    14.003074004430
         C            2.700847571526     0.875500139290     0.561110440088    12.000000000000
         C            1.236096571526     1.107172139290     0.889488440088    12.000000000000
         C            2.651071571526    -0.392344860710    -0.283833559912    12.000000000000
         C            0.573210571526     0.682950139290    -0.413279559912    12.000000000000
         C            2.801350571526    -1.660069860710     0.524106440088    12.000000000000
         C           -1.128084428474    -1.115872860710    -0.306639559912    12.000000000000
         C           -1.745435428474     1.203838139290     0.083681440088    12.000000000000
         C           -2.418054428474    -1.504614860710    -0.102905559912    12.000000000000
         C           -3.362739428474    -0.473213860710     0.170147440088    12.000000000000
         H            3.333633571526     0.756731139290     1.452489440088     1.007825032230
         H            0.903959571526     0.443775139290     1.695125440088     1.007825032230
         H            0.984581571526     2.134013139290     1.159783440088     1.007825032230
         H            0.526706571526     1.513200139290    -1.123276559912     1.007825032230
         H            3.402986571526    -0.364013560710    -1.078229859912     1.007825032230
         H            1.970001571526    -1.733237860710     1.244859440088     1.007825032230
         H            3.745341571526    -1.609568860710     1.089925440088     1.007825032230
         H            3.103103571526     2.746270139290     0.179619440088     1.007825032230
         H           -0.311487428474    -1.789254860710    -0.542061559912     1.007825032230
         H            2.909282571526    -3.565125860710     0.120848440088     1.007825032230
         H           -2.704215428474    -2.549137860710    -0.151613559912     1.007825032230
         H           -5.029458428474    -1.637795860710    -0.055082559912     1.007825032230
         H           -5.300218428474    -0.013851860710     0.387737440088     1.007825032230

  Basis Set: AUG-CC-PVTZ
    Blend: AUG-CC-PVTZ
  Basis Set: (AUG-CC-PVTZ AUX)
    Blend: AUG-CC-PVTZ-JKFIT
	 Reference Energy          =    -811.4784297033602343 [Eh]
	 Singles Energy            =      -0.0000000000000000 [Eh]
	 Same-Spin Energy          =      -0.8297208917459953 [Eh]
	 Opposite-Spin Energy      =      -2.5255751499360843 [Eh]
	 Correlation Energy        =      -3.3552960416820796 [Eh]
	 Total Energy              =    -814.8337257450423294 [Eh]

	 ================> DF-SCS-MP2 Energies <==================
	-----------------------------------------------------------
	 SCS Same-Spin Scale       =       0.3333333333333333 [-]
	 SCS Opposite-Spin Scale   =       1.2000000000000000 [-]
	 SCS Same-Spin Energy      =      -0.2765736305819984 [Eh]
	 SCS Opposite-Spin Energy  =      -3.0306901799233010 [Eh]
	 SCS Correlation Energy    =      -3.3072638105052996 [Eh]
	 SCS Total Energy          =    -814.7856935138655672 [Eh]
	-----------------------------------------------------------

  Dipole Moment: [D]
     X:     1.0209      Y:    -4.6634      Z:     2.5300     Total:     5.4029

*** Psi4 exiting successfully. Buy a developer a beer!
