                               Psi4 1.3.2 release

  ==> Input File <==

--------------------------------------------------------------------------
#psi4
#
memory 32 gb

molecule  {
0 1
  O        1.4066614    -0.3731028    -0.8727162
  O        3.2020570     1.9012130    -0.2995130
  O        2.7994070    -2.7489470    -0.4002010
  O       -1.3621860     2.3740050     0.1547830
  N       -0.7982440     0.1994180    -0.2292560
  N       -3.0541720     0.8052390     0.2400120
  N       -4.6734100    -0.8124350     0.4126370
  C        2.7015950     0.8755540     0.5594740
  C        1.2919990     1.0510238     0.8756518
  C        2.6518190    -0.3922910    -0.2854700
  C        0.5739580     0.6830040    -0.4149160
  C        2.8020980    -1.6600160     0.5224700
  C       -1.1273370    -1.1158190    -0.3082760
  C       -1.7446880     1.2038920     0.0820450
  C       -2.4173070    -1.5045610    -0.1045420
  C       -3.3619920    -0.4731600     0.1685110
  H        3.3343810     0.7567850     1.4508530
  H        0.9047070     0.4438290     1.6934890
  H        0.9853290     2.1340670     1.1581470
  H        0.5274540     1.5132540    -1.1249130
  H        3.4174920    -0.3642830    -1.0666260
  H        1.9707490    -1.7331840     1.2432230
  H        3.7460890    -1.6095150     1.0882890
  H        3.1038510     2.7463240     0.1779830
  H       -0.3107400    -1.7892010    -0.5436980
  H        2.9100300    -3.5650720     0.1192120
  H       -2.7034680    -2.5490840    -0.1532500
  H       -5.0287110    -1.6377420    -0.0567190
  H       -5.2994710    -0.0137980     0.3861010
units angstrom
no_reorient  #important for SAPT in psi4, default
symmetry c1  #important for SAPT in psi4, default
}

set PROPERTIES_ORIGIN ["COM"]
properties('MP2/aug-cc-pvtz', properties = ['dipole'])
--------------------------------------------------------------------------

    Molecular point group: c1
  Charge       = 0
  Multiplicity = 1
  Basis Set: AUG-CC-PVTZ
    Blend: AUG-CC-PVTZ
  Basis Set: (AUG-CC-PVTZ AUX)
    Blend: AUG-CC-PVTZ-JKFIT

    Orbital Energies [Eh]
    ---------------------

    Doubly Occupied:

       1A    -20.575598     2A    -20.573290     3A    -20.569058
       4A    -20.505060     5A    -15.625700     6A    -15.590137
       7A    -15.542970     8A    -11.372535     9A    -11.347243
      10A    -11.334597    11A    -11.321047    12A    -11.293643
      13A    -11.292147    14A    -11.285889    15A    -11.239454
      16A    -11.236857    17A     -1.433160    18A     -1.385261
      19A     -1.372111    20A     -1.366817    21A     -1.294947
      22A     -1.265236    23A     -1.171494    24A     -1.083317
      25A     -1.071237    26A     -1.031236    27A     -0.929738
      28A     -0.900588    29A     -0.868398    30A     -0.832473
      31A     -0.807012    32A     -0.756006    33A     -0.743475
      34A     -0.722576    35A     -0.708488    36A     -0.692655
      37A     -0.688964    38A     -0.680637    39A     -0.661836
      40A     -0.640836    41A     -0.629743    42A     -0.620776
      43A     -0.606847    44A     -0.599199    45A     -0.590968
      46A     -0.576556    47A     -0.572261    48A     -0.541622
      49A     -0.533425    50A     -0.510685    51A     -0.508194
      52A     -0.483162    53A     -0.478770    54A     -0.467938
      55A     -0.461704    56A     -0.445261    57A     -0.435565
      58A     -0.418462    59A     -0.385909    60A     -0.337238

  @DF-RHF Final Energy:  -811.46951353820566

   => Energetics <=

    Nuclear Repulsion Energy =           1172.4608741803049270
    One-Electron Energy =               -3439.8247572601962929
    Two-Electron Energy =                1455.8943695416855917
    Total Energy =                       -811.4695135382057742
  Basis Set: (AUG-CC-PVTZ AUX)
    Blend: AUG-CC-PVTZ-RI
    Molecular point group: c1

    Geometry (in Angstrom), charge = 0, multiplicity = 1:

       Center              X                  Y                   Z               Mass
    ------------   -----------------  -----------------  -----------------  -----------------
         O            1.400606181427    -0.370619553656    -0.876236089945    15.994914619570
         O            3.196001781427     1.903696246344    -0.303032889945    15.994914619570
         O            2.793351781427    -2.746463753656    -0.403720889945    15.994914619570
         O           -1.368241218573     2.376488246344     0.151263110055    15.994914619570
         N           -0.804299218573     0.201901246344    -0.232775889945    14.003074004430
         N           -3.060227218573     0.807722246344     0.236492110055    14.003074004430
         N           -4.679465218573    -0.809951753656     0.409117110055    14.003074004430
         C            2.695539781427     0.878037246344     0.555954110055    12.000000000000
         C            1.285943781427     1.053507046344     0.872131910055    12.000000000000
         C            2.645763781427    -0.389807753656    -0.288989889945    12.000000000000
         C            0.567902781427     0.685487246344    -0.418435889945    12.000000000000
         C            2.796042781427    -1.657532753656     0.518950110055    12.000000000000
         C           -1.133392218573    -1.113335753656    -0.311795889945    12.000000000000
         C           -1.750743218573     1.206375246344     0.078525110055    12.000000000000
         C           -2.423362218573    -1.502077753656    -0.108061889945    12.000000000000
         C           -3.368047218573    -0.470676753656     0.164991110055    12.000000000000
         H            3.328325781427     0.759268246344     1.447333110055     1.007825032230
         H            0.898651781427     0.446312246344     1.689969110055     1.007825032230
         H            0.979273781427     2.136550246344     1.154627110055     1.007825032230
         H            0.521398781427     1.515737246344    -1.128432889945     1.007825032230
         H            3.411436781427    -0.361799753656    -1.070145889945     1.007825032230
         H            1.964693781427    -1.730700753656     1.239703110055     1.007825032230
         H            3.740033781427    -1.607031753656     1.084769110055     1.007825032230
         H            3.097795781427     2.748807246344     0.174463110055     1.007825032230
         H           -0.316795218573    -1.786717753656    -0.547217889945     1.007825032230
         H            2.903974781427    -3.562588753656     0.115692110055     1.007825032230
         H           -2.709523218573    -2.546600753656    -0.156769889945     1.007825032230
         H           -5.034766218573    -1.635258753656    -0.060238889945     1.007825032230
         H           -5.305526218573    -0.011314753656     0.382581110055     1.007825032230

  Basis Set: AUG-CC-PVTZ
    Blend: AUG-CC-PVTZ
  Basis Set: (AUG-CC-PVTZ AUX)
    Blend: AUG-CC-PVTZ-JKFIT
	 Reference Energy          =    -811.4695135382056606 [Eh]
	 Singles Energy            =      -0.0000000000000000 [Eh]
	 Same-Spin Energy          =      -0.8302037648340082 [Eh]
	 Opposite-Spin Energy      =      -2.5244146562503245 [Eh]
	 Correlation Energy        =      -3.3546184210843326 [Eh]
	 Total Energy              =    -814.8241319592899572 [Eh]

	 ================> DF-SCS-MP2 Energies <==================
	-----------------------------------------------------------
	 SCS Same-Spin Scale       =       0.3333333333333333 [-]
	 SCS Opposite-Spin Scale   =       1.2000000000000000 [-]
	 SCS Same-Spin Energy      =      -0.2767345882780027 [Eh]
	 SCS Opposite-Spin Energy  =      -3.0292975875003894 [Eh]
	 SCS Correlation Energy    =      -3.3060321757783919 [Eh]
	 SCS Total Energy          =    -814.7755457139840018 [Eh]
	-----------------------------------------------------------

  Dipole Moment: [D]
     X:     0.6816      Y:    -4.6889      Z:     2.3449     Total:     5.2867

*** Psi4 exiting successfully. Buy a developer a beer!
