                               Psi4 1.3.2 release

  ==> Input File <==

--------------------------------------------------------------------------
#psi4
#
memory 32 gb

molecule  {
0 1
  O        1.3620710    -0.3800110    -0.9318440
  O        3.2020570     1.9012130    -0.2995130
  O        2.7994070    -2.7489470    -0.4002010
  O       -1.3621860     2.3740050     0.1547830
  N       -0.7982440     0.1994180    -0.2292560
  N       -3.0541720     0.8052390     0.2400120
  N       -4.6734100    -0.8124350     0.4126370
  C        2.7015950     0.8755540     0.5594740
  C        1.2368440     1.1072260     0.8878520
  C        2.6518190    -0.3922910    -0.2854700
  C        0.5739580     0.6830040    -0.4149160
  C        2.8020980    -1.6600160     0.5224700
  C       -1.1273370    -1.1158190    -0.3082760
  C       -1.7446880     1.2038920     0.0820450
  C       -2.4173070    -1.5045610    -0.1045420
  C       -3.3619920    -0.4731600     0.1685110
  H        3.3343810     0.7567850     1.4508530
  H        0.9047070     0.4438290     1.6934890
  H        0.9853290     2.1340670     1.1581470
  H        0.5274540     1.5132540    -1.1249130
  H        3.4174920    -0.3642830    -1.0666260
  H        1.9707490    -1.7331840     1.2432230
  H        3.7460890    -1.6095150     1.0882890
  H        3.1038510     2.7463240     0.1779830
  H       -0.3107400    -1.7892010    -0.5436980
  H        2.9100300    -3.5650720     0.1192120
  H       -2.6770720    -2.4527353    -0.1487571
  H       -5.0287110    -1.6377420    -0.0567190
  H       -5.2994710    -0.0137980     0.3861010
units angstrom
no_reorient  #important for SAPT in psi4, default
symmetry c1  #important for SAPT in psi4, default
}

set PROPERTIES_ORIGIN ["COM"]
properties('MP2/aug-cc-pvtz', properties = ['dipole'])
--------------------------------------------------------------------------

    Molecular point group: c1
  Charge       = 0
  Multiplicity = 1
  Basis Set: AUG-CC-PVTZ
    Blend: AUG-CC-PVTZ
  Basis Set: (AUG-CC-PVTZ AUX)
    Blend: AUG-CC-PVTZ-JKFIT

    Orbital Energies [Eh]
    ---------------------

    Doubly Occupied:

       1A    -20.577745     2A    -20.574269     3A    -20.572772
       4A    -20.502832     5A    -15.621373     6A    -15.588456
       7A    -15.540152     8A    -11.369583     9A    -11.344170
      10A    -11.330524    11A    -11.317766    12A    -11.300776
      13A    -11.296839    14A    -11.293009    15A    -11.236673
      16A    -11.225372    17A     -1.416524    18A     -1.382186
      19A     -1.373541    20A     -1.365619    21A     -1.292041
      22A     -1.261200    23A     -1.168853    24A     -1.080254
      25A     -1.070446    26A     -1.029408    27A     -0.927319
      28A     -0.898782    29A     -0.869624    30A     -0.832534
      31A     -0.806313    32A     -0.754088    33A     -0.743980
      34A     -0.721498    35A     -0.706656    36A     -0.692997
      37A     -0.689525    38A     -0.676593    39A     -0.662983
      40A     -0.644486    41A     -0.627451    42A     -0.620350
      43A     -0.604546    44A     -0.595290    45A     -0.589236
      46A     -0.574937    47A     -0.568646    48A     -0.544796
      49A     -0.532436    50A     -0.523997    51A     -0.510306
      52A     -0.485788    53A     -0.481820    54A     -0.468467
      55A     -0.461045    56A     -0.444344    57A     -0.437862
      58A     -0.416171    59A     -0.383502    60A     -0.334744

  @DF-RHF Final Energy:  -811.47345916232848

   => Energetics <=

    Nuclear Repulsion Energy =           1170.5513034176376550
    One-Electron Energy =               -3436.1185417992437579
    Two-Electron Energy =                1454.0937792192778488
    Total Energy =                       -811.4734591623284814
  Basis Set: (AUG-CC-PVTZ AUX)
    Blend: AUG-CC-PVTZ-RI
    Molecular point group: c1

    Geometry (in Angstrom), charge = 0, multiplicity = 1:

       Center              X                  Y                   Z               Mass
    ------------   -----------------  -----------------  -----------------  -----------------
         O            1.361953838996    -0.380438631276    -0.931863905203    15.994914619570
         O            3.201939838996     1.900785368724    -0.299532905203    15.994914619570
         O            2.799289838996    -2.749374631276    -0.400220905203    15.994914619570
         O           -1.362303161004     2.373577368724     0.154763094797    15.994914619570
         N           -0.798361161004     0.198990368724    -0.229275905203    14.003074004430
         N           -3.054289161004     0.804811368724     0.239992094797    14.003074004430
         N           -4.673527161004    -0.812862631276     0.412617094797    14.003074004430
         C            2.701477838996     0.875126368724     0.559454094797    12.000000000000
         C            1.236726838996     1.106798368724     0.887832094797    12.000000000000
         C            2.651701838996    -0.392718631276    -0.285489905203    12.000000000000
         C            0.573840838996     0.682576368724    -0.414935905203    12.000000000000
         C            2.801980838996    -1.660443631276     0.522450094797    12.000000000000
         C           -1.127454161004    -1.116246631276    -0.308295905203    12.000000000000
         C           -1.744805161004     1.203464368724     0.082025094797    12.000000000000
         C           -2.417424161004    -1.504988631276    -0.104561905203    12.000000000000
         C           -3.362109161004    -0.473587631276     0.168491094797    12.000000000000
         H            3.334263838996     0.756357368724     1.450833094797     1.007825032230
         H            0.904589838996     0.443401368724     1.693469094797     1.007825032230
         H            0.985211838996     2.133639368724     1.158127094797     1.007825032230
         H            0.527336838996     1.512826368724    -1.124932905203     1.007825032230
         H            3.417374838996    -0.364710631276    -1.066645905203     1.007825032230
         H            1.970631838996    -1.733611631276     1.243203094797     1.007825032230
         H            3.745971838996    -1.609942631276     1.088269094797     1.007825032230
         H            3.103733838996     2.745896368724     0.177963094797     1.007825032230
         H           -0.310857161004    -1.789628631276    -0.543717905203     1.007825032230
         H            2.909912838996    -3.565499631276     0.119192094797     1.007825032230
         H           -2.677189161004    -2.453162931276    -0.148777005203     1.007825032230
         H           -5.028828161004    -1.638169631276    -0.056738905203     1.007825032230
         H           -5.299588161004    -0.014225631276     0.386081094797     1.007825032230

  Basis Set: AUG-CC-PVTZ
    Blend: AUG-CC-PVTZ
  Basis Set: (AUG-CC-PVTZ AUX)
    Blend: AUG-CC-PVTZ-JKFIT
	 Reference Energy          =    -811.4734591623284814 [Eh]
	 Singles Energy            =      -0.0000000000000000 [Eh]
	 Same-Spin Energy          =      -0.8294905376746415 [Eh]
	 Opposite-Spin Energy      =      -2.5246350753001363 [Eh]
	 Correlation Energy        =      -3.3541256129747778 [Eh]
	 Total Energy              =    -814.8275847753033077 [Eh]

	 ================> DF-SCS-MP2 Energies <==================
	-----------------------------------------------------------
	 SCS Same-Spin Scale       =       0.3333333333333333 [-]
	 SCS Opposite-Spin Scale   =       1.2000000000000000 [-]
	 SCS Same-Spin Energy      =      -0.2764968458915472 [Eh]
	 SCS Opposite-Spin Energy  =      -3.0295620903601637 [Eh]
	 SCS Correlation Energy    =      -3.3060589362517110 [Eh]
	 SCS Total Energy          =    -814.7795180985801835 [Eh]
	-----------------------------------------------------------

  Dipole Moment: [D]
     X:     1.0739      Y:    -4.6871      Z:     2.4864     Total:     5.4134

*** Psi4 exiting successfully. Buy a developer a beer!
