                               Psi4 1.3.2 release

  ==> Input File <==

--------------------------------------------------------------------------
#psi4
#
memory 32 gb

molecule  {
0 1
  O        1.3620710    -0.3800110    -0.9318440
  O        3.2020570     1.9012130    -0.2995130
  O        2.7994070    -2.7489470    -0.4002010
  O       -1.3621860     2.3740050     0.1547830
  N       -0.7982440     0.1994180    -0.2292560
  N       -3.0541720     0.8052390     0.2400120
  N       -4.6734100    -0.8124350     0.4126370
  C        2.7015950     0.8755540     0.5594740
  C        1.2368440     1.1072260     0.8878520
  C        2.6518190    -0.3922910    -0.2854700
  C        0.5739580     0.6830040    -0.4149160
  C        2.8020980    -1.6600160     0.5224700
  C       -1.1273370    -1.1158190    -0.3082760
  C       -1.7446880     1.2038920     0.0820450
  C       -2.3968942    -1.5719006    -0.1162743
  C       -3.3619920    -0.4731600     0.1685110
  H        3.3343810     0.7567850     1.4508530
  H        0.9047070     0.4438290     1.6934890
  H        0.9853290     2.1340670     1.1581470
  H        0.5274540     1.5132540    -1.1249130
  H        3.4174920    -0.3642830    -1.0666260
  H        1.9707490    -1.7331840     1.2432230
  H        3.7460890    -1.6095150     1.0882890
  H        3.1038510     2.7463240     0.1779830
  H       -0.3476340    -1.8322919    -0.5415727
  H        2.9100300    -3.5650720     0.1192120
  H       -2.7034680    -2.5490840    -0.1532500
  H       -5.0287110    -1.6377420    -0.0567190
  H       -5.2994710    -0.0137980     0.3861010
units angstrom
no_reorient  #important for SAPT in psi4, default
symmetry c1  #important for SAPT in psi4, default
}

set PROPERTIES_ORIGIN ["COM"]
properties('MP2/aug-cc-pvtz', properties = ['dipole'])
--------------------------------------------------------------------------

    Molecular point group: c1
  Charge       = 0
  Multiplicity = 1
  Basis Set: AUG-CC-PVTZ
    Blend: AUG-CC-PVTZ
  Basis Set: (AUG-CC-PVTZ AUX)
    Blend: AUG-CC-PVTZ-JKFIT

    Orbital Energies [Eh]
    ---------------------

    Doubly Occupied:

       1A    -20.576607     2A    -20.573683     3A    -20.571037
       4A    -20.505454     5A    -15.620938     6A    -15.590280
       7A    -15.543290     8A    -11.371823     9A    -11.351167
      10A    -11.330096    11A    -11.315463    12A    -11.300013
      13A    -11.295679    14A    -11.291848    15A    -11.237778
      16A    -11.235997    17A     -1.415118    18A     -1.382806
      19A     -1.372588    20A     -1.364905    21A     -1.290468
      22A     -1.260696    23A     -1.170053    24A     -1.077638
      25A     -1.067295    26A     -1.026452    27A     -0.924182
      28A     -0.891255    29A     -0.869622    30A     -0.832144
      31A     -0.804953    32A     -0.752118    33A     -0.740452
      34A     -0.720190    35A     -0.705100    36A     -0.692149
      37A     -0.689099    38A     -0.676693    39A     -0.663595
      40A     -0.643109    41A     -0.626619    42A     -0.616622
      43A     -0.602509    44A     -0.593017    45A     -0.582579
      46A     -0.574666    47A     -0.567409    48A     -0.543699
      49A     -0.531647    50A     -0.523284    51A     -0.509677
      52A     -0.484889    53A     -0.482061    54A     -0.467414
      55A     -0.460464    56A     -0.445519    57A     -0.436937
      58A     -0.415948    59A     -0.383724    60A     -0.335971

  @DF-RHF Final Energy:  -811.47394539365132

   => Energetics <=

    Nuclear Repulsion Energy =           1168.5513344315402264
    One-Electron Energy =               -3432.1935822288405689
    Two-Electron Energy =                1452.1683024036487950
    Total Energy =                       -811.4739453936513200
  Basis Set: (AUG-CC-PVTZ AUX)
    Blend: AUG-CC-PVTZ-RI
    Molecular point group: c1

    Geometry (in Angstrom), charge = 0, multiplicity = 1:

       Center              X                  Y                   Z               Mass
    ------------   -----------------  -----------------  -----------------  -----------------
         O            1.361156058951    -0.376261417888    -0.931233435590    15.994914619570
         O            3.201142058951     1.904962582112    -0.298902435590    15.994914619570
         O            2.798492058951    -2.745197417888    -0.399590435590    15.994914619570
         O           -1.363100941049     2.377754582112     0.155393564410    15.994914619570
         N           -0.799158941049     0.203167582112    -0.228645435590    14.003074004430
         N           -3.055086941049     0.808988582112     0.240622564410    14.003074004430
         N           -4.674324941049    -0.808685417888     0.413247564410    14.003074004430
         C            2.700680058951     0.879303582112     0.560084564410    12.000000000000
         C            1.235929058951     1.110975582112     0.888462564410    12.000000000000
         C            2.650904058951    -0.388541417888    -0.284859435590    12.000000000000
         C            0.573043058951     0.686753582112    -0.414305435590    12.000000000000
         C            2.801183058951    -1.656266417888     0.523080564410    12.000000000000
         C           -1.128251941049    -1.112069417888    -0.307665435590    12.000000000000
         C           -1.745602941049     1.207641582112     0.082655564410    12.000000000000
         C           -2.397809141049    -1.568151017888    -0.115663735590    12.000000000000
         C           -3.362906941049    -0.469410417888     0.169121564410    12.000000000000
         H            3.333466058951     0.760534582112     1.451463564410     1.007825032230
         H            0.903792058951     0.447578582112     1.694099564410     1.007825032230
         H            0.984414058951     2.137816582112     1.158757564410     1.007825032230
         H            0.526539058951     1.517003582112    -1.124302435590     1.007825032230
         H            3.416577058951    -0.360533417888    -1.066015435590     1.007825032230
         H            1.969834058951    -1.729434417888     1.243833564410     1.007825032230
         H            3.745174058951    -1.605765417888     1.088899564410     1.007825032230
         H            3.102936058951     2.750073582112     0.178593564410     1.007825032230
         H           -0.348548941049    -1.828542317888    -0.540962135590     1.007825032230
         H            2.909115058951    -3.561322417888     0.119822564410     1.007825032230
         H           -2.704382941049    -2.545334417888    -0.152639435590     1.007825032230
         H           -5.029625941049    -1.633992417888    -0.056108435590     1.007825032230
         H           -5.300385941049    -0.010048417888     0.386711564410     1.007825032230

  Basis Set: AUG-CC-PVTZ
    Blend: AUG-CC-PVTZ
  Basis Set: (AUG-CC-PVTZ AUX)
    Blend: AUG-CC-PVTZ-JKFIT
	 Reference Energy          =    -811.4739453936513200 [Eh]
	 Singles Energy            =      -0.0000000000000000 [Eh]
	 Same-Spin Energy          =      -0.8286756228983233 [Eh]
	 Opposite-Spin Energy      =      -2.5246282313338240 [Eh]
	 Correlation Energy        =      -3.3533038542321472 [Eh]
	 Total Energy              =    -814.8272492478835147 [Eh]

	 ================> DF-SCS-MP2 Energies <==================
	-----------------------------------------------------------
	 SCS Same-Spin Scale       =       0.3333333333333333 [-]
	 SCS Opposite-Spin Scale   =       1.2000000000000000 [-]
	 SCS Same-Spin Energy      =      -0.2762252076327744 [Eh]
	 SCS Opposite-Spin Energy  =      -3.0295538776005886 [Eh]
	 SCS Correlation Energy    =      -3.3057790852333628 [Eh]
	 SCS Total Energy          =    -814.7797244788846456 [Eh]
	-----------------------------------------------------------

  Dipole Moment: [D]
     X:     0.8598      Y:    -4.6223      Z:     2.5254     Total:     5.3370

*** Psi4 exiting successfully. Buy a developer a beer!
