                               Psi4 1.3.2 release

  ==> Input File <==

--------------------------------------------------------------------------
#psi4
#
memory 32 gb

molecule  {
0 1
  O        1.3620710    -0.3800110    -0.9318440
  O        3.2020570     1.9012130    -0.2995130
  O        2.7994070    -2.7489470    -0.4002010
  O       -1.3621860     2.3740050     0.1547830
  N       -0.7982440     0.1994180    -0.2292560
  N       -3.0541720     0.8052390     0.2400120
  N       -4.6734100    -0.8124350     0.4126370
  C        2.7015950     0.8755540     0.5594740
  C        1.2336399     1.0963745     0.8809480
  C        2.6385886    -0.3926031    -0.2841176
  C        0.5739580     0.6830040    -0.4149160
  C        2.8020980    -1.6600160     0.5224700
  C       -1.1273370    -1.1158190    -0.3082760
  C       -1.7446880     1.2038920     0.0820450
  C       -2.4173070    -1.5045610    -0.1045420
  C       -3.3619920    -0.4731600     0.1685110
  H        3.3343810     0.7567850     1.4508530
  H        0.9047070     0.4438290     1.6934890
  H        0.9853290     2.1340670     1.1581470
  H        0.5274540     1.5132540    -1.1249130
  H        3.4174920    -0.3642830    -1.0666260
  H        1.9707490    -1.7331840     1.2432230
  H        3.7460890    -1.6095150     1.0882890
  H        3.1038510     2.7463240     0.1779830
  H       -0.3107400    -1.7892010    -0.5436980
  H        2.9100300    -3.5650720     0.1192120
  H       -2.7034680    -2.5490840    -0.1532500
  H       -5.0287110    -1.6377420    -0.0567190
  H       -5.2994710    -0.0137980     0.3861010
units angstrom
no_reorient  #important for SAPT in psi4, default
symmetry c1  #important for SAPT in psi4, default
}

set PROPERTIES_ORIGIN ["COM"]
properties('MP2/aug-cc-pvtz', properties = ['dipole'])
--------------------------------------------------------------------------

    Molecular point group: c1
  Charge       = 0
  Multiplicity = 1
  Basis Set: AUG-CC-PVTZ
    Blend: AUG-CC-PVTZ
  Basis Set: (AUG-CC-PVTZ AUX)
    Blend: AUG-CC-PVTZ-JKFIT

    Orbital Energies [Eh]
    ---------------------

    Doubly Occupied:

       1A    -20.577437     2A    -20.574414     3A    -20.573937
       4A    -20.503249     5A    -15.622019     6A    -15.588556
       7A    -15.541032     8A    -11.370154     9A    -11.345281
      10A    -11.330994    11A    -11.318617    12A    -11.300546
      13A    -11.296350    14A    -11.292732    15A    -11.237308
      16A    -11.236906    17A     -1.419820    18A     -1.382742
      19A     -1.373325    20A     -1.366412    21A     -1.292560
      22A     -1.261982    23A     -1.169435    24A     -1.080248
      25A     -1.068892    26A     -1.028326    27A     -0.927137
      28A     -0.897787    29A     -0.868771    30A     -0.831238
      31A     -0.805739    32A     -0.754534    33A     -0.739740
      34A     -0.721213    35A     -0.706975    36A     -0.692557
      37A     -0.689375    38A     -0.676101    39A     -0.657094
      40A     -0.637562    41A     -0.628645    42A     -0.618671
      43A     -0.604963    44A     -0.595561    45A     -0.589511
      46A     -0.573429    47A     -0.567895    48A     -0.544233
      49A     -0.533238    50A     -0.522535    51A     -0.511200
      52A     -0.485237    53A     -0.481365    54A     -0.468428
      55A     -0.460841    56A     -0.444531    57A     -0.438132
      58A     -0.416519    59A     -0.384116    60A     -0.335287

  @DF-RHF Final Energy:  -811.47898536037417

   => Energetics <=

    Nuclear Repulsion Energy =           1170.4630960005724774
    One-Electron Energy =               -3435.9572915285361887
    Two-Electron Energy =                1454.0152101675894301
    Total Energy =                       -811.4789853603742813
  Basis Set: (AUG-CC-PVTZ AUX)
    Blend: AUG-CC-PVTZ-RI
    Molecular point group: c1

    Geometry (in Angstrom), charge = 0, multiplicity = 1:

       Center              X                  Y                   Z               Mass
    ------------   -----------------  -----------------  -----------------  -----------------
         O            1.362939421595    -0.379421126255    -0.931550606215    15.994914619570
         O            3.202925421595     1.901802873745    -0.299219606215    15.994914619570
         O            2.800275421595    -2.748357126255    -0.399907606215    15.994914619570
         O           -1.361317578405     2.374594873745     0.155076393785    15.994914619570
         N           -0.797375578405     0.200007873745    -0.228962606215    14.003074004430
         N           -3.053303578405     0.805828873745     0.240305393785    14.003074004430
         N           -4.672541578405    -0.811845126255     0.412930393785    14.003074004430
         C            2.702463421595     0.876143873745     0.559767393785    12.000000000000
         C            1.234508321595     1.096964373745     0.881241393785    12.000000000000
         C            2.639457021595    -0.392013226255    -0.283824206215    12.000000000000
         C            0.574826421595     0.683593873745    -0.414622606215    12.000000000000
         C            2.802966421595    -1.659426126255     0.522763393785    12.000000000000
         C           -1.126468578405    -1.115229126255    -0.307982606215    12.000000000000
         C           -1.743819578405     1.204481873745     0.082338393785    12.000000000000
         C           -2.416438578405    -1.503971126255    -0.104248606215    12.000000000000
         C           -3.361123578405    -0.472570126255     0.168804393785    12.000000000000
         H            3.335249421595     0.757374873745     1.451146393785     1.007825032230
         H            0.905575421595     0.444418873745     1.693782393785     1.007825032230
         H            0.986197421595     2.134656873745     1.158440393785     1.007825032230
         H            0.528322421595     1.513843873745    -1.124619606215     1.007825032230
         H            3.418360421595    -0.363693126255    -1.066332606215     1.007825032230
         H            1.971617421595    -1.732594126255     1.243516393785     1.007825032230
         H            3.746957421595    -1.608925126255     1.088582393785     1.007825032230
         H            3.104719421595     2.746913873745     0.178276393785     1.007825032230
         H           -0.309871578405    -1.788611126255    -0.543404606215     1.007825032230
         H            2.910898421595    -3.564482126255     0.119505393785     1.007825032230
         H           -2.702599578405    -2.548494126255    -0.152956606215     1.007825032230
         H           -5.027842578405    -1.637152126255    -0.056425606215     1.007825032230
         H           -5.298602578405    -0.013208126255     0.386394393785     1.007825032230

  Basis Set: AUG-CC-PVTZ
    Blend: AUG-CC-PVTZ
  Basis Set: (AUG-CC-PVTZ AUX)
    Blend: AUG-CC-PVTZ-JKFIT
	 Reference Energy          =    -811.4789853603741676 [Eh]
	 Singles Energy            =      -0.0000000000000000 [Eh]
	 Same-Spin Energy          =      -0.8297874226113305 [Eh]
	 Opposite-Spin Energy      =      -2.5251538962661080 [Eh]
	 Correlation Energy        =      -3.3549413188774384 [Eh]
	 Total Energy              =    -814.8339266792515900 [Eh]

	 ================> DF-SCS-MP2 Energies <==================
	-----------------------------------------------------------
	 SCS Same-Spin Scale       =       0.3333333333333333 [-]
	 SCS Opposite-Spin Scale   =       1.2000000000000000 [-]
	 SCS Same-Spin Energy      =      -0.2765958075371102 [Eh]
	 SCS Opposite-Spin Energy  =      -3.0301846755193296 [Eh]
	 SCS Correlation Energy    =      -3.3067804830564396 [Eh]
	 SCS Total Energy          =    -814.7857658434305677 [Eh]
	-----------------------------------------------------------

  Dipole Moment: [D]
     X:     1.0262      Y:    -4.6659      Z:     2.4909     Total:     5.3878

*** Psi4 exiting successfully. Buy a developer a beer!
