                               Psi4 1.3.2 release

  ==> Input File <==

--------------------------------------------------------------------------
#psi4
#
memory 32 gb

molecule  {
0 1
  O        1.3620710    -0.3800110    -0.9318440
  O        3.2020570     1.9012130    -0.2995130
  O        2.7994070    -2.7489470    -0.4002010
  O       -1.3621860     2.3740050     0.1547830
  N       -0.7982440     0.1994180    -0.2292560
  N       -3.0541720     0.8052390     0.2400120
  N       -4.6734100    -0.8124350     0.4126370
  C        2.6989667     0.8841471     0.5681127
  C        1.2368440     1.1072260     0.8878520
  C        2.6518190    -0.3922910    -0.2854700
  C        0.5739580     0.6830040    -0.4149160
  C        2.8020980    -1.6600160     0.5224700
  C       -1.1273370    -1.1158190    -0.3082760
  C       -1.7446880     1.2038920     0.0820450
  C       -2.4173070    -1.5045610    -0.1045420
  C       -3.3619920    -0.4731600     0.1685110
  H        3.3343810     0.7567850     1.4508530
  H        0.9047070     0.4438290     1.6934890
  H        0.9853290     2.1340670     1.1581470
  H        0.5274540     1.5132540    -1.1249130
  H        3.4174920    -0.3642830    -1.0666260
  H        1.9707490    -1.7331840     1.2432230
  H        3.7460890    -1.6095150     1.0882890
  H        3.1004734     2.7421540     0.1845929
  H       -0.3107400    -1.7892010    -0.5436980
  H        2.9100300    -3.5650720     0.1192120
  H       -2.7034680    -2.5490840    -0.1532500
  H       -5.0287110    -1.6377420    -0.0567190
  H       -5.2994710    -0.0137980     0.3861010
units angstrom
no_reorient  #important for SAPT in psi4, default
symmetry c1  #important for SAPT in psi4, default
}

set PROPERTIES_ORIGIN ["COM"]
properties('MP2/aug-cc-pvtz', properties = ['dipole'])
--------------------------------------------------------------------------

    Molecular point group: c1
  Charge       = 0
  Multiplicity = 1
  Basis Set: AUG-CC-PVTZ
    Blend: AUG-CC-PVTZ
  Basis Set: (AUG-CC-PVTZ AUX)
    Blend: AUG-CC-PVTZ-JKFIT

    Orbital Energies [Eh]
    ---------------------

    Doubly Occupied:

       1A    -20.577555     2A    -20.574939     3A    -20.572813
       4A    -20.503090     5A    -15.621816     6A    -15.588397
       7A    -15.540841     8A    -11.369949     9A    -11.345086
      10A    -11.330912    11A    -11.318337    12A    -11.300674
      13A    -11.296537    14A    -11.293214    15A    -11.237074
      16A    -11.236788    17A     -1.416410    18A     -1.382507
      19A     -1.373757    20A     -1.365944    21A     -1.292268
      22A     -1.261456    23A     -1.169149    24A     -1.079230
      25A     -1.068103    26A     -1.027885    27A     -0.926690
      28A     -0.897309    29A     -0.868459    30A     -0.830581
      31A     -0.806767    32A     -0.754272    33A     -0.738962
      34A     -0.720604    35A     -0.706677    36A     -0.692656
      37A     -0.688624    38A     -0.675780    39A     -0.656677
      40A     -0.637416    41A     -0.628016    42A     -0.618904
      43A     -0.604657    44A     -0.594912    45A     -0.588918
      46A     -0.573253    47A     -0.569152    48A     -0.544697
      49A     -0.532668    50A     -0.523119    51A     -0.510561
      52A     -0.484554    53A     -0.481830    54A     -0.468606
      55A     -0.461958    56A     -0.444697    57A     -0.437673
      58A     -0.416396    59A     -0.383836    60A     -0.335020

  @DF-RHF Final Energy:  -811.47906912809742

   => Energetics <=

    Nuclear Repulsion Energy =           1169.8314288891574506
    One-Electron Energy =               -3434.7217394321405664
    Two-Electron Energy =                1453.4112414148858079
    Total Energy =                       -811.4790691280973078
  Basis Set: (AUG-CC-PVTZ AUX)
    Blend: AUG-CC-PVTZ-RI
    Molecular point group: c1

    Geometry (in Angstrom), charge = 0, multiplicity = 1:

       Center              X                  Y                   Z               Mass
    ------------   -----------------  -----------------  -----------------  -----------------
         O            1.362224859363    -0.380446610197    -0.932329789581    15.994914619570
         O            3.202210859363     1.900777389803    -0.299998789581    15.994914619570
         O            2.799560859363    -2.749382610197    -0.400686789581    15.994914619570
         O           -1.362032140637     2.373569389803     0.154297210419    15.994914619570
         N           -0.798090140637     0.198982389803    -0.229741789581    14.003074004430
         N           -3.054018140637     0.804803389803     0.239526210419    14.003074004430
         N           -4.673256140637    -0.812870610197     0.412151210419    14.003074004430
         C            2.699120559363     0.883711489803     0.567626910419    12.000000000000
         C            1.236997859363     1.106790389803     0.887366210419    12.000000000000
         C            2.651972859363    -0.392726610197    -0.285955789581    12.000000000000
         C            0.574111859363     0.682568389803    -0.415401789581    12.000000000000
         C            2.802251859363    -1.660451610197     0.521984210419    12.000000000000
         C           -1.127183140637    -1.116254610197    -0.308761789581    12.000000000000
         C           -1.744534140637     1.203456389803     0.081559210419    12.000000000000
         C           -2.417153140637    -1.504996610197    -0.105027789581    12.000000000000
         C           -3.361838140637    -0.473595610197     0.168025210419    12.000000000000
         H            3.334534859363     0.756349389803     1.450367210419     1.007825032230
         H            0.904860859363     0.443393389803     1.693003210419     1.007825032230
         H            0.985482859363     2.133631389803     1.157661210419     1.007825032230
         H            0.527607859363     1.512818389803    -1.125398789581     1.007825032230
         H            3.417645859363    -0.364718610197    -1.067111789581     1.007825032230
         H            1.970902859363    -1.733619610197     1.242737210419     1.007825032230
         H            3.746242859363    -1.609950610197     1.087803210419     1.007825032230
         H            3.100627259363     2.741718389803     0.184107110419     1.007825032230
         H           -0.310586140637    -1.789636610197    -0.544183789581     1.007825032230
         H            2.910183859363    -3.565507610197     0.118726210419     1.007825032230
         H           -2.703314140637    -2.549519610197    -0.153735789581     1.007825032230
         H           -5.028557140637    -1.638177610197    -0.057204789581     1.007825032230
         H           -5.299317140637    -0.014233610197     0.385615210419     1.007825032230

  Basis Set: AUG-CC-PVTZ
    Blend: AUG-CC-PVTZ
  Basis Set: (AUG-CC-PVTZ AUX)
    Blend: AUG-CC-PVTZ-JKFIT
	 Reference Energy          =    -811.4790691280974215 [Eh]
	 Singles Energy            =      -0.0000000000000000 [Eh]
	 Same-Spin Energy          =      -0.8296720742130325 [Eh]
	 Opposite-Spin Energy      =      -2.5252382132462108 [Eh]
	 Correlation Energy        =      -3.3549102874592434 [Eh]
	 Total Energy              =    -814.8339794155566551 [Eh]

	 ================> DF-SCS-MP2 Energies <==================
	-----------------------------------------------------------
	 SCS Same-Spin Scale       =       0.3333333333333333 [-]
	 SCS Opposite-Spin Scale   =       1.2000000000000000 [-]
	 SCS Same-Spin Energy      =      -0.2765573580710108 [Eh]
	 SCS Opposite-Spin Energy  =      -3.0302858558954529 [Eh]
	 SCS Correlation Energy    =      -3.3068432139664639 [Eh]
	 SCS Total Energy          =    -814.7859123420638525 [Eh]
	-----------------------------------------------------------

  Dipole Moment: [D]
     X:     1.0631      Y:    -4.6765      Z:     2.5002     Total:     5.4084

*** Psi4 exiting successfully. Buy a developer a beer!
