                               Psi4 1.3.2 release

  ==> Input File <==

--------------------------------------------------------------------------
#psi4
#
memory 32 gb

molecule  {
0 1
  O        1.3620710    -0.3800110    -0.9318440
  O        3.2020570     1.9012130    -0.2995130
  O        2.7994070    -2.7489470    -0.4002010
  O       -1.3621860     2.3740050     0.1547830
  N       -0.7982440     0.1994180    -0.2292560
  N       -3.0541720     0.8052390     0.2400120
  N       -4.6734100    -0.8124350     0.4126370
  C        2.7015950     0.8755540     0.5594740
  C        1.2368440     1.1072260     0.8878520
  C        2.6518190    -0.3922910    -0.2854700
  C        0.5739580     0.6830040    -0.4149160
  C        2.8020980    -1.6600160     0.5224700
  C       -1.1273370    -1.1158190    -0.3082760
  C       -1.7446880     1.2038920     0.0820450
  C       -2.4173070    -1.5045610    -0.1045420
  C       -3.3619920    -0.4731600     0.1685110
  H        3.3343810     0.7567850     1.4508530
  H        0.9047070     0.4438290     1.6934890
  H        0.9853290     2.1340670     1.1581470
  H        0.5317071     1.4373227    -1.0599796
  H        3.4174920    -0.3642830    -1.0666260
  H        1.9707490    -1.7331840     1.2432230
  H        3.7460890    -1.6095150     1.0882890
  H        3.1038510     2.7463240     0.1779830
  H       -0.3107400    -1.7892010    -0.5436980
  H        2.9100300    -3.5650720     0.1192120
  H       -2.7034680    -2.5490840    -0.1532500
  H       -5.0287110    -1.6377420    -0.0567190
  H       -5.2994710    -0.0137980     0.3861010
units angstrom
no_reorient  #important for SAPT in psi4, default
symmetry c1  #important for SAPT in psi4, default
}

set PROPERTIES_ORIGIN ["COM"]
properties('MP2/aug-cc-pvtz', properties = ['dipole'])
--------------------------------------------------------------------------

    Molecular point group: c1
  Charge       = 0
  Multiplicity = 1
  Basis Set: AUG-CC-PVTZ
    Blend: AUG-CC-PVTZ
  Basis Set: (AUG-CC-PVTZ AUX)
    Blend: AUG-CC-PVTZ-JKFIT

    Orbital Energies [Eh]
    ---------------------

    Doubly Occupied:

       1A    -20.577621     2A    -20.574700     3A    -20.572078
       4A    -20.503262     5A    -15.621058     6A    -15.588358
       7A    -15.540786     8A    -11.370087     9A    -11.345048
      10A    -11.319847    11A    -11.318120    12A    -11.300803
      13A    -11.296685    14A    -11.292879    15A    -11.236864
      16A    -11.236202    17A     -1.416851    18A     -1.382577
      19A     -1.373606    20A     -1.365770    21A     -1.292228
      22A     -1.261441    23A     -1.169292    24A     -1.080084
      25A     -1.069426    26A     -1.029286    27A     -0.930122
      28A     -0.897375    29A     -0.869098    30A     -0.837514
      31A     -0.807727    32A     -0.755223    33A     -0.739787
      34A     -0.723552    35A     -0.706904    36A     -0.696620
      37A     -0.690094    38A     -0.676887    39A     -0.657437
      40A     -0.639085    41A     -0.627920    42A     -0.618824
      43A     -0.604516    44A     -0.595208    45A     -0.588640
      46A     -0.574143    47A     -0.570713    48A     -0.544721
      49A     -0.532579    50A     -0.525134    51A     -0.512419
      52A     -0.485769    53A     -0.482075    54A     -0.468396
      55A     -0.461094    56A     -0.444908    57A     -0.440687
      58A     -0.416611    59A     -0.384504    60A     -0.335040

  @DF-RHF Final Energy:  -811.47424692349477

   => Energetics <=

    Nuclear Repulsion Energy =           1170.6063302906834451
    One-Electron Energy =               -3436.2085882466167277
    Two-Electron Energy =                1454.1280110324382804
    Total Energy =                       -811.4742469234947748
  Basis Set: (AUG-CC-PVTZ AUX)
    Blend: AUG-CC-PVTZ-RI
    Molecular point group: c1

    Geometry (in Angstrom), charge = 0, multiplicity = 1:

       Center              X                  Y                   Z               Mass
    ------------   -----------------  -----------------  -----------------  -----------------
         O            1.362052108886    -0.379674054970    -0.932132139324    15.994914619570
         O            3.202038108886     1.901549945030    -0.299801139324    15.994914619570
         O            2.799388108886    -2.748610054970    -0.400489139324    15.994914619570
         O           -1.362204891114     2.374341945030     0.154494860676    15.994914619570
         N           -0.798262891114     0.199754945030    -0.229544139324    14.003074004430
         N           -3.054190891114     0.805575945030     0.239723860676    14.003074004430
         N           -4.673428891114    -0.812098054970     0.412348860676    14.003074004430
         C            2.701576108886     0.875890945030     0.559185860676    12.000000000000
         C            1.236825108886     1.107562945030     0.887563860676    12.000000000000
         C            2.651800108886    -0.391954054970    -0.285758139324    12.000000000000
         C            0.573939108886     0.683340945030    -0.415204139324    12.000000000000
         C            2.802079108886    -1.659679054970     0.522181860676    12.000000000000
         C           -1.127355891114    -1.115482054970    -0.308564139324    12.000000000000
         C           -1.744706891114     1.204228945030     0.081756860676    12.000000000000
         C           -2.417325891114    -1.504224054970    -0.104830139324    12.000000000000
         C           -3.362010891114    -0.472823054970     0.168222860676    12.000000000000
         H            3.334362108886     0.757121945030     1.450564860676     1.007825032230
         H            0.904688108886     0.444165945030     1.693200860676     1.007825032230
         H            0.985310108886     2.134403945030     1.157858860676     1.007825032230
         H            0.531688208886     1.437659645030    -1.060267739324     1.007825032230
         H            3.417473108886    -0.363946054970    -1.066914139324     1.007825032230
         H            1.970730108886    -1.732847054970     1.242934860676     1.007825032230
         H            3.746070108886    -1.609178054970     1.088000860676     1.007825032230
         H            3.103832108886     2.746660945030     0.177694860676     1.007825032230
         H           -0.310758891114    -1.788864054970    -0.543986139324     1.007825032230
         H            2.910011108886    -3.564735054970     0.118923860676     1.007825032230
         H           -2.703486891114    -2.548747054970    -0.153538139324     1.007825032230
         H           -5.028729891114    -1.637405054970    -0.057007139324     1.007825032230
         H           -5.299489891114    -0.013461054970     0.385812860676     1.007825032230

  Basis Set: AUG-CC-PVTZ
    Blend: AUG-CC-PVTZ
  Basis Set: (AUG-CC-PVTZ AUX)
    Blend: AUG-CC-PVTZ-JKFIT
	 Reference Energy          =    -811.4742469234947748 [Eh]
	 Singles Energy            =      -0.0000000000000000 [Eh]
	 Same-Spin Energy          =      -0.8292438735123704 [Eh]
	 Opposite-Spin Energy      =      -2.5241612936929032 [Eh]
	 Correlation Energy        =      -3.3534051672052736 [Eh]
	 Total Energy              =    -814.8276520907000986 [Eh]

	 ================> DF-SCS-MP2 Energies <==================
	-----------------------------------------------------------
	 SCS Same-Spin Scale       =       0.3333333333333333 [-]
	 SCS Opposite-Spin Scale   =       1.2000000000000000 [-]
	 SCS Same-Spin Energy      =      -0.2764146245041235 [Eh]
	 SCS Opposite-Spin Energy  =      -3.0289935524314839 [Eh]
	 SCS Correlation Energy    =      -3.3054081769356074 [Eh]
	 SCS Total Energy          =    -814.7796551004304320 [Eh]
	-----------------------------------------------------------

  Dipole Moment: [D]
     X:     1.0688      Y:    -4.6701      Z:     2.4865     Total:     5.3976

*** Psi4 exiting successfully. Buy a developer a beer!
