                               Psi4 1.3.2 release

  ==> Input File <==

--------------------------------------------------------------------------
#psi4
#
memory 32 gb

molecule  {
0 1
  O        1.3620710    -0.3800110    -0.9318440
  O        3.2020570     1.9012130    -0.2995130
  O        2.7994070    -2.7489470    -0.4002010
  O       -1.3621860     2.3740050     0.1547830
  N       -0.7982440     0.1994180    -0.2292560
  N       -3.0541720     0.8052390     0.2400120
  N       -4.6734100    -0.8124350     0.4126370
  C        2.7015950     0.8755540     0.5594740
  C        1.2368440     1.1072260     0.8878520
  C        2.6518190    -0.3922910    -0.2854700
  C        0.5739580     0.6830040    -0.4149160
  C        2.8020980    -1.6600160     0.5224700
  C       -1.1338302    -1.0932004    -0.3048423
  C       -1.7446880     1.2038920     0.0820450
  C       -2.4173070    -1.5045610    -0.1045420
  C       -3.3619920    -0.4731600     0.1685110
  H        3.3343810     0.7567850     1.4508530
  H        0.9047070     0.4438290     1.6934890
  H        0.9853290     2.1340670     1.1581470
  H        0.5274540     1.5132540    -1.1249130
  H        3.4174920    -0.3642830    -1.0666260
  H        1.9707490    -1.7331840     1.2432230
  H        3.7460890    -1.6095150     1.0882890
  H        3.1038510     2.7463240     0.1779830
  H       -0.3107400    -1.7892010    -0.5436980
  H        2.9100300    -3.5650720     0.1192120
  H       -2.7213407    -2.5441947    -0.1494204
  H       -5.0287110    -1.6377420    -0.0567190
  H       -5.2994710    -0.0137980     0.3861010
units angstrom
no_reorient  #important for SAPT in psi4, default
symmetry c1  #important for SAPT in psi4, default
}

set PROPERTIES_ORIGIN ["COM"]
properties('MP2/aug-cc-pvtz', properties = ['dipole'])
--------------------------------------------------------------------------

    Molecular point group: c1
  Charge       = 0
  Multiplicity = 1
  Basis Set: AUG-CC-PVTZ
    Blend: AUG-CC-PVTZ
  Basis Set: (AUG-CC-PVTZ AUX)
    Blend: AUG-CC-PVTZ-JKFIT

    Orbital Energies [Eh]
    ---------------------

    Doubly Occupied:

       1A    -20.577861     2A    -20.574922     3A    -20.573574
       4A    -20.503569     5A    -15.623475     6A    -15.587326
       7A    -15.539894     8A    -11.370192     9A    -11.343315
      10A    -11.332318    11A    -11.317783    12A    -11.301522
      13A    -11.297110    14A    -11.293578    15A    -11.237820
      16A    -11.234939    17A     -1.417897    18A     -1.383869
      19A     -1.373872    20A     -1.366195    21A     -1.294167
      22A     -1.264492    23A     -1.168912    24A     -1.079405
      25A     -1.068901    26A     -1.028632    27A     -0.927965
      28A     -0.897493    29A     -0.869632    30A     -0.831759
      31A     -0.806672    32A     -0.755108    33A     -0.740140
      34A     -0.721502    35A     -0.705332    36A     -0.693116
      37A     -0.689837    38A     -0.674952    39A     -0.656914
      40A     -0.637648    41A     -0.629284    42A     -0.618050
      43A     -0.604074    44A     -0.593695    45A     -0.586657
      46A     -0.574805    47A     -0.569281    48A     -0.545185
      49A     -0.532719    50A     -0.524806    51A     -0.510791
      52A     -0.486643    53A     -0.483977    54A     -0.468839
      55A     -0.461932    56A     -0.444677    57A     -0.437968
      58A     -0.415926    59A     -0.383806    60A     -0.333792

  @DF-RHF Final Energy:  -811.47913601399785

   => Energetics <=

    Nuclear Repulsion Energy =           1170.4089635226212067
    One-Electron Energy =               -3435.8351680193231914
    Two-Electron Energy =                1453.9470684827037985
    Total Energy =                       -811.4791360139979588
  Basis Set: (AUG-CC-PVTZ AUX)
    Blend: AUG-CC-PVTZ-RI
    Molecular point group: c1

    Geometry (in Angstrom), charge = 0, multiplicity = 1:

       Center              X                  Y                   Z               Mass
    ------------   -----------------  -----------------  -----------------  -----------------
         O            1.362493418797    -0.381227955548    -0.932042406245    15.994914619570
         O            3.202479418797     1.899996044452    -0.299711406245    15.994914619570
         O            2.799829418797    -2.750163955548    -0.400399406245    15.994914619570
         O           -1.361763581203     2.372788044452     0.154584593755    15.994914619570
         N           -0.797821581203     0.198201044452    -0.229454406245    14.003074004430
         N           -3.053749581203     0.804022044452     0.239813593755    14.003074004430
         N           -4.672987581203    -0.813651955548     0.412438593755    14.003074004430
         C            2.702017418797     0.874337044452     0.559275593755    12.000000000000
         C            1.237266418797     1.106009044452     0.887653593755    12.000000000000
         C            2.652241418797    -0.393507955548    -0.285668406245    12.000000000000
         C            0.574380418797     0.681787044452    -0.415114406245    12.000000000000
         C            2.802520418797    -1.661232955548     0.522271593755    12.000000000000
         C           -1.133407781203    -1.094417355548    -0.305040706245    12.000000000000
         C           -1.744265581203     1.202675044452     0.081846593755    12.000000000000
         C           -2.416884581203    -1.505777955548    -0.104740406245    12.000000000000
         C           -3.361569581203    -0.474376955548     0.168312593755    12.000000000000
         H            3.334803418797     0.755568044452     1.450654593755     1.007825032230
         H            0.905129418797     0.442612044452     1.693290593755     1.007825032230
         H            0.985751418797     2.132850044452     1.157948593755     1.007825032230
         H            0.527876418797     1.512037044452    -1.125111406245     1.007825032230
         H            3.417914418797    -0.365499955548    -1.066824406245     1.007825032230
         H            1.971171418797    -1.734400955548     1.243024593755     1.007825032230
         H            3.746511418797    -1.610731955548     1.088090593755     1.007825032230
         H            3.104273418797     2.745107044452     0.177784593755     1.007825032230
         H           -0.310317581203    -1.790417955548    -0.543896406245     1.007825032230
         H            2.910452418797    -3.566288955548     0.119013593755     1.007825032230
         H           -2.720918281203    -2.545411655548    -0.149618806245     1.007825032230
         H           -5.028288581203    -1.638958955548    -0.056917406245     1.007825032230
         H           -5.299048581203    -0.015014955548     0.385902593755     1.007825032230

  Basis Set: AUG-CC-PVTZ
    Blend: AUG-CC-PVTZ
  Basis Set: (AUG-CC-PVTZ AUX)
    Blend: AUG-CC-PVTZ-JKFIT
	 Reference Energy          =    -811.4791360139978451 [Eh]
	 Singles Energy            =      -0.0000000000000000 [Eh]
	 Same-Spin Energy          =      -0.8297027236075282 [Eh]
	 Opposite-Spin Energy      =      -2.5248413549991997 [Eh]
	 Correlation Energy        =      -3.3545440786067280 [Eh]
	 Total Energy              =    -814.8336800926045953 [Eh]

	 ================> DF-SCS-MP2 Energies <==================
	-----------------------------------------------------------
	 SCS Same-Spin Scale       =       0.3333333333333333 [-]
	 SCS Opposite-Spin Scale   =       1.2000000000000000 [-]
	 SCS Same-Spin Energy      =      -0.2765675745358427 [Eh]
	 SCS Opposite-Spin Energy  =      -3.0298096259990395 [Eh]
	 SCS Correlation Energy    =      -3.3063772005348824 [Eh]
	 SCS Total Energy          =    -814.7855132145327843 [Eh]
	-----------------------------------------------------------

  Dipole Moment: [D]
     X:     1.1537      Y:    -4.6274      Z:     2.4880     Total:     5.3790

*** Psi4 exiting successfully. Buy a developer a beer!
