                               Psi4 1.3.2 release

  ==> Input File <==

--------------------------------------------------------------------------
#psi4
#
memory 32 gb

molecule  {
0 1
  O        1.3620710    -0.3800110    -0.9318440
  O        3.2020570     1.9012130    -0.2995130
  O        2.7994070    -2.7489470    -0.4002010
  O       -1.3621860     2.3740050     0.1547830
  N       -0.7982440     0.1994180    -0.2292560
  N       -3.0541720     0.8052390     0.2400120
  N       -4.6734100    -0.8124350     0.4126370
  C        2.7015950     0.8755540     0.5594740
  C        1.2368440     1.1072260     0.8878520
  C        2.6518190    -0.3922910    -0.2854700
  C        0.5739580     0.6830040    -0.4149160
  C        2.8020980    -1.6600160     0.5224700
  C       -1.1273370    -1.1158190    -0.3082760
  C       -1.7446880     1.2038920     0.0820450
  C       -2.4173070    -1.5045610    -0.1045420
  C       -3.3619920    -0.4731600     0.1685110
  H        3.3343810     0.7567850     1.4508530
  H        0.9047070     0.4438290     1.6934890
  H        0.9853290     2.1340670     1.1581470
  H        0.5274540     1.5132540    -1.1249130
  H        3.4174920    -0.3642830    -1.0666260
  H        1.9707490    -1.7331840     1.2432230
  H        3.7460890    -1.6095150     1.0882890
  H        3.1038510     2.7463240     0.1779830
  H       -0.3107400    -1.7892010    -0.5436980
  H        2.9100300    -3.5650720     0.1192120
  H       -2.7034680    -2.5490840    -0.1532500
  H       -5.0988082    -1.8005665    -0.1493180
  H       -5.2994710    -0.0137980     0.3861010
units angstrom
no_reorient  #important for SAPT in psi4, default
symmetry c1  #important for SAPT in psi4, default
}

set PROPERTIES_ORIGIN ["COM"]
properties('MP2/aug-cc-pvtz', properties = ['dipole'])
--------------------------------------------------------------------------

    Molecular point group: c1
  Charge       = 0
  Multiplicity = 1
  Basis Set: AUG-CC-PVTZ
    Blend: AUG-CC-PVTZ
  Basis Set: (AUG-CC-PVTZ AUX)
    Blend: AUG-CC-PVTZ-JKFIT

    Orbital Energies [Eh]
    ---------------------

    Doubly Occupied:

       1A    -20.577558     2A    -20.574119     3A    -20.572556
       4A    -20.502792     5A    -15.621041     6A    -15.604451
       7A    -15.540889     8A    -11.369773     9A    -11.344766
      10A    -11.330362    11A    -11.317318    12A    -11.300606
      13A    -11.296641    14A    -11.292824    15A    -11.236477
      16A    -11.236173    17A     -1.416324    18A     -1.382090
      19A     -1.373366    20A     -1.365458    21A     -1.289331
      22A     -1.255847    23A     -1.156612    24A     -1.078488
      25A     -1.068296    26A     -1.026595    27A     -0.924871
      28A     -0.896759    29A     -0.863462    30A     -0.827108
      31A     -0.806012    32A     -0.749551    33A     -0.737603
      34A     -0.719663    35A     -0.702543    36A     -0.692490
      37A     -0.687183    38A     -0.663943    39A     -0.641206
      40A     -0.629371    41A     -0.627107    42A     -0.617622
      43A     -0.601626    44A     -0.594237    45A     -0.583968
      46A     -0.572227    47A     -0.568385    48A     -0.544463
      49A     -0.531394    50A     -0.523407    51A     -0.509747
      52A     -0.485576    53A     -0.481705    54A     -0.468265
      55A     -0.460729    56A     -0.444143    57A     -0.437349
      58A     -0.415824    59A     -0.381674    60A     -0.334278

  @DF-RHF Final Energy:  -811.44949656940969

   => Energetics <=

    Nuclear Repulsion Energy =           1168.9394717696884527
    One-Electron Energy =               -3433.0654405968107312
    Two-Electron Energy =                1452.6764722577122484
    Total Energy =                       -811.4494965694098028
  Basis Set: (AUG-CC-PVTZ AUX)
    Blend: AUG-CC-PVTZ-RI
    Molecular point group: c1

    Geometry (in Angstrom), charge = 0, multiplicity = 1:

       Center              X                  Y                   Z               Mass
    ------------   -----------------  -----------------  -----------------  -----------------
         O            1.362382074510    -0.379288424126    -0.931433012667    15.994914619570
         O            3.202368074510     1.901935575874    -0.299102012667    15.994914619570
         O            2.799718074510    -2.748224424126    -0.399790012667    15.994914619570
         O           -1.361874925490     2.374727575874     0.155193987333    15.994914619570
         N           -0.797932925490     0.200140575874    -0.228845012667    14.003074004430
         N           -3.053860925490     0.805961575874     0.240422987333    14.003074004430
         N           -4.673098925490    -0.811712424126     0.413047987333    14.003074004430
         C            2.701906074510     0.876276575874     0.559884987333    12.000000000000
         C            1.237155074510     1.107948575874     0.888262987333    12.000000000000
         C            2.652130074510    -0.391568424126    -0.285059012667    12.000000000000
         C            0.574269074510     0.683726575874    -0.414505012667    12.000000000000
         C            2.802409074510    -1.659293424126     0.522880987333    12.000000000000
         C           -1.127025925490    -1.115096424126    -0.307865012667    12.000000000000
         C           -1.744376925490     1.204614575874     0.082455987333    12.000000000000
         C           -2.416995925490    -1.503838424126    -0.104131012667    12.000000000000
         C           -3.361680925490    -0.472437424126     0.168921987333    12.000000000000
         H            3.334692074510     0.757507575874     1.451263987333     1.007825032230
         H            0.905018074510     0.444551575874     1.693899987333     1.007825032230
         H            0.985640074510     2.134789575874     1.158557987333     1.007825032230
         H            0.527765074510     1.513976575874    -1.124502012667     1.007825032230
         H            3.417803074510    -0.363560424126    -1.066215012667     1.007825032230
         H            1.971060074510    -1.732461424126     1.243633987333     1.007825032230
         H            3.746400074510    -1.608792424126     1.088699987333     1.007825032230
         H            3.104162074510     2.747046575874     0.178393987333     1.007825032230
         H           -0.310428925490    -1.788478424126    -0.543287012667     1.007825032230
         H            2.910341074510    -3.564349424126     0.119622987333     1.007825032230
         H           -2.703156925490    -2.548361424126    -0.152839012667     1.007825032230
         H           -5.098497125490    -1.799843924126    -0.148907012667     1.007825032230
         H           -5.299159925490    -0.013075424126     0.386511987333     1.007825032230

  Basis Set: AUG-CC-PVTZ
    Blend: AUG-CC-PVTZ
  Basis Set: (AUG-CC-PVTZ AUX)
    Blend: AUG-CC-PVTZ-JKFIT
	 Reference Energy          =    -811.4494965694096891 [Eh]
	 Singles Energy            =      -0.0000000000000000 [Eh]
	 Same-Spin Energy          =      -0.8308449667280401 [Eh]
	 Opposite-Spin Energy      =      -2.5289756923172271 [Eh]
	 Correlation Energy        =      -3.3598206590452673 [Eh]
	 Total Energy              =    -814.8093172284549155 [Eh]

	 ================> DF-SCS-MP2 Energies <==================
	-----------------------------------------------------------
	 SCS Same-Spin Scale       =       0.3333333333333333 [-]
	 SCS Opposite-Spin Scale   =       1.2000000000000000 [-]
	 SCS Same-Spin Energy      =      -0.2769483222426800 [Eh]
	 SCS Opposite-Spin Energy  =      -3.0347708307806722 [Eh]
	 SCS Correlation Energy    =      -3.3117191530233523 [Eh]
	 SCS Total Energy          =    -814.7612157224330076 [Eh]
	-----------------------------------------------------------

  Dipole Moment: [D]
     X:     0.9934      Y:    -4.7968      Z:     2.4306     Total:     5.4684

*** Psi4 exiting successfully. Buy a developer a beer!
