                               Psi4 1.3.2 release

  ==> Input File <==

--------------------------------------------------------------------------
#psi4
#
memory 32 gb

molecule  {
0 1
  O        1.3620710    -0.3800110    -0.9318440
  O        3.2020570     1.9012130    -0.2995130
  O        2.7994070    -2.7489470    -0.4002010
  O       -1.3822915     2.3800878     0.1594742
  N       -0.8161305     0.1824487    -0.2279020
  N       -3.0541720     0.8052390     0.2400120
  N       -4.6734100    -0.8124350     0.4126370
  C        2.7015950     0.8755540     0.5594740
  C        1.2368440     1.1072260     0.8878520
  C        2.6518190    -0.3922910    -0.2854700
  C        0.5739580     0.6830040    -0.4149160
  C        2.8020980    -1.6600160     0.5224700
  C       -1.1273370    -1.1158190    -0.3082760
  C       -1.7446880     1.2038920     0.0820450
  C       -2.4173070    -1.5045610    -0.1045420
  C       -3.3619920    -0.4731600     0.1685110
  H        3.3343810     0.7567850     1.4508530
  H        0.9047070     0.4438290     1.6934890
  H        0.9853290     2.1340670     1.1581470
  H        0.5274540     1.5132540    -1.1249130
  H        3.4174920    -0.3642830    -1.0666260
  H        1.9707490    -1.7331840     1.2432230
  H        3.7460890    -1.6095150     1.0882890
  H        3.1038510     2.7463240     0.1779830
  H       -0.3107400    -1.7892010    -0.5436980
  H        2.9100300    -3.5650720     0.1192120
  H       -2.7034680    -2.5490840    -0.1532500
  H       -5.0287110    -1.6377420    -0.0567190
  H       -5.2994710    -0.0137980     0.3861010
units angstrom
no_reorient  #important for SAPT in psi4, default
symmetry c1  #important for SAPT in psi4, default
}

set PROPERTIES_ORIGIN ["COM"]
properties('MP2/aug-cc-pvtz', properties = ['dipole'])
--------------------------------------------------------------------------

    Molecular point group: c1
  Charge       = 0
  Multiplicity = 1
  Basis Set: AUG-CC-PVTZ
    Blend: AUG-CC-PVTZ
  Basis Set: (AUG-CC-PVTZ AUX)
    Blend: AUG-CC-PVTZ-JKFIT

    Orbital Energies [Eh]
    ---------------------

    Doubly Occupied:

       1A    -20.578331     2A    -20.575507     3A    -20.574286
       4A    -20.504177     5A    -15.623268     6A    -15.586485
       7A    -15.538626     8A    -11.370043     9A    -11.342699
      10A    -11.334082    11A    -11.316168    12A    -11.302223
      13A    -11.297609    14A    -11.294133    15A    -11.238720
      16A    -11.234431    17A     -1.417346    18A     -1.382728
      19A     -1.374398    20A     -1.366596    21A     -1.293928
      22A     -1.262580    23A     -1.167049    24A     -1.079593
      25A     -1.068793    26A     -1.028661    27A     -0.926492
      28A     -0.899393    29A     -0.868712    30A     -0.831239
      31A     -0.806978    32A     -0.753471    33A     -0.740381
      34A     -0.721867    35A     -0.705844    36A     -0.693400
      37A     -0.689522    38A     -0.675459    39A     -0.656425
      40A     -0.637281    41A     -0.628577    42A     -0.618559
      43A     -0.604959    44A     -0.595050    45A     -0.589297
      46A     -0.572650    47A     -0.569211    48A     -0.545516
      49A     -0.532141    50A     -0.524551    51A     -0.511263
      52A     -0.487423    53A     -0.484589    54A     -0.469383
      55A     -0.462618    56A     -0.444570    57A     -0.438006
      58A     -0.415460    59A     -0.382698    60A     -0.333366

  @DF-RHF Final Energy:  -811.47833832562662

   => Energetics <=

    Nuclear Repulsion Energy =           1169.5688720801481395
    One-Electron Energy =               -3434.1568039151170524
    Two-Electron Energy =                1453.1095935093424032
    Total Energy =                       -811.4783383256265097
  Basis Set: (AUG-CC-PVTZ AUX)
    Blend: AUG-CC-PVTZ-RI
    Molecular point group: c1

    Geometry (in Angstrom), charge = 0, multiplicity = 1:

       Center              X                  Y                   Z               Mass
    ------------   -----------------  -----------------  -----------------  -----------------
         O            1.364590030336    -0.379393096487    -0.932257877681    15.994914619570
         O            3.204576030336     1.901830903513    -0.299926877681    15.994914619570
         O            2.801926030336    -2.748329096487    -0.400614877681    15.994914619570
         O           -1.379772469664     2.380705703513     0.159060322319    15.994914619570
         N           -0.813611469664     0.183066603513    -0.228315877681    14.003074004430
         N           -3.051652969664     0.805856903513     0.239598122319    14.003074004430
         N           -4.670890969664    -0.811817096487     0.412223122319    14.003074004430
         C            2.704114030336     0.876171903513     0.559060122319    12.000000000000
         C            1.239363030336     1.107843903513     0.887438122319    12.000000000000
         C            2.654338030336    -0.391673096487    -0.285883877681    12.000000000000
         C            0.576477030336     0.683621903513    -0.415329877681    12.000000000000
         C            2.804617030336    -1.659398096487     0.522056122319    12.000000000000
         C           -1.124817969664    -1.115201096487    -0.308689877681    12.000000000000
         C           -1.742168969664     1.204509903513     0.081631122319    12.000000000000
         C           -2.414787969664    -1.503943096487    -0.104955877681    12.000000000000
         C           -3.359472969664    -0.472542096487     0.168097122319    12.000000000000
         H            3.336900030336     0.757402903513     1.450439122319     1.007825032230
         H            0.907226030336     0.444446903513     1.693075122319     1.007825032230
         H            0.987848030336     2.134684903513     1.157733122319     1.007825032230
         H            0.529973030336     1.513871903513    -1.125326877681     1.007825032230
         H            3.420011030336    -0.363665096487    -1.067039877681     1.007825032230
         H            1.973268030336    -1.732566096487     1.242809122319     1.007825032230
         H            3.748608030336    -1.608897096487     1.087875122319     1.007825032230
         H            3.106370030336     2.746941903513     0.177569122319     1.007825032230
         H           -0.308220969664    -1.788583096487    -0.544111877681     1.007825032230
         H            2.912549030336    -3.564454096487     0.118798122319     1.007825032230
         H           -2.700948969664    -2.548466096487    -0.153663877681     1.007825032230
         H           -5.026191969664    -1.637124096487    -0.057132877681     1.007825032230
         H           -5.296951969664    -0.013180096487     0.385687122319     1.007825032230

  Basis Set: AUG-CC-PVTZ
    Blend: AUG-CC-PVTZ
  Basis Set: (AUG-CC-PVTZ AUX)
    Blend: AUG-CC-PVTZ-JKFIT
	 Reference Energy          =    -811.4783383256266234 [Eh]
	 Singles Energy            =      -0.0000000000000000 [Eh]
	 Same-Spin Energy          =      -0.8297756855960521 [Eh]
	 Opposite-Spin Energy      =      -2.5251961434390342 [Eh]
	 Correlation Energy        =      -3.3549718290350863 [Eh]
	 Total Energy              =    -814.8333101546617172 [Eh]

	 ================> DF-SCS-MP2 Energies <==================
	-----------------------------------------------------------
	 SCS Same-Spin Scale       =       0.3333333333333333 [-]
	 SCS Opposite-Spin Scale   =       1.2000000000000000 [-]
	 SCS Same-Spin Energy      =      -0.2765918951986840 [Eh]
	 SCS Opposite-Spin Energy  =      -3.0302353721268411 [Eh]
	 SCS Correlation Energy    =      -3.3068272673255250 [Eh]
	 SCS Total Energy          =    -814.7851655929521257 [Eh]
	-----------------------------------------------------------

  Dipole Moment: [D]
     X:     1.2680      Y:    -4.6307      Z:     2.4737     Total:     5.4010

*** Psi4 exiting successfully. Buy a developer a beer!
