                               Psi4 1.3.2 release

  ==> Input File <==

--------------------------------------------------------------------------
#psi4
#
memory 32 gb

molecule  {
0 1
  O        1.3620710    -0.3800110    -0.9318440
  O        3.2020570     1.9012130    -0.2995130
  O        2.7994070    -2.7489470    -0.4002010
  O       -1.3621860     2.3740050     0.1547830
  N       -0.7982440     0.1994180    -0.2292560
  N       -3.0541720     0.8052390     0.2400120
  N       -4.6734100    -0.8124350     0.4126370
  C        2.7015950     0.8755540     0.5594740
  C        1.2368440     1.1072260     0.8878520
  C        2.6518190    -0.3922910    -0.2854700
  C        0.5739580     0.6830040    -0.4149160
  C        2.8020980    -1.6600160     0.5224700
  C       -1.1273370    -1.1158190    -0.3082760
  C       -1.8115844     1.2748901     0.1040483
  C       -2.4173070    -1.5045610    -0.1045420
  C       -3.3619920    -0.4731600     0.1685110
  H        3.3343810     0.7567850     1.4508530
  H        0.9047070     0.4438290     1.6934890
  H        0.9853290     2.1340670     1.1581470
  H        0.5274540     1.5132540    -1.1249130
  H        3.4174920    -0.3642830    -1.0666260
  H        1.9707490    -1.7331840     1.2432230
  H        3.7460890    -1.6095150     1.0882890
  H        3.1038510     2.7463240     0.1779830
  H       -0.3107400    -1.7892010    -0.5436980
  H        2.9100300    -3.5650720     0.1192120
  H       -2.7034680    -2.5490840    -0.1532500
  H       -5.0287110    -1.6377420    -0.0567190
  H       -5.2994710    -0.0137980     0.3861010
units angstrom
no_reorient  #important for SAPT in psi4, default
symmetry c1  #important for SAPT in psi4, default
}

set PROPERTIES_ORIGIN ["COM"]
properties('MP2/aug-cc-pvtz', properties = ['dipole'])
--------------------------------------------------------------------------

    Molecular point group: c1
  Charge       = 0
  Multiplicity = 1
  Basis Set: AUG-CC-PVTZ
    Blend: AUG-CC-PVTZ
  Basis Set: (AUG-CC-PVTZ AUX)
    Blend: AUG-CC-PVTZ-JKFIT

    Orbital Energies [Eh]
    ---------------------

    Doubly Occupied:

       1A    -20.575635     2A    -20.572765     3A    -20.568681
       4A    -20.516285     5A    -15.607512     6A    -15.589634
       7A    -15.537626     8A    -11.374539     9A    -11.349701
      10A    -11.324919    11A    -11.313168    12A    -11.298676
      13A    -11.294543    14A    -11.290273    15A    -11.234212
      16A    -11.228630    17A     -1.415082    18A     -1.401207
      19A     -1.371613    20A     -1.365296    21A     -1.297053
      22A     -1.249511    23A     -1.177133    24A     -1.075299
      25A     -1.065182    26A     -1.020605    27A     -0.923901
      28A     -0.883503    29A     -0.867765    30A     -0.829488
      31A     -0.802623    32A     -0.750844    33A     -0.731920
      34A     -0.717717    35A     -0.706364    36A     -0.689961
      37A     -0.687273    38A     -0.674953    39A     -0.656172
      40A     -0.633984    41A     -0.629362    42A     -0.620865
      43A     -0.607080    44A     -0.594470    45A     -0.591084
      46A     -0.571214    47A     -0.566073    48A     -0.542660
      49A     -0.532716    50A     -0.521295    51A     -0.514864
      52A     -0.486644    53A     -0.482985    54A     -0.466264
      55A     -0.461209    56A     -0.452885    57A     -0.435128
      58A     -0.408460    59A     -0.387410    60A     -0.329282

  @DF-RHF Final Energy:  -811.47356357611693

   => Energetics <=

    Nuclear Repulsion Energy =           1168.7684658846701495
    One-Electron Energy =               -3432.7376604136279639
    Two-Electron Energy =                1452.4956309528408838
    Total Energy =                       -811.4735635761169306
  Basis Set: (AUG-CC-PVTZ AUX)
    Blend: AUG-CC-PVTZ-RI
    Molecular point group: c1

    Geometry (in Angstrom), charge = 0, multiplicity = 1:

       Center              X                  Y                   Z               Mass
    ------------   -----------------  -----------------  -----------------  -----------------
         O            1.365605946692    -0.383762743101    -0.933006671730    15.994914619570
         O            3.205591946692     1.897461256899    -0.300675671730    15.994914619570
         O            2.802941946692    -2.752698743101    -0.401363671730    15.994914619570
         O           -1.358651053308     2.370253256899     0.153620328270    15.994914619570
         N           -0.794709053308     0.195666256899    -0.230418671730    14.003074004430
         N           -3.050637053308     0.801487256899     0.238849328270    14.003074004430
         N           -4.669875053308    -0.816186743101     0.411474328270    14.003074004430
         C            2.705129946692     0.871802256899     0.558311328270    12.000000000000
         C            1.240378946692     1.103474256899     0.886689328270    12.000000000000
         C            2.655353946692    -0.396042743101    -0.286632671730    12.000000000000
         C            0.577492946692     0.679252256899    -0.416078671730    12.000000000000
         C            2.805632946692    -1.663767743101     0.521307328270    12.000000000000
         C           -1.123802053308    -1.119570743101    -0.309438671730    12.000000000000
         C           -1.808049453308     1.271138356899     0.102885628270    12.000000000000
         C           -2.413772053308    -1.508312743101    -0.105704671730    12.000000000000
         C           -3.358457053308    -0.476911743101     0.167348328270    12.000000000000
         H            3.337915946692     0.753033256899     1.449690328270     1.007825032230
         H            0.908241946692     0.440077256899     1.692326328270     1.007825032230
         H            0.988863946692     2.130315256899     1.156984328270     1.007825032230
         H            0.530988946692     1.509502256899    -1.126075671730     1.007825032230
         H            3.421026946692    -0.368034743101    -1.067788671730     1.007825032230
         H            1.974283946692    -1.736935743101     1.242060328270     1.007825032230
         H            3.749623946692    -1.613266743101     1.087126328270     1.007825032230
         H            3.107385946692     2.742572256899     0.176820328270     1.007825032230
         H           -0.307205053308    -1.792952743101    -0.544860671730     1.007825032230
         H            2.913564946692    -3.568823743101     0.118049328270     1.007825032230
         H           -2.699933053308    -2.552835743101    -0.154412671730     1.007825032230
         H           -5.025176053308    -1.641493743101    -0.057881671730     1.007825032230
         H           -5.295936053308    -0.017549743101     0.384938328270     1.007825032230

  Basis Set: AUG-CC-PVTZ
    Blend: AUG-CC-PVTZ
  Basis Set: (AUG-CC-PVTZ AUX)
    Blend: AUG-CC-PVTZ-JKFIT
	 Reference Energy          =    -811.4735635761169306 [Eh]
	 Singles Energy            =      -0.0000000000000000 [Eh]
	 Same-Spin Energy          =      -0.8295551465884610 [Eh]
	 Opposite-Spin Energy      =      -2.5241314858199182 [Eh]
	 Correlation Energy        =      -3.3536866324083792 [Eh]
	 Total Energy              =    -814.8272502085253564 [Eh]

	 ================> DF-SCS-MP2 Energies <==================
	-----------------------------------------------------------
	 SCS Same-Spin Scale       =       0.3333333333333333 [-]
	 SCS Opposite-Spin Scale   =       1.2000000000000000 [-]
	 SCS Same-Spin Energy      =      -0.2765183821961537 [Eh]
	 SCS Opposite-Spin Energy  =      -3.0289577829839018 [Eh]
	 SCS Correlation Energy    =      -3.3054761651800555 [Eh]
	 SCS Total Energy          =    -814.7790397412969696 [Eh]
	-----------------------------------------------------------

  Dipole Moment: [D]
     X:     0.7920      Y:    -4.1107      Z:     2.5873     Total:     4.9213

*** Psi4 exiting successfully. Buy a developer a beer!
