                               Psi4 1.3.2 release

  ==> Input File <==

--------------------------------------------------------------------------
#psi4
#
memory 32 gb

molecule  {
0 1
  O        1.3620710    -0.3800110    -0.9318440
  O        3.2020570     1.9012130    -0.2995130
  O        2.7994070    -2.7489470    -0.4002010
  O       -1.3621860     2.3740050     0.1547830
  N       -0.7982440     0.1994180    -0.2292560
  N       -3.0541720     0.8052390     0.2400120
  N       -4.6734100    -0.8124350     0.4126370
  C        2.7015950     0.8755540     0.5594740
  C        1.2555965     1.1027889     0.9650011
  C        2.6518190    -0.3922910    -0.2854700
  C        0.5739580     0.6830040    -0.4149160
  C        2.8020980    -1.6600160     0.5224700
  C       -1.1273370    -1.1158190    -0.3082760
  C       -1.7446880     1.2038920     0.0820450
  C       -2.4173070    -1.5045610    -0.1045420
  C       -3.3619920    -0.4731600     0.1685110
  H        3.2873610     0.7638256     1.4833115
  H        0.9047070     0.4438290     1.6934890
  H        0.9853290     2.1340670     1.1581470
  H        0.5274540     1.5132540    -1.1249130
  H        3.4174920    -0.3642830    -1.0666260
  H        1.9707490    -1.7331840     1.2432230
  H        3.7460890    -1.6095150     1.0882890
  H        3.1038510     2.7463240     0.1779830
  H       -0.3107400    -1.7892010    -0.5436980
  H        2.9100300    -3.5650720     0.1192120
  H       -2.7034680    -2.5490840    -0.1532500
  H       -5.0287110    -1.6377420    -0.0567190
  H       -5.2994710    -0.0137980     0.3861010
units angstrom
no_reorient  #important for SAPT in psi4, default
symmetry c1  #important for SAPT in psi4, default
}

set PROPERTIES_ORIGIN ["COM"]
properties('MP2/aug-cc-pvtz', properties = ['dipole'])
--------------------------------------------------------------------------

    Molecular point group: c1
  Charge       = 0
  Multiplicity = 1
  Basis Set: AUG-CC-PVTZ
    Blend: AUG-CC-PVTZ
  Basis Set: (AUG-CC-PVTZ AUX)
    Blend: AUG-CC-PVTZ-JKFIT

    Orbital Energies [Eh]
    ---------------------

    Doubly Occupied:

       1A    -20.577931     2A    -20.576989     3A    -20.573087
       4A    -20.502701     5A    -15.621359     6A    -15.588085
       7A    -15.540529     8A    -11.369445     9A    -11.344676
      10A    -11.332725    11A    -11.317803    12A    -11.301177
      13A    -11.297142    14A    -11.293827    15A    -11.236705
      16A    -11.235156    17A     -1.414951    18A     -1.382143
      19A     -1.374048    20A     -1.365912    21A     -1.291848
      22A     -1.260837    23A     -1.168592    24A     -1.075947
      25A     -1.069018    26A     -1.024139    27A     -0.925570
      28A     -0.897298    29A     -0.869466    30A     -0.833213
      31A     -0.804605    32A     -0.753877    33A     -0.736609
      34A     -0.720234    35A     -0.706663    36A     -0.692076
      37A     -0.690885    38A     -0.676407    39A     -0.656385
      40A     -0.638052    41A     -0.627576    42A     -0.619195
      43A     -0.605629    44A     -0.595101    45A     -0.587164
      46A     -0.570355    47A     -0.568833    48A     -0.548281
      49A     -0.535677    50A     -0.524816    51A     -0.508470
      52A     -0.488900    53A     -0.481096    54A     -0.469234
      55A     -0.458974    56A     -0.442241    57A     -0.434808
      58A     -0.415954    59A     -0.382233    60A     -0.333648

  @DF-RHF Final Energy:  -811.47262683537292

   => Energetics <=

    Nuclear Repulsion Energy =           1168.5451156564504345
    One-Electron Energy =               -3432.1628964535930209
    Two-Electron Energy =                1452.1451539617696653
    Total Energy =                       -811.4726268353729211
  Basis Set: (AUG-CC-PVTZ AUX)
    Blend: AUG-CC-PVTZ-RI
    Molecular point group: c1

    Geometry (in Angstrom), charge = 0, multiplicity = 1:

       Center              X                  Y                   Z               Mass
    ------------   -----------------  -----------------  -----------------  -----------------
         O            1.361288732147    -0.379807816372    -0.936064755467    15.994914619570
         O            3.201274732147     1.901416183628    -0.303733755467    15.994914619570
         O            2.798624732147    -2.748743816372    -0.404421755467    15.994914619570
         O           -1.362968267853     2.374208183628     0.150562244533    15.994914619570
         N           -0.799026267853     0.199621183628    -0.233476755467    14.003074004430
         N           -3.054954267853     0.805442183628     0.235791244533    14.003074004430
         N           -4.674192267853    -0.812231816372     0.408416244533    14.003074004430
         C            2.700812732147     0.875757183628     0.555253244533    12.000000000000
         C            1.254814232147     1.102992083628     0.960780344533    12.000000000000
         C            2.651036732147    -0.392087816372    -0.289690755467    12.000000000000
         C            0.573175732147     0.683207183628    -0.419136755467    12.000000000000
         C            2.801315732147    -1.659812816372     0.518249244533    12.000000000000
         C           -1.128119267853    -1.115615816372    -0.312496755467    12.000000000000
         C           -1.745470267853     1.204095183628     0.077824244533    12.000000000000
         C           -2.418089267853    -1.504357816372    -0.108762755467    12.000000000000
         C           -3.362774267853    -0.472956816372     0.164290244533    12.000000000000
         H            3.286578732147     0.764028783628     1.479090744533     1.007825032230
         H            0.903924732147     0.444032183628     1.689268244533     1.007825032230
         H            0.984546732147     2.134270183628     1.153926244533     1.007825032230
         H            0.526671732147     1.513457183628    -1.129133755467     1.007825032230
         H            3.416709732147    -0.364079816372    -1.070846755467     1.007825032230
         H            1.969966732147    -1.732980816372     1.239002244533     1.007825032230
         H            3.745306732147    -1.609311816372     1.084068244533     1.007825032230
         H            3.103068732147     2.746527183628     0.173762244533     1.007825032230
         H           -0.311522267853    -1.788997816372    -0.547918755467     1.007825032230
         H            2.909247732147    -3.564868816372     0.114991244533     1.007825032230
         H           -2.704250267853    -2.548880816372    -0.157470755467     1.007825032230
         H           -5.029493267853    -1.637538816372    -0.060939755467     1.007825032230
         H           -5.300253267853    -0.013594816372     0.381880244533     1.007825032230

  Basis Set: AUG-CC-PVTZ
    Blend: AUG-CC-PVTZ
  Basis Set: (AUG-CC-PVTZ AUX)
    Blend: AUG-CC-PVTZ-JKFIT
	 Reference Energy          =    -811.4726268353729211 [Eh]
	 Singles Energy            =      -0.0000000000000000 [Eh]
	 Same-Spin Energy          =      -0.8296962781611501 [Eh]
	 Opposite-Spin Energy      =      -2.5256255139021553 [Eh]
	 Correlation Energy        =      -3.3553217920633056 [Eh]
	 Total Energy              =    -814.8279486274361716 [Eh]

	 ================> DF-SCS-MP2 Energies <==================
	-----------------------------------------------------------
	 SCS Same-Spin Scale       =       0.3333333333333333 [-]
	 SCS Opposite-Spin Scale   =       1.2000000000000000 [-]
	 SCS Same-Spin Energy      =      -0.2765654260537167 [Eh]
	 SCS Opposite-Spin Energy  =      -3.0307506166825862 [Eh]
	 SCS Correlation Energy    =      -3.3073160427363026 [Eh]
	 SCS Total Energy          =    -814.7799428781091819 [Eh]
	-----------------------------------------------------------

  Dipole Moment: [D]
     X:     1.0859      Y:    -4.6790      Z:     2.4602     Total:     5.3967

*** Psi4 exiting successfully. Buy a developer a beer!
