                               Psi4 1.3.2 release

  ==> Input File <==

--------------------------------------------------------------------------
#psi4
#
memory 32 gb

molecule  {
0 1
  O        1.3620710    -0.3800110    -0.9318440
  O        3.2020570     1.9012130    -0.2995130
  O        2.7994070    -2.7489470    -0.4002010
  O       -1.3621860     2.3740050     0.1547830
  N       -0.7982440     0.1994180    -0.2292560
  N       -3.0541720     0.8052390     0.2400120
  N       -4.6734100    -0.8124350     0.4126370
  C        2.7021505     0.8661824     0.5688309
  C        1.2368440     1.1072260     0.8878520
  C        2.6518190    -0.3922910    -0.2854700
  C        0.5739580     0.6830040    -0.4149160
  C        2.8020980    -1.6600160     0.5224700
  C       -1.1273370    -1.1158190    -0.3082760
  C       -1.7446880     1.2038920     0.0820450
  C       -2.4173070    -1.5045610    -0.1045420
  C       -3.3619920    -0.4731600     0.1685110
  H        3.3343810     0.7567850     1.4508530
  H        0.9134798     0.4400648     1.6939495
  H        0.9853290     2.1340670     1.1581470
  H        0.5274540     1.5132540    -1.1249130
  H        3.4174920    -0.3642830    -1.0666260
  H        1.9707490    -1.7331840     1.2432230
  H        3.7460890    -1.6095150     1.0882890
  H        3.1038510     2.7463240     0.1779830
  H       -0.3107400    -1.7892010    -0.5436980
  H        2.9100300    -3.5650720     0.1192120
  H       -2.7034680    -2.5490840    -0.1532500
  H       -5.0287110    -1.6377420    -0.0567190
  H       -5.2994710    -0.0137980     0.3861010
units angstrom
no_reorient  #important for SAPT in psi4, default
symmetry c1  #important for SAPT in psi4, default
}

set PROPERTIES_ORIGIN ["COM"]
properties('MP2/aug-cc-pvtz', properties = ['dipole'])
--------------------------------------------------------------------------

    Molecular point group: c1
  Charge       = 0
  Multiplicity = 1
  Basis Set: AUG-CC-PVTZ
    Blend: AUG-CC-PVTZ
  Basis Set: (AUG-CC-PVTZ AUX)
    Blend: AUG-CC-PVTZ-JKFIT

    Orbital Energies [Eh]
    ---------------------

    Doubly Occupied:

       1A    -20.577850     2A    -20.573226     3A    -20.572822
       4A    -20.503124     5A    -15.621833     6A    -15.588410
       7A    -15.540860     8A    -11.369973     9A    -11.345103
      10A    -11.331026    11A    -11.318376    12A    -11.300593
      13A    -11.296998    14A    -11.293393    15A    -11.237215
      16A    -11.237103    17A     -1.416479    18A     -1.382042
      19A     -1.372134    20A     -1.363155    21A     -1.292296
      22A     -1.261508    23A     -1.169174    24A     -1.079460
      25A     -1.069629    26A     -1.028157    27A     -0.926977
      28A     -0.897514    29A     -0.869003    30A     -0.830794
      31A     -0.807307    32A     -0.754302    33A     -0.739091
      34A     -0.721125    35A     -0.706330    36A     -0.692754
      37A     -0.687324    38A     -0.675753    39A     -0.656532
      40A     -0.636836    41A     -0.627709    42A     -0.618073
      43A     -0.604686    44A     -0.594628    45A     -0.588674
      46A     -0.572754    47A     -0.568387    48A     -0.544777
      49A     -0.531752    50A     -0.524007    51A     -0.509901
      52A     -0.487595    53A     -0.482148    54A     -0.468550
      55A     -0.461631    56A     -0.444860    57A     -0.438040
      58A     -0.416441    59A     -0.383855    60A     -0.335032

  @DF-RHF Final Energy:  -811.47899201344160

   => Energetics <=

    Nuclear Repulsion Energy =           1169.8465955662704800
    One-Electron Energy =               -3434.7570209914879342
    Two-Electron Energy =                1453.4314334117757426
    Total Energy =                       -811.4789920134417116
  Basis Set: (AUG-CC-PVTZ AUX)
    Blend: AUG-CC-PVTZ-RI
    Molecular point group: c1

    Geometry (in Angstrom), charge = 0, multiplicity = 1:

       Center              X                  Y                   Z               Mass
    ------------   -----------------  -----------------  -----------------  -----------------
         O            1.362002696597    -0.379499114268    -0.932340449999    15.994914619570
         O            3.201988696597     1.901724885732    -0.300009449999    15.994914619570
         O            2.799338696597    -2.748435114268    -0.400697449999    15.994914619570
         O           -1.362254303403     2.374516885732     0.154286550001    15.994914619570
         N           -0.798312303403     0.199929885732    -0.229752449999    14.003074004430
         N           -3.054240303403     0.805750885732     0.239515550001    14.003074004430
         N           -4.673478303403    -0.811923114268     0.412140550001    14.003074004430
         C            2.702082196597     0.866694285732     0.568334450001    12.000000000000
         C            1.236775696597     1.107737885732     0.887355550001    12.000000000000
         C            2.651750696597    -0.391779114268    -0.285966449999    12.000000000000
         C            0.573889696597     0.683515885732    -0.415412449999    12.000000000000
         C            2.802029696597    -1.659504114268     0.521973550001    12.000000000000
         C           -1.127405303403    -1.115307114268    -0.308772449999    12.000000000000
         C           -1.744756303403     1.204403885732     0.081548550001    12.000000000000
         C           -2.417375303403    -1.504049114268    -0.105038449999    12.000000000000
         C           -3.362060303403    -0.472648114268     0.168014550001    12.000000000000
         H            3.334312696597     0.757296885732     1.450356550001     1.007825032230
         H            0.913411496597     0.440576685732     1.693453050001     1.007825032230
         H            0.985260696597     2.134578885732     1.157650550001     1.007825032230
         H            0.527385696597     1.513765885732    -1.125409449999     1.007825032230
         H            3.417423696597    -0.363771114268    -1.067122449999     1.007825032230
         H            1.970680696597    -1.732672114268     1.242726550001     1.007825032230
         H            3.746020696597    -1.609003114268     1.087792550001     1.007825032230
         H            3.103782696597     2.746835885732     0.177486550001     1.007825032230
         H           -0.310808303403    -1.788689114268    -0.544194449999     1.007825032230
         H            2.909961696597    -3.564560114268     0.118715550001     1.007825032230
         H           -2.703536303403    -2.548572114268    -0.153746449999     1.007825032230
         H           -5.028779303403    -1.637230114268    -0.057215449999     1.007825032230
         H           -5.299539303403    -0.013286114268     0.385604550001     1.007825032230

  Basis Set: AUG-CC-PVTZ
    Blend: AUG-CC-PVTZ
  Basis Set: (AUG-CC-PVTZ AUX)
    Blend: AUG-CC-PVTZ-JKFIT
	 Reference Energy          =    -811.4789920134415979 [Eh]
	 Singles Energy            =      -0.0000000000000000 [Eh]
	 Same-Spin Energy          =      -0.8296667795935814 [Eh]
	 Opposite-Spin Energy      =      -2.5253327307305566 [Eh]
	 Correlation Energy        =      -3.3549995103241379 [Eh]
	 Total Energy              =    -814.8339915237656896 [Eh]

	 ================> DF-SCS-MP2 Energies <==================
	-----------------------------------------------------------
	 SCS Same-Spin Scale       =       0.3333333333333333 [-]
	 SCS Opposite-Spin Scale   =       1.2000000000000000 [-]
	 SCS Same-Spin Energy      =      -0.2765555931978604 [Eh]
	 SCS Opposite-Spin Energy  =      -3.0303992768766679 [Eh]
	 SCS Correlation Energy    =      -3.3069548700745282 [Eh]
	 SCS Total Energy          =    -814.7859468835160897 [Eh]
	-----------------------------------------------------------

  Dipole Moment: [D]
     X:     1.0604      Y:    -4.7152      Z:     2.5128     Total:     5.4472

*** Psi4 exiting successfully. Buy a developer a beer!
