                               Psi4 1.4a3.dev225

  ==> Input File <==

--------------------------------------------------------------------------
#psi4
#
memory 32 gb

molecule  {
0 1
  O       -1.4695130     0.3030610    -1.0874480
  O       -3.6436400    -1.4204040    -0.2669360
  O       -1.6911330     2.8536240     0.0000030
  O        1.1857770    -2.4961310     0.0874550
  N        0.6842480    -0.3150290    -0.3399290
  N        2.9133760    -0.9647370     0.2108410
  N        4.5636770     0.6178870     0.3785230
  C       -2.7686820    -0.6858470     0.5863090
  C       -1.3787780    -1.3118450     0.6568060
  C       -2.4925280     0.6283540    -0.1295840
  C       -0.6939390    -0.7805590    -0.6115670
  C       -2.0265490     1.7688640     0.8396520
  C        1.0545030     0.9838330    -0.4888120
  C        1.6080830    -1.3384950     0.0010630
  C        2.3487550     1.3478080    -0.2622830
  C        3.2578570     0.3046130     0.0876290
  H       -3.2188600    -0.5381750     1.5798200
  H       -0.8341690    -0.9801840     1.5464130
  H       -1.3950130    -2.4033150     0.6754970
  H       -0.6263030    -1.5384450    -1.3968420
  H       -3.3591510     0.9641520    -0.7058050
  H       -1.1849610     1.3939850     1.4098140
  H       -2.8667900     1.9743150     1.4948250
  H       -3.6905400    -2.3294490     0.0774600
  H        0.2668220     1.6750250    -0.7707300
  H       -1.4321050     3.5760960     0.5972330
  H        2.6621150     2.3809760    -0.3596430
  H        4.9550500     1.4416620    -0.0591730
  H        5.1797170    -0.1867780     0.4106900
units angstrom
no_reorient  #important for SAPT in psi4, default
symmetry c1  #important for SAPT in psi4, default
}

set PROPERTIES_ORIGIN ["COM"]
properties('MP2/aug-cc-pvtz', properties = ['dipole'])
--------------------------------------------------------------------------

    Molecular point group: c1
  Charge       = 0
  Multiplicity = 1
  Basis Set: AUG-CC-PVTZ
    Blend: AUG-CC-PVTZ
  Basis Set: (AUG-CC-PVTZ AUX)
    Blend: AUG-CC-PVTZ-JKFIT

    Orbital Energies [Eh]
    ---------------------

    Doubly Occupied:

       1A    -20.586327     2A    -20.574033     3A    -20.571818
       4A    -20.501804     5A    -15.619017     6A    -15.588929
       7A    -15.539831     8A    -11.368700     9A    -11.345828
      10A    -11.332725    11A    -11.314668    12A    -11.298691
      13A    -11.298203    14A    -11.295536    15A    -11.236727
      16A    -11.235400    17A     -1.418023    18A     -1.386580
      19A     -1.378478    20A     -1.365772    21A     -1.290214
      22A     -1.258503    23A     -1.168435    24A     -1.074961
      25A     -1.064081    26A     -1.020744    27A     -0.929895
      28A     -0.895336    29A     -0.867904    30A     -0.829503
      31A     -0.804483    32A     -0.753627    33A     -0.737774
      34A     -0.725502    35A     -0.706466    36A     -0.703189
      37A     -0.689268    38A     -0.674125    39A     -0.652380
      40A     -0.644020    41A     -0.622399    42A     -0.617777
      43A     -0.605984    44A     -0.595224    45A     -0.587922
      46A     -0.572140    47A     -0.567500    48A     -0.552500
      49A     -0.526621    50A     -0.517617    51A     -0.510219
      52A     -0.484433    53A     -0.481861    54A     -0.475232
      55A     -0.457944    56A     -0.443508    57A     -0.440016
      58A     -0.413209    59A     -0.382360    60A     -0.333896

  @DF-RHF Final Energy:  -811.47693206354529

   => Energetics <=

    Nuclear Repulsion Energy =           1184.3694501278735061
    One-Electron Energy =               -3463.8210412189509952
    Two-Electron Energy =                1467.9746590275324252
    Total Energy =                       -811.4769320635452914
  Basis Set: (AUG-CC-PVTZ AUX)
    Blend: AUG-CC-PVTZ-RI
    Molecular point group: c1

    Geometry (in Angstrom), charge = 0, multiplicity = 1:

       Center              X                  Y                   Z               Mass
    ------------   -----------------  -----------------  -----------------  -----------------
         O           -1.494757649194     0.324854110306    -1.069454335205    15.994914619570
         O           -3.668884649194    -1.398610889694    -0.248942335205    15.994914619570
         O           -1.716377649194     2.875417110306     0.017996664795    15.994914619570
         O            1.160532350806    -2.474337889694     0.105448664795    15.994914619570
         N            0.659003350806    -0.293235889694    -0.321935335205    14.003074004430
         N            2.888131350806    -0.942943889694     0.228834664795    14.003074004430
         N            4.538432350806     0.639680110306     0.396516664795    14.003074004430
         C           -2.793926649194    -0.664053889694     0.604302664795    12.000000000000
         C           -1.404022649194    -1.290051889694     0.674799664795    12.000000000000
         C           -2.517772649194     0.650147110306    -0.111590335205    12.000000000000
         C           -0.719183649194    -0.758765889694    -0.593573335205    12.000000000000
         C           -2.051793649194     1.790657110306     0.857645664795    12.000000000000
         C            1.029258350806     1.005626110306    -0.470818335205    12.000000000000
         C            1.582838350806    -1.316701889694     0.019056664795    12.000000000000
         C            2.323510350806     1.369601110306    -0.244289335205    12.000000000000
         C            3.232612350806     0.326406110306     0.105622664795    12.000000000000
         H           -3.244104649194    -0.516381889694     1.597813664795     1.007825032230
         H           -0.859413649194    -0.958390889694     1.564406664795     1.007825032230
         H           -1.420257649194    -2.381521889694     0.693490664795     1.007825032230
         H           -0.651547649194    -1.516651889694    -1.378848335205     1.007825032230
         H           -3.384395649194     0.985945110306    -0.687811335205     1.007825032230
         H           -1.210205649194     1.415778110306     1.427807664795     1.007825032230
         H           -2.892034649194     1.996108110306     1.512818664795     1.007825032230
         H           -3.715784649194    -2.307655889694     0.095453664795     1.007825032230
         H            0.241577350806     1.696818110306    -0.752736335205     1.007825032230
         H           -1.457349649194     3.597889110306     0.615226664795     1.007825032230
         H            2.636870350806     2.402769110306    -0.341649335205     1.007825032230
         H            4.929805350806     1.463455110306    -0.041179335205     1.007825032230
         H            5.154472350806    -0.164984889694     0.428683664795     1.007825032230

  Basis Set: AUG-CC-PVTZ
    Blend: AUG-CC-PVTZ
  Basis Set: (AUG-CC-PVTZ AUX)
    Blend: AUG-CC-PVTZ-JKFIT
	 Reference Energy          =    -811.4769320635452914 [Eh]
	 Singles Energy            =      -0.0000000000000000 [Eh]
	 Same-Spin Energy          =      -0.8307201511999662 [Eh]
	 Opposite-Spin Energy      =      -2.5270603210961151 [Eh]
	 Correlation Energy        =      -3.3577804722960813 [Eh]
	 Total Energy              =    -814.8347125358413905 [Eh]

	 ================> DF-SCS-MP2 Energies <==================
	-----------------------------------------------------------
	 SCS Same-Spin Scale       =       0.3333333333333333 [-]
	 SCS Opposite-Spin Scale   =       1.2000000000000000 [-]
	 SCS Same-Spin Energy      =      -0.2769067170666554 [Eh]
	 SCS Opposite-Spin Energy  =      -3.0324723853153381 [Eh]
	 SCS Correlation Energy    =      -3.3093791023819934 [Eh]
	 SCS Total Energy          =    -814.7863111659272590 [Eh]
	-----------------------------------------------------------

  Dipole Moment: [D]
     X:    -0.3019      Y:     4.6681      Z:     2.3922     Total:     5.2541

*** Psi4 exiting successfully. Buy a developer a beer!
