                               Psi4 1.3.2 release

  ==> Input File <==

--------------------------------------------------------------------------
#psi4
#
memory 32 gb

molecule  {
0 1
  O        1.3620710    -0.3800110    -0.9318440
  O        3.2036354     1.8846165    -0.3180484
  O        2.7994070    -2.7489470    -0.4002010
  O       -1.3621860     2.3740050     0.1547830
  N       -0.7982440     0.1994180    -0.2292560
  N       -3.0541720     0.8052390     0.2400120
  N       -4.6734100    -0.8124350     0.4126370
  C        2.7015950     0.8755540     0.5594740
  C        1.2368440     1.1072260     0.8878520
  C        2.6612740    -0.3785632    -0.3062068
  C        0.5739580     0.6830040    -0.4149160
  C        2.8020980    -1.6600160     0.5224700
  C       -1.1273370    -1.1158190    -0.3082760
  C       -1.7446880     1.2038920     0.0820450
  C       -2.4173070    -1.5045610    -0.1045420
  C       -3.3619920    -0.4731600     0.1685110
  H        3.3343810     0.7567850     1.4508530
  H        0.9047070     0.4438290     1.6934890
  H        0.9853290     2.1340670     1.1581470
  H        0.5274540     1.5132540    -1.1249130
  H        3.4174920    -0.3642830    -1.0666260
  H        1.9707490    -1.7331840     1.2432230
  H        3.7460890    -1.6095150     1.0882890
  H        3.1038510     2.7463240     0.1779830
  H       -0.3107400    -1.7892010    -0.5436980
  H        2.9100300    -3.5650720     0.1192120
  H       -2.7034680    -2.5490840    -0.1532500
  H       -5.0287110    -1.6377420    -0.0567190
  H       -5.2994710    -0.0137980     0.3861010
units angstrom
no_reorient  #important for SAPT in psi4, default
symmetry c1  #important for SAPT in psi4, default
}

set PROPERTIES_ORIGIN ["COM"]
properties('MP2/aug-cc-pvtz', properties = ['dipole'])
--------------------------------------------------------------------------

    Molecular point group: c1
  Charge       = 0
  Multiplicity = 1
  Basis Set: AUG-CC-PVTZ
    Blend: AUG-CC-PVTZ
  Basis Set: (AUG-CC-PVTZ AUX)
    Blend: AUG-CC-PVTZ-JKFIT

    Orbital Energies [Eh]
    ---------------------

    Doubly Occupied:

       1A    -20.576952     2A    -20.576717     3A    -20.572592
       4A    -20.503092     5A    -15.621826     6A    -15.588355
       7A    -15.540815     8A    -11.369953     9A    -11.345040
      10A    -11.330820    11A    -11.318262    12A    -11.300204
      13A    -11.296340    14A    -11.291800    15A    -11.237044
      16A    -11.236993    17A     -1.416272    18A     -1.382028
      19A     -1.371547    20A     -1.363492    21A     -1.292236
      22A     -1.261424    23A     -1.169117    24A     -1.078214
      25A     -1.066639    26A     -1.026328    27A     -0.924472
      28A     -0.897336    29A     -0.868669    30A     -0.830276
      31A     -0.808512    32A     -0.754254    33A     -0.738724
      34A     -0.719610    35A     -0.705368    36A     -0.692690
      37A     -0.685578    38A     -0.675618    39A     -0.656198
      40A     -0.636230    41A     -0.627730    42A     -0.618418
      43A     -0.603199    44A     -0.594498    45A     -0.587422
      46A     -0.573085    47A     -0.570871    48A     -0.544674
      49A     -0.532337    50A     -0.523207    51A     -0.510168
      52A     -0.486616    53A     -0.482475    54A     -0.467904
      55A     -0.460443    56A     -0.444400    57A     -0.436070
      58A     -0.416377    59A     -0.383727    60A     -0.334945

  @DF-RHF Final Energy:  -811.47626748713060

   => Energetics <=

    Nuclear Repulsion Energy =           1169.8076517660920217
    One-Electron Energy =               -3434.7154261342884638
    Two-Electron Energy =                1453.4315068810658431
    Total Energy =                       -811.4762674871305990
  Basis Set: (AUG-CC-PVTZ AUX)
    Blend: AUG-CC-PVTZ-RI
    Molecular point group: c1

    Geometry (in Angstrom), charge = 0, multiplicity = 1:

       Center              X                  Y                   Z               Mass
    ------------   -----------------  -----------------  -----------------  -----------------
         O            1.361460186591    -0.379567487217    -0.929442661069    15.994914619570
         O            3.203024586591     1.885060012783    -0.315647061069    15.994914619570
         O            2.798796186591    -2.748503487217    -0.397799661069    15.994914619570
         O           -1.362796813409     2.374448512783     0.157184338931    15.994914619570
         N           -0.798854813409     0.199861512783    -0.226854661069    14.003074004430
         N           -3.054782813409     0.805682512783     0.242413338931    14.003074004430
         N           -4.674020813409    -0.811991487217     0.415038338931    14.003074004430
         C            2.700984186591     0.875997512783     0.561875338931    12.000000000000
         C            1.236233186591     1.107669512783     0.890253338931    12.000000000000
         C            2.660663186591    -0.378119687217    -0.303805461069    12.000000000000
         C            0.573347186591     0.683447512783    -0.412514661069    12.000000000000
         C            2.801487186591    -1.659572487217     0.524871338931    12.000000000000
         C           -1.127947813409    -1.115375487217    -0.305874661069    12.000000000000
         C           -1.745298813409     1.204335512783     0.084446338931    12.000000000000
         C           -2.417917813409    -1.504117487217    -0.102140661069    12.000000000000
         C           -3.362602813409    -0.472716487217     0.170912338931    12.000000000000
         H            3.333770186591     0.757228512783     1.453254338931     1.007825032230
         H            0.904096186591     0.444272512783     1.695890338931     1.007825032230
         H            0.984718186591     2.134510512783     1.160548338931     1.007825032230
         H            0.526843186591     1.513697512783    -1.122511661069     1.007825032230
         H            3.416881186591    -0.363839487217    -1.064224661069     1.007825032230
         H            1.970138186591    -1.732740487217     1.245624338931     1.007825032230
         H            3.745478186591    -1.609071487217     1.090690338931     1.007825032230
         H            3.103240186591     2.746767512783     0.180384338931     1.007825032230
         H           -0.311350813409    -1.788757487217    -0.541296661069     1.007825032230
         H            2.909419186591    -3.564628487217     0.121613338931     1.007825032230
         H           -2.704078813409    -2.548640487217    -0.150848661069     1.007825032230
         H           -5.029321813409    -1.637298487217    -0.054317661069     1.007825032230
         H           -5.300081813409    -0.013354487217     0.388502338931     1.007825032230

  Basis Set: AUG-CC-PVTZ
    Blend: AUG-CC-PVTZ
  Basis Set: (AUG-CC-PVTZ AUX)
    Blend: AUG-CC-PVTZ-JKFIT
	 Reference Energy          =    -811.4762674871305990 [Eh]
	 Singles Energy            =      -0.0000000000000000 [Eh]
	 Same-Spin Energy          =      -0.8298605507953963 [Eh]
	 Opposite-Spin Energy      =      -2.5259720356665398 [Eh]
	 Correlation Energy        =      -3.3558325864619363 [Eh]
	 Total Energy              =    -814.8321000735925281 [Eh]

	 ================> DF-SCS-MP2 Energies <==================
	-----------------------------------------------------------
	 SCS Same-Spin Scale       =       0.3333333333333333 [-]
	 SCS Opposite-Spin Scale   =       1.2000000000000000 [-]
	 SCS Same-Spin Energy      =      -0.2766201835984654 [Eh]
	 SCS Opposite-Spin Energy  =      -3.0311664427998477 [Eh]
	 SCS Correlation Energy    =      -3.3077866263983129 [Eh]
	 SCS Total Energy          =    -814.7840541135288959 [Eh]
	-----------------------------------------------------------

  Dipole Moment: [D]
     X:     1.0761      Y:    -4.6294      Z:     2.4809     Total:     5.3614

*** Psi4 exiting successfully. Buy a developer a beer!
