                               Psi4 1.3.2 release

  ==> Input File <==

--------------------------------------------------------------------------
#psi4
#
memory 32 gb

molecule  {
0 1
  O        1.3620710    -0.3800110    -0.9318440
  O        3.2020570     1.9012130    -0.2995130
  O        2.7994070    -2.7489470    -0.4002010
  O       -1.3621860     2.3740050     0.1547830
  N       -0.7982440     0.1994180    -0.2292560
  N       -3.0541720     0.8052390     0.2400120
  N       -4.6734100    -0.8124350     0.4126370
  C        2.7015950     0.8755540     0.5594740
  C        1.2368440     1.1072260     0.8878520
  C        2.8306147    -0.3939934    -0.1958642
  C        0.5739580     0.6830040    -0.4149160
  C        2.8020980    -1.6600160     0.5224700
  C       -1.1273370    -1.1158190    -0.3082760
  C       -1.7446880     1.2038920     0.0820450
  C       -2.4173070    -1.5045610    -0.1045420
  C       -3.3619920    -0.4731600     0.1685110
  H        3.3343810     0.7567850     1.4508530
  H        0.9047070     0.4438290     1.6934890
  H        0.9853290     2.1340670     1.1581470
  H        0.5274540     1.5132540    -1.1249130
  H        3.4174920    -0.3642830    -1.0666260
  H        1.9707490    -1.7331840     1.2432230
  H        3.7460890    -1.6095150     1.0882890
  H        3.1038510     2.7463240     0.1779830
  H       -0.3107400    -1.7892010    -0.5436980
  H        2.9100300    -3.5650720     0.1192120
  H       -2.7034680    -2.5490840    -0.1532500
  H       -5.0287110    -1.6377420    -0.0567190
  H       -5.2994710    -0.0137980     0.3861010
units angstrom
no_reorient  #important for SAPT in psi4, default
symmetry c1  #important for SAPT in psi4, default
}

set PROPERTIES_ORIGIN ["COM"]
properties('MP2/aug-cc-pvtz', properties = ['dipole'])
--------------------------------------------------------------------------

    Molecular point group: c1
  Charge       = 0
  Multiplicity = 1
  Basis Set: AUG-CC-PVTZ
    Blend: AUG-CC-PVTZ
  Basis Set: (AUG-CC-PVTZ AUX)
    Blend: AUG-CC-PVTZ-JKFIT

    Orbital Energies [Eh]
    ---------------------

    Doubly Occupied:

       1A    -20.585223     2A    -20.578570     3A    -20.547859
       4A    -20.498884     5A    -15.615518     6A    -15.585153
       7A    -15.536785     8A    -11.365209     9A    -11.341080
      10A    -11.319004    11A    -11.313030    12A    -11.307968
      13A    -11.306563    14A    -11.305242    15A    -11.237632
      16A    -11.232433    17A     -1.393289    18A     -1.381407
      19A     -1.379578    20A     -1.341686    21A     -1.286567
      22A     -1.252031    23A     -1.164347    24A     -1.090413
      25A     -1.068678    26A     -1.031179    27A     -0.932861
      28A     -0.894461    29A     -0.869396    30A     -0.821658
      31A     -0.810746    32A     -0.750249    33A     -0.731166
      34A     -0.722073    35A     -0.709606    36A     -0.692419
      37A     -0.688625    38A     -0.671439    39A     -0.651208
      40A     -0.636109    41A     -0.622154    42A     -0.616735
      43A     -0.612211    44A     -0.592237    45A     -0.580448
      46A     -0.568492    47A     -0.558806    48A     -0.540484
      49A     -0.535184    50A     -0.521687    51A     -0.511694
      52A     -0.491010    53A     -0.478693    54A     -0.467105
      55A     -0.456410    56A     -0.441040    57A     -0.430909
      58A     -0.411716    59A     -0.379751    60A     -0.330353

  @DF-RHF Final Energy:  -811.44803758403350

   => Energetics <=

    Nuclear Repulsion Energy =           1166.9665594317741579
    One-Electron Energy =               -3429.2402702731769750
    Two-Electron Energy =                1450.8256732573695444
    Total Energy =                       -811.4480375840335000
  Basis Set: (AUG-CC-PVTZ AUX)
    Blend: AUG-CC-PVTZ-RI
    Molecular point group: c1

    Geometry (in Angstrom), charge = 0, multiplicity = 1:

       Center              X                  Y                   Z               Mass
    ------------   -----------------  -----------------  -----------------  -----------------
         O            1.352623000136    -0.379921078244    -0.936578946315    15.994914619570
         O            3.192609000136     1.901302921756    -0.304247946315    15.994914619570
         O            2.789959000136    -2.748857078244    -0.404935946315    15.994914619570
         O           -1.371633999864     2.374094921756     0.150048053685    15.994914619570
         N           -0.807691999864     0.199507921756    -0.233990946315    14.003074004430
         N           -3.063619999864     0.805328921756     0.235277053685    14.003074004430
         N           -4.682857999864    -0.812345078244     0.407902053685    14.003074004430
         C            2.692147000136     0.875643921756     0.554739053685    12.000000000000
         C            1.227396000136     1.107315921756     0.883117053685    12.000000000000
         C            2.821166700136    -0.393903478244    -0.200599146315    12.000000000000
         C            0.564510000136     0.683093921756    -0.419650946315    12.000000000000
         C            2.792650000136    -1.659926078244     0.517735053685    12.000000000000
         C           -1.136784999864    -1.115729078244    -0.313010946315    12.000000000000
         C           -1.754135999864     1.203981921756     0.077310053685    12.000000000000
         C           -2.426754999864    -1.504471078244    -0.109276946315    12.000000000000
         C           -3.371439999864    -0.473070078244     0.163776053685    12.000000000000
         H            3.324933000136     0.756874921756     1.446118053685     1.007825032230
         H            0.895259000136     0.443918921756     1.688754053685     1.007825032230
         H            0.975881000136     2.134156921756     1.153412053685     1.007825032230
         H            0.518006000136     1.513343921756    -1.129647946315     1.007825032230
         H            3.408044000136    -0.364193078244    -1.071360946315     1.007825032230
         H            1.961301000136    -1.733094078244     1.238488053685     1.007825032230
         H            3.736641000136    -1.609425078244     1.083554053685     1.007825032230
         H            3.094403000136     2.746413921756     0.173248053685     1.007825032230
         H           -0.320187999864    -1.789111078244    -0.548432946315     1.007825032230
         H            2.900582000136    -3.564982078244     0.114477053685     1.007825032230
         H           -2.712915999864    -2.548994078244    -0.157984946315     1.007825032230
         H           -5.038158999864    -1.637652078244    -0.061453946315     1.007825032230
         H           -5.308918999864    -0.013708078244     0.381366053685     1.007825032230

  Basis Set: AUG-CC-PVTZ
    Blend: AUG-CC-PVTZ
  Basis Set: (AUG-CC-PVTZ AUX)
    Blend: AUG-CC-PVTZ-JKFIT
	 Reference Energy          =    -811.4480375840335000 [Eh]
	 Singles Energy            =      -0.0000000000000000 [Eh]
	 Same-Spin Energy          =      -0.8316147701754241 [Eh]
	 Opposite-Spin Energy      =      -2.5295974516405790 [Eh]
	 Correlation Energy        =      -3.3612122218160030 [Eh]
	 Total Energy              =    -814.8092498058495039 [Eh]

	 ================> DF-SCS-MP2 Energies <==================
	-----------------------------------------------------------
	 SCS Same-Spin Scale       =       0.3333333333333333 [-]
	 SCS Opposite-Spin Scale   =       1.2000000000000000 [-]
	 SCS Same-Spin Energy      =      -0.2772049233918080 [Eh]
	 SCS Opposite-Spin Energy  =      -3.0355169419686949 [Eh]
	 SCS Correlation Energy    =      -3.3127218653605031 [Eh]
	 SCS Total Energy          =    -814.7607594493939587 [Eh]
	-----------------------------------------------------------

  Dipole Moment: [D]
     X:     1.7573      Y:    -4.8444      Z:     2.6880     Total:     5.8122

*** Psi4 exiting successfully. Buy a developer a beer!
