                               Psi4 1.3.2 release

  ==> Input File <==

--------------------------------------------------------------------------
#psi4
#
memory 32 gb

molecule  {
0 1
  O        1.3620710    -0.3800110    -0.9318440
  O        3.2020570     1.9012130    -0.2995130
  O        2.7994070    -2.7489470    -0.4002010
  O       -1.3621860     2.3740050     0.1547830
  N       -0.7311155     0.1816150    -0.2444931
  N       -3.0541720     0.8052390     0.2400120
  N       -4.6734100    -0.8124350     0.4126370
  C        2.7015950     0.8755540     0.5594740
  C        1.2368440     1.1072260     0.8878520
  C        2.6518190    -0.3922910    -0.2854700
  C        0.5739580     0.6830040    -0.4149160
  C        2.8020980    -1.6600160     0.5224700
  C       -1.1273370    -1.1158190    -0.3082760
  C       -1.7446880     1.2038920     0.0820450
  C       -2.4173070    -1.5045610    -0.1045420
  C       -3.3619920    -0.4731600     0.1685110
  H        3.3343810     0.7567850     1.4508530
  H        0.9047070     0.4438290     1.6934890
  H        0.9853290     2.1340670     1.1581470
  H        0.5274540     1.5132540    -1.1249130
  H        3.4174920    -0.3642830    -1.0666260
  H        1.9707490    -1.7331840     1.2432230
  H        3.7460890    -1.6095150     1.0882890
  H        3.1038510     2.7463240     0.1779830
  H       -0.2761686    -1.7442158    -0.5456098
  H        2.9100300    -3.5650720     0.1192120
  H       -2.7034680    -2.5490840    -0.1532500
  H       -5.0287110    -1.6377420    -0.0567190
  H       -5.2994710    -0.0137980     0.3861010
units angstrom
no_reorient  #important for SAPT in psi4, default
symmetry c1  #important for SAPT in psi4, default
}

set PROPERTIES_ORIGIN ["COM"]
properties('MP2/aug-cc-pvtz', properties = ['dipole'])
--------------------------------------------------------------------------

    Molecular point group: c1
  Charge       = 0
  Multiplicity = 1
  Basis Set: AUG-CC-PVTZ
    Blend: AUG-CC-PVTZ
  Basis Set: (AUG-CC-PVTZ AUX)
    Blend: AUG-CC-PVTZ-JKFIT

    Orbital Energies [Eh]
    ---------------------

    Doubly Occupied:

       1A    -20.576765     2A    -20.573576     3A    -20.570247
       4A    -20.509473     5A    -15.620007     6A    -15.590217
       7A    -15.543911     8A    -11.376500     9A    -11.347598
      10A    -11.325813    11A    -11.318455    12A    -11.299812
      13A    -11.295821    14A    -11.291445    15A    -11.236580
      16A    -11.235304    17A     -1.417709    18A     -1.380847
      19A     -1.372653    20A     -1.365258    21A     -1.292531
      22A     -1.264117    23A     -1.172743    24A     -1.079862
      25A     -1.069429    26A     -1.023933    27A     -0.930692
      28A     -0.890571    29A     -0.868628    30A     -0.832286
      31A     -0.804988    32A     -0.754809    33A     -0.738585
      34A     -0.720258    35A     -0.707459    36A     -0.693377
      37A     -0.689174    38A     -0.675200    39A     -0.653360
      40A     -0.636640    41A     -0.625485    42A     -0.619259
      43A     -0.603043    44A     -0.596174    45A     -0.587805
      46A     -0.579033    47A     -0.566564    48A     -0.544751
      49A     -0.532191    50A     -0.524339    51A     -0.510223
      52A     -0.485138    53A     -0.483772    54A     -0.467505
      55A     -0.460240    56A     -0.446512    57A     -0.437127
      58A     -0.417014    59A     -0.385191    60A     -0.333197

  @DF-RHF Final Energy:  -811.47154148674076

   => Energetics <=

    Nuclear Repulsion Energy =           1170.2842254903048342
    One-Electron Energy =               -3435.6091406043406096
    Two-Electron Energy =                1453.8533736272950136
    Total Energy =                       -811.4715414867407617
  Basis Set: (AUG-CC-PVTZ AUX)
    Blend: AUG-CC-PVTZ-RI
    Molecular point group: c1

    Geometry (in Angstrom), charge = 0, multiplicity = 1:

       Center              X                  Y                   Z               Mass
    ------------   -----------------  -----------------  -----------------  -----------------
         O            1.357778216133    -0.379112895470    -0.930895916876    15.994914619570
         O            3.197764216133     1.902111104530    -0.298564916876    15.994914619570
         O            2.795114216133    -2.748048895470    -0.399252916876    15.994914619570
         O           -1.366478783867     2.374903104530     0.155731083124    15.994914619570
         N           -0.735408283867     0.182513104530    -0.243545016876    14.003074004430
         N           -3.058464783867     0.806137104530     0.240960083124    14.003074004430
         N           -4.677702783867    -0.811536895470     0.413585083124    14.003074004430
         C            2.697302216133     0.876452104530     0.560422083124    12.000000000000
         C            1.232551216133     1.108124104530     0.888800083124    12.000000000000
         C            2.647526216133    -0.391392895470    -0.284521916876    12.000000000000
         C            0.569665216133     0.683902104530    -0.413967916876    12.000000000000
         C            2.797805216133    -1.659117895470     0.523418083124    12.000000000000
         C           -1.131629783867    -1.114920895470    -0.307327916876    12.000000000000
         C           -1.748980783867     1.204790104530     0.082993083124    12.000000000000
         C           -2.421599783867    -1.503662895470    -0.103593916876    12.000000000000
         C           -3.366284783867    -0.472261895470     0.169459083124    12.000000000000
         H            3.330088216133     0.757683104530     1.451801083124     1.007825032230
         H            0.900414216133     0.444727104530     1.694437083124     1.007825032230
         H            0.981036216133     2.134965104530     1.159095083124     1.007825032230
         H            0.523161216133     1.514152104530    -1.123964916876     1.007825032230
         H            3.413199216133    -0.363384895470    -1.065677916876     1.007825032230
         H            1.966456216133    -1.732285895470     1.244171083124     1.007825032230
         H            3.741796216133    -1.608616895470     1.089237083124     1.007825032230
         H            3.099558216133     2.747222104530     0.178931083124     1.007825032230
         H           -0.280461383867    -1.743317695470    -0.544661716876     1.007825032230
         H            2.905737216133    -3.564173895470     0.120160083124     1.007825032230
         H           -2.707760783867    -2.548185895470    -0.152301916876     1.007825032230
         H           -5.033003783867    -1.636843895470    -0.055770916876     1.007825032230
         H           -5.303763783867    -0.012899895470     0.387049083124     1.007825032230

  Basis Set: AUG-CC-PVTZ
    Blend: AUG-CC-PVTZ
  Basis Set: (AUG-CC-PVTZ AUX)
    Blend: AUG-CC-PVTZ-JKFIT
	 Reference Energy          =    -811.4715414867407617 [Eh]
	 Singles Energy            =      -0.0000000000000000 [Eh]
	 Same-Spin Energy          =      -0.8303438429433235 [Eh]
	 Opposite-Spin Energy      =      -2.5264583092316517 [Eh]
	 Correlation Energy        =      -3.3568021521749754 [Eh]
	 Total Energy              =    -814.8283436389157259 [Eh]

	 ================> DF-SCS-MP2 Energies <==================
	-----------------------------------------------------------
	 SCS Same-Spin Scale       =       0.3333333333333333 [-]
	 SCS Opposite-Spin Scale   =       1.2000000000000000 [-]
	 SCS Same-Spin Energy      =      -0.2767812809811078 [Eh]
	 SCS Opposite-Spin Energy  =      -3.0317499710779821 [Eh]
	 SCS Correlation Energy    =      -3.3085312520590899 [Eh]
	 SCS Total Energy          =    -814.7800727387998450 [Eh]
	-----------------------------------------------------------

  Dipole Moment: [D]
     X:     0.8948      Y:    -4.4628      Z:     2.5337     Total:     5.2093

*** Psi4 exiting successfully. Buy a developer a beer!
