                               Psi4 1.3.2 release

  ==> Input File <==

--------------------------------------------------------------------------
#psi4
#
memory 32 gb

molecule  {
0 1
  O        1.3620710    -0.3800110    -0.9318440
  O        3.2020570     1.9012130    -0.2995130
  O        2.7994070    -2.7489470    -0.4002010
  O       -1.3621860     2.3740050     0.1547830
  N       -0.7982440     0.1994180    -0.2292560
  N       -3.0541720     0.8052390     0.2400120
  N       -4.6734100    -0.8124350     0.4126370
  C        2.7015950     0.8755540     0.5594740
  C        1.2368440     1.1072260     0.8878520
  C        2.6518190    -0.3922910    -0.2854700
  C        0.5739580     0.6830040    -0.4149160
  C        2.8020980    -1.6600160     0.5224700
  C       -1.1305346    -1.1044945    -0.3065669
  C       -1.7446880     1.2038920     0.0820450
  C       -2.4173070    -1.5045610    -0.1045420
  C       -3.3619920    -0.4731600     0.1685110
  H        3.3343810     0.7567850     1.4508530
  H        0.9047070     0.4438290     1.6934890
  H        0.9853290     2.1340670     1.1581470
  H        0.5274540     1.5132540    -1.1249130
  H        3.4174920    -0.3642830    -1.0666260
  H        1.9707490    -1.7331840     1.2432230
  H        3.7460890    -1.6095150     1.0882890
  H        3.1038510     2.7463240     0.1779830
  H       -0.3107400    -1.7892010    -0.5436980
  H        2.9100300    -3.5650720     0.1192120
  H       -2.7124156    -2.5466791    -0.1513370
  H       -5.0287110    -1.6377420    -0.0567190
  H       -5.2994710    -0.0137980     0.3861010
units angstrom
no_reorient  #important for SAPT in psi4, default
symmetry c1  #important for SAPT in psi4, default
}

set PROPERTIES_ORIGIN ["COM"]
properties('MP2/aug-cc-pvtz', properties = ['dipole'])
--------------------------------------------------------------------------

    Molecular point group: c1
  Charge       = 0
  Multiplicity = 1
  Basis Set: AUG-CC-PVTZ
    Blend: AUG-CC-PVTZ
  Basis Set: (AUG-CC-PVTZ AUX)
    Blend: AUG-CC-PVTZ-JKFIT

    Orbital Energies [Eh]
    ---------------------

    Doubly Occupied:

       1A    -20.577808     2A    -20.574632     3A    -20.573229
       4A    -20.503302     5A    -15.622608     6A    -15.587835
       7A    -15.540339     8A    -11.370039     9A    -11.344168
      10A    -11.331526    11A    -11.318023    12A    -11.301189
      13A    -11.296989    14A    -11.293328    15A    -11.237303
      16A    -11.235961    17A     -1.417269    18A     -1.383129
      19A     -1.373723    20A     -1.365954    21A     -1.293102
      22A     -1.263026    23A     -1.169006    24A     -1.079180
      25A     -1.068911    26A     -1.028298    27A     -0.927360
      28A     -0.897425    29A     -0.869311    30A     -0.831289
      31A     -0.806523    32A     -0.754661    33A     -0.739420
      34A     -0.721220    35A     -0.706043    36A     -0.692977
      37A     -0.689554    38A     -0.675349    39A     -0.656778
      40A     -0.637399    41A     -0.628422    42A     -0.618213
      43A     -0.604261    44A     -0.594215    45A     -0.587979
      46A     -0.573869    47A     -0.569020    48A     -0.545024
      49A     -0.532619    50A     -0.524277    51A     -0.510601
      52A     -0.486242    53A     -0.483040    54A     -0.468669
      55A     -0.461530    56A     -0.444562    57A     -0.437902
      58A     -0.416145    59A     -0.383769    60A     -0.334355

  @DF-RHF Final Energy:  -811.47946948848153

   => Energetics <=

    Nuclear Repulsion Energy =           1170.1735106304247438
    One-Electron Energy =               -3435.3861602422766737
    Two-Electron Energy =                1453.7331801233701754
    Total Energy =                       -811.4794694884815272
  Basis Set: (AUG-CC-PVTZ AUX)
    Blend: AUG-CC-PVTZ-RI
    Molecular point group: c1

    Geometry (in Angstrom), charge = 0, multiplicity = 1:

       Center              X                  Y                   Z               Mass
    ------------   -----------------  -----------------  -----------------  -----------------
         O            1.362279662094    -0.380620123093    -0.931942768493    15.994914619570
         O            3.202265662094     1.900603876907    -0.299611768493    15.994914619570
         O            2.799615662094    -2.749556123093    -0.400299768493    15.994914619570
         O           -1.361977337906     2.373395876907     0.154684231507    15.994914619570
         N           -0.798035337906     0.198808876907    -0.229354768493    14.003074004430
         N           -3.053963337906     0.804629876907     0.239913231507    14.003074004430
         N           -4.673201337906    -0.813044123093     0.412538231507    14.003074004430
         C            2.701803662094     0.874944876907     0.559375231507    12.000000000000
         C            1.237052662094     1.106616876907     0.887753231507    12.000000000000
         C            2.652027662094    -0.392900123093    -0.285568768493    12.000000000000
         C            0.574166662094     0.682394876907    -0.415014768493    12.000000000000
         C            2.802306662094    -1.660625123093     0.522371231507    12.000000000000
         C           -1.130325937906    -1.105103623093    -0.306665668493    12.000000000000
         C           -1.744479337906     1.203282876907     0.081946231507    12.000000000000
         C           -2.417098337906    -1.505170123093    -0.104640768493    12.000000000000
         C           -3.361783337906    -0.473769123093     0.168412231507    12.000000000000
         H            3.334589662094     0.756175876907     1.450754231507     1.007825032230
         H            0.904915662094     0.443219876907     1.693390231507     1.007825032230
         H            0.985537662094     2.133457876907     1.158048231507     1.007825032230
         H            0.527662662094     1.512644876907    -1.125011768493     1.007825032230
         H            3.417700662094    -0.364892123093    -1.066724768493     1.007825032230
         H            1.970957662094    -1.733793123093     1.243124231507     1.007825032230
         H            3.746297662094    -1.610124123093     1.088190231507     1.007825032230
         H            3.104059662094     2.745714876907     0.177884231507     1.007825032230
         H           -0.310531337906    -1.789810123093    -0.543796768493     1.007825032230
         H            2.910238662094    -3.565681123093     0.119113231507     1.007825032230
         H           -2.712206937906    -2.547288223093    -0.151435768493     1.007825032230
         H           -5.028502337906    -1.638351123093    -0.056817768493     1.007825032230
         H           -5.299262337906    -0.014407123093     0.386002231507     1.007825032230

  Basis Set: AUG-CC-PVTZ
    Blend: AUG-CC-PVTZ
  Basis Set: (AUG-CC-PVTZ AUX)
    Blend: AUG-CC-PVTZ-JKFIT
	 Reference Energy          =    -811.4794694884815272 [Eh]
	 Singles Energy            =      -0.0000000000000000 [Eh]
	 Same-Spin Energy          =      -0.8296744081629219 [Eh]
	 Opposite-Spin Energy      =      -2.5249794229308016 [Eh]
	 Correlation Energy        =      -3.3546538310937235 [Eh]
	 Total Energy              =    -814.8341233195752693 [Eh]

	 ================> DF-SCS-MP2 Energies <==================
	-----------------------------------------------------------
	 SCS Same-Spin Scale       =       0.3333333333333333 [-]
	 SCS Opposite-Spin Scale   =       1.2000000000000000 [-]
	 SCS Same-Spin Energy      =      -0.2765581360543073 [Eh]
	 SCS Opposite-Spin Energy  =      -3.0299753075169620 [Eh]
	 SCS Correlation Energy    =      -3.3065334435712694 [Eh]
	 SCS Total Energy          =    -814.7860029320528383 [Eh]
	-----------------------------------------------------------

  Dipole Moment: [D]
     X:     1.1145      Y:    -4.6531      Z:     2.4887     Total:     5.3933

*** Psi4 exiting successfully. Buy a developer a beer!
