                               Psi4 1.3.2 release

  ==> Input File <==

--------------------------------------------------------------------------
#psi4
#
memory 32 gb

molecule  {
0 1
  O        1.3620710    -0.3800110    -0.9318440
  O        3.2020570     1.9012130    -0.2995130
  O        2.7994070    -2.7489470    -0.4002010
  O       -1.3621860     2.3740050     0.1547830
  N       -0.7982440     0.1994180    -0.2292560
  N       -3.0541720     0.8052390     0.2400120
  N       -4.6734100    -0.8124350     0.4126370
  C        2.7015950     0.8755540     0.5594740
  C        1.2368440     1.1072260     0.8878520
  C        2.6518190    -0.3922910    -0.2854700
  C        0.5739580     0.6830040    -0.4149160
  C        2.7815746    -1.6527079     0.5373242
  C       -1.1273370    -1.1158190    -0.3082760
  C       -1.7446880     1.2038920     0.0820450
  C       -2.4173070    -1.5045610    -0.1045420
  C       -3.3619920    -0.4731600     0.1685110
  H        3.3343810     0.7567850     1.4508530
  H        0.9047070     0.4438290     1.6934890
  H        0.9853290     2.1340670     1.1581470
  H        0.5274540     1.5132540    -1.1249130
  H        3.4106307    -0.3474623    -1.0725148
  H        1.9707490    -1.7331840     1.2432230
  H        3.7460890    -1.6095150     1.0882890
  H        3.1038510     2.7463240     0.1779830
  H       -0.3107400    -1.7892010    -0.5436980
  H        2.9100300    -3.5650720     0.1192120
  H       -2.7034680    -2.5490840    -0.1532500
  H       -5.0287110    -1.6377420    -0.0567190
  H       -5.2994710    -0.0137980     0.3861010
units angstrom
no_reorient  #important for SAPT in psi4, default
symmetry c1  #important for SAPT in psi4, default
}

set PROPERTIES_ORIGIN ["COM"]
properties('MP2/aug-cc-pvtz', properties = ['dipole'])
--------------------------------------------------------------------------

    Molecular point group: c1
  Charge       = 0
  Multiplicity = 1
  Basis Set: AUG-CC-PVTZ
    Blend: AUG-CC-PVTZ
  Basis Set: (AUG-CC-PVTZ AUX)
    Blend: AUG-CC-PVTZ-JKFIT

    Orbital Energies [Eh]
    ---------------------

    Doubly Occupied:

       1A    -20.576302     2A    -20.574533     3A    -20.572548
       4A    -20.503163     5A    -15.621847     6A    -15.588459
       7A    -15.540921     8A    -11.370006     9A    -11.345156
      10A    -11.330761    11A    -11.318428    12A    -11.300660
      13A    -11.296719    14A    -11.293406    15A    -11.237172
      16A    -11.237016    17A     -1.416626    18A     -1.382268
      19A     -1.370779    20A     -1.363175    21A     -1.292345
      22A     -1.261545    23A     -1.169225    24A     -1.079244
      25A     -1.069330    26A     -1.028096    27A     -0.927363
      28A     -0.897968    29A     -0.869415    30A     -0.830913
      31A     -0.807219    32A     -0.754387    33A     -0.738762
      34A     -0.719728    35A     -0.706778    36A     -0.690935
      37A     -0.688658    38A     -0.676109    39A     -0.657184
      40A     -0.636769    41A     -0.627731    42A     -0.618520
      43A     -0.603805    44A     -0.595291    45A     -0.587662
      46A     -0.572845    47A     -0.568190    48A     -0.544748
      49A     -0.532586    50A     -0.523536    51A     -0.510930
      52A     -0.485492    53A     -0.482213    54A     -0.470380
      55A     -0.462089    56A     -0.444603    57A     -0.437995
      58A     -0.416487    59A     -0.383845    60A     -0.335063

  @DF-RHF Final Energy:  -811.47825604266313

   => Energetics <=

    Nuclear Repulsion Energy =           1170.0436429221847447
    One-Electron Energy =               -3435.1519469009476779
    Two-Electron Energy =                1453.6300479360995723
    Total Energy =                       -811.4782560426631335
  Basis Set: (AUG-CC-PVTZ AUX)
    Blend: AUG-CC-PVTZ-RI
    Molecular point group: c1

    Geometry (in Angstrom), charge = 0, multiplicity = 1:

       Center              X                  Y                   Z               Mass
    ------------   -----------------  -----------------  -----------------  -----------------
         O            1.363185939013    -0.380471864227    -0.932602762111    15.994914619570
         O            3.203171939013     1.900752135773    -0.300271762111    15.994914619570
         O            2.800521939013    -2.749407864227    -0.400959762111    15.994914619570
         O           -1.361071060987     2.373544135773     0.154024237889    15.994914619570
         N           -0.797129060987     0.198957135773    -0.230014762111    14.003074004430
         N           -3.053057060987     0.804778135773     0.239253237889    14.003074004430
         N           -4.672295060987    -0.812895864227     0.411878237889    14.003074004430
         C            2.702709939013     0.875093135773     0.558715237889    12.000000000000
         C            1.237958939013     1.106765135773     0.887093237889    12.000000000000
         C            2.652933939013    -0.392751864227    -0.286228762111    12.000000000000
         C            0.575072939013     0.682543135773    -0.415674762111    12.000000000000
         C            2.782689539013    -1.653168764227     0.536565437889    12.000000000000
         C           -1.126222060987    -1.116279864227    -0.309034762111    12.000000000000
         C           -1.743573060987     1.203431135773     0.081286237889    12.000000000000
         C           -2.416192060987    -1.505021864227    -0.105300762111    12.000000000000
         C           -3.360877060987    -0.473620864227     0.167752237889    12.000000000000
         H            3.335495939013     0.756324135773     1.450094237889     1.007825032230
         H            0.905821939013     0.443368135773     1.692730237889     1.007825032230
         H            0.986443939013     2.133606135773     1.157388237889     1.007825032230
         H            0.528568939013     1.512793135773    -1.125671762111     1.007825032230
         H            3.411745639013    -0.347923164227    -1.073273562111     1.007825032230
         H            1.971863939013    -1.733644864227     1.242464237889     1.007825032230
         H            3.747203939013    -1.609975864227     1.087530237889     1.007825032230
         H            3.104965939013     2.745863135773     0.177224237889     1.007825032230
         H           -0.309625060987    -1.789661864227    -0.544456762111     1.007825032230
         H            2.911144939013    -3.565532864227     0.118453237889     1.007825032230
         H           -2.702353060987    -2.549544864227    -0.154008762111     1.007825032230
         H           -5.027596060987    -1.638202864227    -0.057477762111     1.007825032230
         H           -5.298356060987    -0.014258864227     0.385342237889     1.007825032230

  Basis Set: AUG-CC-PVTZ
    Blend: AUG-CC-PVTZ
  Basis Set: (AUG-CC-PVTZ AUX)
    Blend: AUG-CC-PVTZ-JKFIT
	 Reference Energy          =    -811.4782560426631335 [Eh]
	 Singles Energy            =      -0.0000000000000000 [Eh]
	 Same-Spin Energy          =      -0.8297162152222926 [Eh]
	 Opposite-Spin Energy      =      -2.5254999715072879 [Eh]
	 Correlation Energy        =      -3.3552161867295807 [Eh]
	 Total Energy              =    -814.8334722293926689 [Eh]

	 ================> DF-SCS-MP2 Energies <==================
	-----------------------------------------------------------
	 SCS Same-Spin Scale       =       0.3333333333333333 [-]
	 SCS Opposite-Spin Scale   =       1.2000000000000000 [-]
	 SCS Same-Spin Energy      =      -0.2765720717407641 [Eh]
	 SCS Opposite-Spin Energy  =      -3.0305999658087455 [Eh]
	 SCS Correlation Energy    =      -3.3071720375495097 [Eh]
	 SCS Total Energy          =    -814.7854280802126823 [Eh]
	-----------------------------------------------------------

  Dipole Moment: [D]
     X:     1.0409      Y:    -4.6292      Z:     2.5193     Total:     5.3721

*** Psi4 exiting successfully. Buy a developer a beer!
