                               Psi4 1.3.2 release

  ==> Input File <==

--------------------------------------------------------------------------
#psi4
#
memory 32 gb

molecule  {
0 1
  O        1.3620710    -0.3800110    -0.9318440
  O        3.2020570     1.9012130    -0.2995130
  O        2.7994070    -2.7489470    -0.4002010
  O       -1.3824410     2.3801898     0.1586199
  N       -0.7982440     0.1994180    -0.2292560
  N       -3.0605001     0.8281643     0.2435793
  N       -4.6734100    -0.8124350     0.4126370
  C        2.7015950     0.8755540     0.5594740
  C        1.2368440     1.1072260     0.8878520
  C        2.6518190    -0.3922910    -0.2854700
  C        0.5739580     0.6830040    -0.4149160
  C        2.8020980    -1.6600160     0.5224700
  C       -1.1273370    -1.1158190    -0.3082760
  C       -1.7446880     1.2038920     0.0820450
  C       -2.4173070    -1.5045610    -0.1045420
  C       -3.3619920    -0.4731600     0.1685110
  H        3.3343810     0.7567850     1.4508530
  H        0.9047070     0.4438290     1.6934890
  H        0.9853290     2.1340670     1.1581470
  H        0.5274540     1.5132540    -1.1249130
  H        3.4174920    -0.3642830    -1.0666260
  H        1.9707490    -1.7331840     1.2432230
  H        3.7460890    -1.6095150     1.0882890
  H        3.1038510     2.7463240     0.1779830
  H       -0.3107400    -1.7892010    -0.5436980
  H        2.9100300    -3.5650720     0.1192120
  H       -2.7034680    -2.5490840    -0.1532500
  H       -5.0287110    -1.6377420    -0.0567190
  H       -5.2994710    -0.0137980     0.3861010
units angstrom
no_reorient  #important for SAPT in psi4, default
symmetry c1  #important for SAPT in psi4, default
}

set PROPERTIES_ORIGIN ["COM"]
properties('MP2/aug-cc-pvtz', properties = ['dipole'])
--------------------------------------------------------------------------

    Molecular point group: c1
  Charge       = 0
  Multiplicity = 1
  Basis Set: AUG-CC-PVTZ
    Blend: AUG-CC-PVTZ
  Basis Set: (AUG-CC-PVTZ AUX)
    Blend: AUG-CC-PVTZ-JKFIT

    Orbital Energies [Eh]
    ---------------------

    Doubly Occupied:

       1A    -20.578131     2A    -20.574627     3A    -20.573544
       4A    -20.500293     5A    -15.623117     6A    -15.589621
       7A    -15.541924     8A    -11.367414     9A    -11.347373
      10A    -11.331534    11A    -11.319951    12A    -11.301245
      13A    -11.297262    14A    -11.293524    15A    -11.238357
      16A    -11.237221    17A     -1.417023    18A     -1.380929
      19A     -1.373925    20A     -1.365744    21A     -1.289515
      22A     -1.261349    23A     -1.165518    24A     -1.079660
      25A     -1.069638    26A     -1.028343    27A     -0.926884
      28A     -0.898486    29A     -0.866444    30A     -0.830673
      31A     -0.806837    32A     -0.753838    33A     -0.739339
      34A     -0.721270    35A     -0.706334    36A     -0.693237
      37A     -0.689270    38A     -0.675405    39A     -0.656687
      40A     -0.637532    41A     -0.627008    42A     -0.618314
      43A     -0.603873    44A     -0.595284    45A     -0.587390
      46A     -0.572636    47A     -0.568959    48A     -0.545057
      49A     -0.531959    50A     -0.524088    51A     -0.510536
      52A     -0.486257    53A     -0.482124    54A     -0.468887
      55A     -0.461384    56A     -0.443072    57A     -0.437988
      58A     -0.417433    59A     -0.381089    60A     -0.335126

  @DF-RHF Final Energy:  -811.47773870769572

   => Energetics <=

    Nuclear Repulsion Energy =           1169.0612490571338640
    One-Electron Energy =               -3433.1830058106147590
    Two-Electron Energy =                1452.6440180457850602
    Total Energy =                       -811.4777387076958348
  Basis Set: (AUG-CC-PVTZ AUX)
    Blend: AUG-CC-PVTZ-RI
    Molecular point group: c1

    Geometry (in Angstrom), charge = 0, multiplicity = 1:

       Center              X                  Y                   Z               Mass
    ------------   -----------------  -----------------  -----------------  -----------------
         O            1.363887835323    -0.381860299017    -0.932334184440    15.994914619570
         O            3.203873835323     1.899363700983    -0.300003184440    15.994914619570
         O            2.801223835323    -2.750796299017    -0.400691184440    15.994914619570
         O           -1.380624164677     2.378340500983     0.158129715560    15.994914619570
         N           -0.796427164677     0.197568700983    -0.229746184440    14.003074004430
         N           -3.058683264677     0.826315000983     0.243089115560    14.003074004430
         N           -4.671593164677    -0.814284299017     0.412146815560    14.003074004430
         C            2.703411835323     0.873704700983     0.558983815560    12.000000000000
         C            1.238660835323     1.105376700983     0.887361815560    12.000000000000
         C            2.653635835323    -0.394140299017    -0.285960184440    12.000000000000
         C            0.575774835323     0.681154700983    -0.415406184440    12.000000000000
         C            2.803914835323    -1.661865299017     0.521979815560    12.000000000000
         C           -1.125520164677    -1.117668299017    -0.308766184440    12.000000000000
         C           -1.742871164677     1.202042700983     0.081554815560    12.000000000000
         C           -2.415490164677    -1.506410299017    -0.105032184440    12.000000000000
         C           -3.360175164677    -0.475009299017     0.168020815560    12.000000000000
         H            3.336197835323     0.754935700983     1.450362815560     1.007825032230
         H            0.906523835323     0.441979700983     1.692998815560     1.007825032230
         H            0.987145835323     2.132217700983     1.157656815560     1.007825032230
         H            0.529270835323     1.511404700983    -1.125403184440     1.007825032230
         H            3.419308835323    -0.366132299017    -1.067116184440     1.007825032230
         H            1.972565835323    -1.735033299017     1.242732815560     1.007825032230
         H            3.747905835323    -1.611364299017     1.087798815560     1.007825032230
         H            3.105667835323     2.744474700983     0.177492815560     1.007825032230
         H           -0.308923164677    -1.791050299017    -0.544188184440     1.007825032230
         H            2.911846835323    -3.566921299017     0.118721815560     1.007825032230
         H           -2.701651164677    -2.550933299017    -0.153740184440     1.007825032230
         H           -5.026894164677    -1.639591299017    -0.057209184440     1.007825032230
         H           -5.297654164677    -0.015647299017     0.385610815560     1.007825032230

  Basis Set: AUG-CC-PVTZ
    Blend: AUG-CC-PVTZ
  Basis Set: (AUG-CC-PVTZ AUX)
    Blend: AUG-CC-PVTZ-JKFIT
	 Reference Energy          =    -811.4777387076957211 [Eh]
	 Singles Energy            =      -0.0000000000000000 [Eh]
	 Same-Spin Energy          =      -0.8297426590953185 [Eh]
	 Opposite-Spin Energy      =      -2.5255920255929571 [Eh]
	 Correlation Energy        =      -3.3553346846882759 [Eh]
	 Total Energy              =    -814.8330733923839944 [Eh]

	 ================> DF-SCS-MP2 Energies <==================
	-----------------------------------------------------------
	 SCS Same-Spin Scale       =       0.3333333333333333 [-]
	 SCS Opposite-Spin Scale   =       1.2000000000000000 [-]
	 SCS Same-Spin Energy      =      -0.2765808863651061 [Eh]
	 SCS Opposite-Spin Energy  =      -3.0307104307115487 [Eh]
	 SCS Correlation Energy    =      -3.3072913170766549 [Eh]
	 SCS Total Energy          =    -814.7850300247723681 [Eh]
	-----------------------------------------------------------

  Dipole Moment: [D]
     X:     1.1134      Y:    -4.7835      Z:     2.4784     Total:     5.5013

*** Psi4 exiting successfully. Buy a developer a beer!
