                               Psi4 1.3.2 release

  ==> Input File <==

--------------------------------------------------------------------------
#psi4
#
memory 32 gb

molecule  {
0 1
  O        1.3620710    -0.3800110    -0.9318440
  O        3.2020570     1.9012130    -0.2995130
  O        2.7994070    -2.7489470    -0.4002010
  O       -1.3621860     2.3740050     0.1547830
  N       -0.7982440     0.1994180    -0.2292560
  N       -3.0541720     0.8052390     0.2400120
  N       -4.6734100    -0.8124350     0.4126370
  C        2.7015950     0.8755540     0.5594740
  C        1.2368440     1.1072260     0.8878520
  C        2.6518190    -0.3922910    -0.2854700
  C        0.5739580     0.6830040    -0.4149160
  C        2.8020980    -1.6600160     0.5224700
  C       -1.0594667    -1.1299297    -0.3240833
  C       -1.6904639     1.2540254     0.0763245
  C       -2.4173070    -1.5045610    -0.1045420
  C       -3.3619920    -0.4731600     0.1685110
  H        3.3343810     0.7567850     1.4508530
  H        0.9047070     0.4438290     1.6934890
  H        0.9853290     2.1340670     1.1581470
  H        0.5274540     1.5132540    -1.1249130
  H        3.4174920    -0.3642830    -1.0666260
  H        1.9707490    -1.7331840     1.2432230
  H        3.7460890    -1.6095150     1.0882890
  H        3.1038510     2.7463240     0.1779830
  H       -0.3107400    -1.7892010    -0.5436980
  H        2.9100300    -3.5650720     0.1192120
  H       -2.7034680    -2.5490840    -0.1532500
  H       -5.0287110    -1.6377420    -0.0567190
  H       -5.2994710    -0.0137980     0.3861010
units angstrom
no_reorient  #important for SAPT in psi4, default
symmetry c1  #important for SAPT in psi4, default
}

set PROPERTIES_ORIGIN ["COM"]
properties('MP2/aug-cc-pvtz', properties = ['dipole'])
--------------------------------------------------------------------------

    Molecular point group: c1
  Charge       = 0
  Multiplicity = 1
  Basis Set: AUG-CC-PVTZ
    Blend: AUG-CC-PVTZ
  Basis Set: (AUG-CC-PVTZ AUX)
    Blend: AUG-CC-PVTZ-JKFIT

    Orbital Energies [Eh]
    ---------------------

    Doubly Occupied:

       1A    -20.578726     2A    -20.576532     3A    -20.574332
       4A    -20.522561     5A    -15.622413     6A    -15.579470
       7A    -15.533725     8A    -11.373766     9A    -11.334055
      10A    -11.330526    11A    -11.321578    12A    -11.303089
      13A    -11.298079    14A    -11.294632    15A    -11.239761
      16A    -11.237280    17A     -1.428905    18A     -1.410625
      19A     -1.375067    20A     -1.369732    21A     -1.295721
      22A     -1.257605    23A     -1.150010    24A     -1.079139
      25A     -1.060615    26A     -1.023659    27A     -0.925519
      28A     -0.905263    29A     -0.863140    30A     -0.823433
      31A     -0.806939    32A     -0.748634    33A     -0.740190
      34A     -0.722902    35A     -0.708619    36A     -0.694265
      37A     -0.690702    38A     -0.678032    39A     -0.658776
      40A     -0.639721    41A     -0.631270    42A     -0.628813
      43A     -0.611382    44A     -0.596658    45A     -0.591924
      46A     -0.569684    47A     -0.565347    48A     -0.546370
      49A     -0.533349    50A     -0.526096    51A     -0.518110
      52A     -0.489210    53A     -0.488147    54A     -0.469819
      55A     -0.466660    56A     -0.455655    57A     -0.439107
      58A     -0.404865    59A     -0.376963    60A     -0.324195

  @DF-RHF Final Energy:  -811.46155044318971

   => Energetics <=

    Nuclear Repulsion Energy =           1169.8083465364861695
    One-Electron Energy =               -3434.5170666432481994
    Two-Electron Energy =                1453.2471696635723220
    Total Energy =                       -811.4615504431897079
  Basis Set: (AUG-CC-PVTZ AUX)
    Blend: AUG-CC-PVTZ-RI
    Molecular point group: c1

    Geometry (in Angstrom), charge = 0, multiplicity = 1:

       Center              X                  Y                   Z               Mass
    ------------   -----------------  -----------------  -----------------  -----------------
         O            1.355619229756    -0.381914560969    -0.930706386353    15.994914619570
         O            3.195605229756     1.899309439031    -0.298375386353    15.994914619570
         O            2.792955229756    -2.750850560969    -0.399063386353    15.994914619570
         O           -1.368637770244     2.372101439031     0.155920613647    15.994914619570
         N           -0.804695770244     0.197514439031    -0.228118386353    14.003074004430
         N           -3.060623770244     0.803335439031     0.241149613647    14.003074004430
         N           -4.679861770244    -0.814338560969     0.413774613647    14.003074004430
         C            2.695143229756     0.873650439031     0.560611613647    12.000000000000
         C            1.230392229756     1.105322439031     0.888989613647    12.000000000000
         C            2.645367229756    -0.394194560969    -0.284332386353    12.000000000000
         C            0.567506229756     0.681100439031    -0.413778386353    12.000000000000
         C            2.795646229756    -1.661919560969     0.523607613647    12.000000000000
         C           -1.065918470244    -1.131833260969    -0.322945686353    12.000000000000
         C           -1.696915670244     1.252121839031     0.077462113647    12.000000000000
         C           -2.423758770244    -1.506464560969    -0.103404386353    12.000000000000
         C           -3.368443770244    -0.475063560969     0.169648613647    12.000000000000
         H            3.327929229756     0.754881439031     1.451990613647     1.007825032230
         H            0.898255229756     0.441925439031     1.694626613647     1.007825032230
         H            0.978877229756     2.132163439031     1.159284613647     1.007825032230
         H            0.521002229756     1.511350439031    -1.123775386353     1.007825032230
         H            3.411040229756    -0.366186560969    -1.065488386353     1.007825032230
         H            1.964297229756    -1.735087560969     1.244360613647     1.007825032230
         H            3.739637229756    -1.611418560969     1.089426613647     1.007825032230
         H            3.097399229756     2.744420439031     0.179120613647     1.007825032230
         H           -0.317191770244    -1.791104560969    -0.542560386353     1.007825032230
         H            2.903578229756    -3.566975560969     0.120349613647     1.007825032230
         H           -2.709919770244    -2.550987560969    -0.152112386353     1.007825032230
         H           -5.035162770244    -1.639645560969    -0.055581386353     1.007825032230
         H           -5.305922770244    -0.015701560969     0.387238613647     1.007825032230

  Basis Set: AUG-CC-PVTZ
    Blend: AUG-CC-PVTZ
  Basis Set: (AUG-CC-PVTZ AUX)
    Blend: AUG-CC-PVTZ-JKFIT
	 Reference Energy          =    -811.4615504431897079 [Eh]
	 Singles Energy            =      -0.0000000000000000 [Eh]
	 Same-Spin Energy          =      -0.8296481441075153 [Eh]
	 Opposite-Spin Energy      =      -2.5261512252906457 [Eh]
	 Correlation Energy        =      -3.3557993693981611 [Eh]
	 Total Energy              =    -814.8173498125878496 [Eh]

	 ================> DF-SCS-MP2 Energies <==================
	-----------------------------------------------------------
	 SCS Same-Spin Scale       =       0.3333333333333333 [-]
	 SCS Opposite-Spin Scale   =       1.2000000000000000 [-]
	 SCS Same-Spin Energy      =      -0.2765493813691717 [Eh]
	 SCS Opposite-Spin Energy  =      -3.0313814703487747 [Eh]
	 SCS Correlation Energy    =      -3.3079308517179467 [Eh]
	 SCS Total Energy          =    -814.7694812949076777 [Eh]
	-----------------------------------------------------------

  Dipole Moment: [D]
     X:     1.5830      Y:    -4.0404      Z:     2.4779     Total:     4.9971

*** Psi4 exiting successfully. Buy a developer a beer!
