                               Psi4 1.3.2 release

  ==> Input File <==

--------------------------------------------------------------------------
#psi4
#
memory 32 gb

molecule  {
0 1
  O        1.3620710    -0.3800110    -0.9318440
  O        3.2020570     1.9012130    -0.2995130
  O        2.7994070    -2.7489470    -0.4002010
  O       -1.3621860     2.3740050     0.1547830
  N       -0.7982440     0.1994180    -0.2292560
  N       -3.0322454     0.8000033     0.2355334
  N       -4.6734100    -0.8124350     0.4126370
  C        2.7015950     0.8755540     0.5594740
  C        1.2368440     1.1072260     0.8878520
  C        2.6518190    -0.3922910    -0.2854700
  C        0.5739580     0.6830040    -0.4149160
  C        2.8020980    -1.6600160     0.5224700
  C       -1.1273370    -1.1158190    -0.3082760
  C       -1.7446880     1.2038920     0.0820450
  C       -2.3993570    -1.4874136    -0.1060780
  C       -3.3619920    -0.4731600     0.1685110
  H        3.3343810     0.7567850     1.4508530
  H        0.9047070     0.4438290     1.6934890
  H        0.9853290     2.1340670     1.1581470
  H        0.5274540     1.5132540    -1.1249130
  H        3.4174920    -0.3642830    -1.0666260
  H        1.9707490    -1.7331840     1.2432230
  H        3.7460890    -1.6095150     1.0882890
  H        3.1038510     2.7463240     0.1779830
  H       -0.3107400    -1.7892010    -0.5436980
  H        2.9100300    -3.5650720     0.1192120
  H       -2.7034680    -2.5490840    -0.1532500
  H       -5.0287110    -1.6377420    -0.0567190
  H       -5.2994710    -0.0137980     0.3861010
units angstrom
no_reorient  #important for SAPT in psi4, default
symmetry c1  #important for SAPT in psi4, default
}

set PROPERTIES_ORIGIN ["COM"]
properties('MP2/aug-cc-pvtz', properties = ['dipole'])
--------------------------------------------------------------------------

    Molecular point group: c1
  Charge       = 0
  Multiplicity = 1
  Basis Set: AUG-CC-PVTZ
    Blend: AUG-CC-PVTZ
  Basis Set: (AUG-CC-PVTZ AUX)
    Blend: AUG-CC-PVTZ-JKFIT

    Orbital Energies [Eh]
    ---------------------

    Doubly Occupied:

       1A    -20.577235     2A    -20.573582     3A    -20.571755
       4A    -20.500261     5A    -15.618492     6A    -15.591961
       7A    -15.538781     8A    -11.367104     9A    -11.347638
      10A    -11.329069    11A    -11.313887    12A    -11.299996
      13A    -11.296248    14A    -11.292251    15A    -11.236604
      16A    -11.235665    17A     -1.415614    18A     -1.382072
      19A     -1.372955    20A     -1.364971    21A     -1.293174
      22A     -1.260995    23A     -1.173703    24A     -1.079940
      25A     -1.069873    26A     -1.027801    27A     -0.926862
      28A     -0.895793    29A     -0.871165    30A     -0.831351
      31A     -0.805816    32A     -0.756863    33A     -0.737500
      34A     -0.720300    35A     -0.708517    36A     -0.692246
      37A     -0.689024    38A     -0.676692    39A     -0.656020
      40A     -0.634190    41A     -0.628157    42A     -0.616574
      43A     -0.605306    44A     -0.597171    45A     -0.588315
      46A     -0.571602    47A     -0.568181    48A     -0.544248
      49A     -0.532477    50A     -0.522416    51A     -0.509950
      52A     -0.485117    53A     -0.482405    54A     -0.467936
      55A     -0.460510    56A     -0.442514    57A     -0.435494
      58A     -0.415180    59A     -0.384749    60A     -0.336417

  @DF-RHF Final Energy:  -811.47913858339109

   => Energetics <=

    Nuclear Repulsion Energy =           1171.1022005425761563
    One-Electron Energy =               -3437.3053055386735650
    Two-Electron Energy =                1454.7239664127062042
    Total Energy =                       -811.4791385833912045
  Basis Set: (AUG-CC-PVTZ AUX)
    Blend: AUG-CC-PVTZ-RI
    Molecular point group: c1

    Geometry (in Angstrom), charge = 0, multiplicity = 1:

       Center              X                  Y                   Z               Mass
    ------------   -----------------  -----------------  -----------------  -----------------
         O            1.359770405424    -0.380594297221    -0.931486636298    15.994914619570
         O            3.199756405424     1.900629702779    -0.299155636298    15.994914619570
         O            2.797106405424    -2.749530297221    -0.399843636298    15.994914619570
         O           -1.364486594576     2.373421702779     0.155140363702    15.994914619570
         N           -0.800544594576     0.198834702779    -0.228898636298    14.003074004430
         N           -3.034545994576     0.799420002779     0.235890763702    14.003074004430
         N           -4.675710594576    -0.813018297221     0.412994363702    14.003074004430
         C            2.699294405424     0.874970702779     0.559831363702    12.000000000000
         C            1.234543405424     1.106642702779     0.888209363702    12.000000000000
         C            2.649518405424    -0.392874297221    -0.285112636298    12.000000000000
         C            0.571657405424     0.682420702779    -0.414558636298    12.000000000000
         C            2.799797405424    -1.660599297221     0.522827363702    12.000000000000
         C           -1.129637594576    -1.116402297221    -0.307918636298    12.000000000000
         C           -1.746988594576     1.203308702779     0.082402363702    12.000000000000
         C           -2.401657594576    -1.487996897221    -0.105720636298    12.000000000000
         C           -3.364292594576    -0.473743297221     0.168868363702    12.000000000000
         H            3.332080405424     0.756201702779     1.451210363702     1.007825032230
         H            0.902406405424     0.443245702779     1.693846363702     1.007825032230
         H            0.983028405424     2.133483702779     1.158504363702     1.007825032230
         H            0.525153405424     1.512670702779    -1.124555636298     1.007825032230
         H            3.415191405424    -0.364866297221    -1.066268636298     1.007825032230
         H            1.968448405424    -1.733767297221     1.243580363702     1.007825032230
         H            3.743788405424    -1.610098297221     1.088646363702     1.007825032230
         H            3.101550405424     2.745740702779     0.178340363702     1.007825032230
         H           -0.313040594576    -1.789784297221    -0.543340636298     1.007825032230
         H            2.907729405424    -3.565655297221     0.119569363702     1.007825032230
         H           -2.705768594576    -2.549667297221    -0.152892636298     1.007825032230
         H           -5.031011594576    -1.638325297221    -0.056361636298     1.007825032230
         H           -5.301771594576    -0.014381297221     0.386458363702     1.007825032230

  Basis Set: AUG-CC-PVTZ
    Blend: AUG-CC-PVTZ
  Basis Set: (AUG-CC-PVTZ AUX)
    Blend: AUG-CC-PVTZ-JKFIT
	 Reference Energy          =    -811.4791385833910908 [Eh]
	 Singles Energy            =      -0.0000000000000000 [Eh]
	 Same-Spin Energy          =      -0.8296587673584942 [Eh]
	 Opposite-Spin Energy      =      -2.5246210714308956 [Eh]
	 Correlation Energy        =      -3.3542798387893900 [Eh]
	 Total Energy              =    -814.8334184221804435 [Eh]

	 ================> DF-SCS-MP2 Energies <==================
	-----------------------------------------------------------
	 SCS Same-Spin Scale       =       0.3333333333333333 [-]
	 SCS Opposite-Spin Scale   =       1.2000000000000000 [-]
	 SCS Same-Spin Energy      =      -0.2765529224528314 [Eh]
	 SCS Opposite-Spin Energy  =      -3.0295452857170746 [Eh]
	 SCS Correlation Energy    =      -3.3060982081699057 [Eh]
	 SCS Total Energy          =    -814.7852367915610330 [Eh]
	-----------------------------------------------------------

  Dipole Moment: [D]
     X:     0.9080      Y:    -4.7341      Z:     2.5043     Total:     5.4321

*** Psi4 exiting successfully. Buy a developer a beer!
