                               Psi4 1.3.2 release

  ==> Input File <==

--------------------------------------------------------------------------
#psi4
#
memory 32 gb

molecule  {
0 1
  O        1.3620710    -0.3800110    -0.9318440
  O        3.2020570     1.9012130    -0.2995130
  O        2.7994070    -2.7489470    -0.4002010
  O       -1.3621860     2.3740050     0.1547830
  N       -0.7804692     0.1642313    -0.1965920
  N       -3.0541720     0.8052390     0.2400120
  N       -4.6734100    -0.8124350     0.4126370
  C        2.7015950     0.8755540     0.5594740
  C        1.2368440     1.1072260     0.8878520
  C        2.6518190    -0.3922910    -0.2854700
  C        0.5739580     0.6830040    -0.4149160
  C        2.8020980    -1.6600160     0.5224700
  C       -1.1273370    -1.1158190    -0.3082760
  C       -1.7446880     1.2038920     0.0820450
  C       -2.4173070    -1.5045610    -0.1045420
  C       -3.3619920    -0.4731600     0.1685110
  H        3.3343810     0.7567850     1.4508530
  H        0.9047070     0.4438290     1.6934890
  H        0.9853290     2.1340670     1.1581470
  H        0.5653159     1.5170350    -1.1219458
  H        3.4174920    -0.3642830    -1.0666260
  H        1.9707490    -1.7331840     1.2432230
  H        3.7460890    -1.6095150     1.0882890
  H        3.1038510     2.7463240     0.1779830
  H       -0.3107400    -1.7892010    -0.5436980
  H        2.9100300    -3.5650720     0.1192120
  H       -2.7034680    -2.5490840    -0.1532500
  H       -5.0287110    -1.6377420    -0.0567190
  H       -5.2994710    -0.0137980     0.3861010
units angstrom
no_reorient  #important for SAPT in psi4, default
symmetry c1  #important for SAPT in psi4, default
}

set PROPERTIES_ORIGIN ["COM"]
properties('MP2/aug-cc-pvtz', properties = ['dipole'])
--------------------------------------------------------------------------

    Molecular point group: c1
  Charge       = 0
  Multiplicity = 1
  Basis Set: AUG-CC-PVTZ
    Blend: AUG-CC-PVTZ
  Basis Set: (AUG-CC-PVTZ AUX)
    Blend: AUG-CC-PVTZ-JKFIT

    Orbital Energies [Eh]
    ---------------------

    Doubly Occupied:

       1A    -20.577472     2A    -20.574817     3A    -20.571955
       4A    -20.508065     5A    -15.623341     6A    -15.587488
       7A    -15.540724     8A    -11.374250     9A    -11.344245
      10A    -11.331918    11A    -11.315811    12A    -11.300915
      13A    -11.296608    14A    -11.292754    15A    -11.236609
      16A    -11.233175    17A     -1.416998    18A     -1.382410
      19A     -1.373588    20A     -1.365987    21A     -1.294708
      22A     -1.264110    23A     -1.169268    24A     -1.079387
      25A     -1.068452    26A     -1.026356    27A     -0.927386
      28A     -0.895143    29A     -0.868496    30A     -0.831587
      31A     -0.805992    32A     -0.753574    33A     -0.741571
      34A     -0.721289    35A     -0.706106    36A     -0.693408
      37A     -0.689911    38A     -0.675053    39A     -0.654345
      40A     -0.636598    41A     -0.627388    42A     -0.618844
      43A     -0.604072    44A     -0.594690    45A     -0.589514
      46A     -0.575754    47A     -0.567015    48A     -0.545128
      49A     -0.531802    50A     -0.524800    51A     -0.510660
      52A     -0.487455    53A     -0.485488    54A     -0.468439
      55A     -0.461766    56A     -0.445925    57A     -0.437998
      58A     -0.415787    59A     -0.384202    60A     -0.332421

  @DF-RHF Final Energy:  -811.47706545327776

   => Energetics <=

    Nuclear Repulsion Energy =           1170.0683425058664398
    One-Electron Energy =               -3435.1687816051180562
    Two-Electron Energy =                1453.6233736459737429
    Total Energy =                       -811.4770654532778735
  Basis Set: (AUG-CC-PVTZ AUX)
    Blend: AUG-CC-PVTZ-RI
    Molecular point group: c1

    Geometry (in Angstrom), charge = 0, multiplicity = 1:

       Center              X                  Y                   Z               Mass
    ------------   -----------------  -----------------  -----------------  -----------------
         O            1.360806907093    -0.377858101769    -0.933871292382    15.994914619570
         O            3.200792907093     1.903365898231    -0.301540292382    15.994914619570
         O            2.798142907093    -2.746794101769    -0.402228292382    15.994914619570
         O           -1.363450092907     2.376157898231     0.152755707618    15.994914619570
         N           -0.781733292907     0.166384198231    -0.198619292382    14.003074004430
         N           -3.055436092907     0.807391898231     0.237984707618    14.003074004430
         N           -4.674674092907    -0.810282101769     0.410609707618    14.003074004430
         C            2.700330907093     0.877706898231     0.557446707618    12.000000000000
         C            1.235579907093     1.109378898231     0.885824707618    12.000000000000
         C            2.650554907093    -0.390138101769    -0.287497292382    12.000000000000
         C            0.572693907093     0.685156898231    -0.416943292382    12.000000000000
         C            2.800833907093    -1.657863101769     0.520442707618    12.000000000000
         C           -1.128601092907    -1.113666101769    -0.310303292382    12.000000000000
         C           -1.745952092907     1.206044898231     0.080017707618    12.000000000000
         C           -2.418571092907    -1.502408101769    -0.106569292382    12.000000000000
         C           -3.363256092907    -0.471007101769     0.166483707618    12.000000000000
         H            3.333116907093     0.758937898231     1.448825707618     1.007825032230
         H            0.903442907093     0.445981898231     1.691461707618     1.007825032230
         H            0.984064907093     2.136219898231     1.156119707618     1.007825032230
         H            0.564051807093     1.519187898231    -1.123973092382     1.007825032230
         H            3.416227907093    -0.362130101769    -1.068653292382     1.007825032230
         H            1.969484907093    -1.731031101769     1.241195707618     1.007825032230
         H            3.744824907093    -1.607362101769     1.086261707618     1.007825032230
         H            3.102586907093     2.748476898231     0.175955707618     1.007825032230
         H           -0.312004092907    -1.787048101769    -0.545725292382     1.007825032230
         H            2.908765907093    -3.562919101769     0.117184707618     1.007825032230
         H           -2.704732092907    -2.546931101769    -0.155277292382     1.007825032230
         H           -5.029975092907    -1.635589101769    -0.058746292382     1.007825032230
         H           -5.300735092907    -0.011645101769     0.384073707618     1.007825032230

  Basis Set: AUG-CC-PVTZ
    Blend: AUG-CC-PVTZ
  Basis Set: (AUG-CC-PVTZ AUX)
    Blend: AUG-CC-PVTZ-JKFIT
	 Reference Energy          =    -811.4770654532777598 [Eh]
	 Singles Energy            =      -0.0000000000000000 [Eh]
	 Same-Spin Energy          =      -0.8299458839050349 [Eh]
	 Opposite-Spin Energy      =      -2.5254927276083872 [Eh]
	 Correlation Energy        =      -3.3554386115134220 [Eh]
	 Total Energy              =    -814.8325040647912374 [Eh]

	 ================> DF-SCS-MP2 Energies <==================
	-----------------------------------------------------------
	 SCS Same-Spin Scale       =       0.3333333333333333 [-]
	 SCS Opposite-Spin Scale   =       1.2000000000000000 [-]
	 SCS Same-Spin Energy      =      -0.2766486279683449 [Eh]
	 SCS Opposite-Spin Energy  =      -3.0305912731300646 [Eh]
	 SCS Correlation Energy    =      -3.3072399010984097 [Eh]
	 SCS Total Energy          =    -814.7843053543762153 [Eh]
	-----------------------------------------------------------

  Dipole Moment: [D]
     X:     1.1243      Y:    -4.5024      Z:     2.4822     Total:     5.2628

*** Psi4 exiting successfully. Buy a developer a beer!
