                               Psi4 1.3.2 release

  ==> Input File <==

--------------------------------------------------------------------------
#psi4
#
memory 32 gb

molecule  {
0 1
  O        1.3620710    -0.3800110    -0.9318440
  O        3.2020570     1.9012130    -0.2995130
  O        2.7994070    -2.7489470    -0.4002010
  O       -1.3621860     2.3740050     0.1547830
  N       -0.7982440     0.1994180    -0.2292560
  N       -3.0541720     0.8052390     0.2400120
  N       -4.6734100    -0.8124350     0.4126370
  C        2.7015950     0.8755540     0.5594740
  C        1.2368440     1.1072260     0.8878520
  C        2.6518190    -0.3922910    -0.2854700
  C        0.5739580     0.6830040    -0.4149160
  C        2.8020980    -1.6600160     0.5224700
  C       -1.1273370    -1.1158190    -0.3082760
  C       -1.7446880     1.2038920     0.0820450
  C       -2.4173070    -1.5045610    -0.1045420
  C       -3.3064867    -0.4235970     0.1631370
  H        3.3343810     0.7567850     1.4508530
  H        0.9047070     0.4438290     1.6934890
  H        0.9853290     2.1340670     1.1581470
  H        0.5274540     1.5132540    -1.1249130
  H        3.4174920    -0.3642830    -1.0666260
  H        1.9707490    -1.7331840     1.2432230
  H        3.7460890    -1.6095150     1.0882890
  H        3.1038510     2.7463240     0.1779830
  H       -0.3107400    -1.7892010    -0.5436980
  H        2.9100300    -3.5650720     0.1192120
  H       -2.6493062    -2.5618597    -0.1644153
  H       -5.0287110    -1.6377420    -0.0567190
  H       -5.2994710    -0.0137980     0.3861010
units angstrom
no_reorient  #important for SAPT in psi4, default
symmetry c1  #important for SAPT in psi4, default
}

set PROPERTIES_ORIGIN ["COM"]
properties('MP2/aug-cc-pvtz', properties = ['dipole'])
--------------------------------------------------------------------------

    Molecular point group: c1
  Charge       = 0
  Multiplicity = 1
  Basis Set: AUG-CC-PVTZ
    Blend: AUG-CC-PVTZ
  Basis Set: (AUG-CC-PVTZ AUX)
    Blend: AUG-CC-PVTZ-JKFIT

    Orbital Energies [Eh]
    ---------------------

    Doubly Occupied:

       1A    -20.578576     2A    -20.575768     3A    -20.574523
       4A    -20.510660     5A    -15.624360     6A    -15.575277
       7A    -15.547194     8A    -11.376970     9A    -11.341900
      10A    -11.333077    11A    -11.316510    12A    -11.302385
      13A    -11.297877    14A    -11.294412    15A    -11.238783
      16A    -11.237681    17A     -1.419023    18A     -1.389450
      19A     -1.374646    20A     -1.367755    21A     -1.298900
      22A     -1.259224    23A     -1.166686    24A     -1.081683
      25A     -1.071206    26A     -1.029187    27A     -0.927383
      28A     -0.898954    29A     -0.873666    30A     -0.833070
      31A     -0.807410    32A     -0.752108    33A     -0.741668
      34A     -0.722252    35A     -0.700477    36A     -0.692603
      37A     -0.684116    38A     -0.673068    39A     -0.656423
      40A     -0.641947    41A     -0.632026    42A     -0.618066
      43A     -0.607388    44A     -0.593697    45A     -0.591287
      46A     -0.571718    47A     -0.569067    48A     -0.545925
      49A     -0.529757    50A     -0.525695    51A     -0.508719
      52A     -0.487456    53A     -0.485569    54A     -0.469540
      55A     -0.462612    56A     -0.454524    57A     -0.439342
      58A     -0.422940    59A     -0.391335    60A     -0.337354

  @DF-RHF Final Energy:  -811.47212031914512

   => Energetics <=

    Nuclear Repulsion Energy =           1171.0720259352699486
    One-Electron Energy =               -3437.0225379163903199
    Two-Electron Energy =                1454.4783916619749107
    Total Energy =                       -811.4721203191452332
  Basis Set: (AUG-CC-PVTZ AUX)
    Blend: AUG-CC-PVTZ-RI
    Molecular point group: c1

    Geometry (in Angstrom), charge = 0, multiplicity = 1:

       Center              X                  Y                   Z               Mass
    ------------   -----------------  -----------------  -----------------  -----------------
         O            1.358897584575    -0.382573363781    -0.931510439565    15.994914619570
         O            3.198883584575     1.898650636219    -0.299179439565    15.994914619570
         O            2.796233584575    -2.751509363781    -0.399867439565    15.994914619570
         O           -1.365359415425     2.371442636219     0.155116560435    15.994914619570
         N           -0.801417415425     0.196855636219    -0.228922439565    14.003074004430
         N           -3.057345415425     0.802676636219     0.240345560435    14.003074004430
         N           -4.676583415425    -0.814997363781     0.412970560435    14.003074004430
         C            2.698421584575     0.872991636219     0.559807560435    12.000000000000
         C            1.233670584575     1.104663636219     0.888185560435    12.000000000000
         C            2.648645584575    -0.394853363781    -0.285136439565    12.000000000000
         C            0.570784584575     0.680441636219    -0.414582439565    12.000000000000
         C            2.798924584575    -1.662578363781     0.522803560435    12.000000000000
         C           -1.130510415425    -1.118381363781    -0.307942439565    12.000000000000
         C           -1.747861415425     1.201329636219     0.082378560435    12.000000000000
         C           -2.420480415425    -1.507123363781    -0.104208439565    12.000000000000
         C           -3.309660115425    -0.426159363781     0.163470560435    12.000000000000
         H            3.331207584575     0.754222636219     1.451186560435     1.007825032230
         H            0.901533584575     0.441266636219     1.693822560435     1.007825032230
         H            0.982155584575     2.131504636219     1.158480560435     1.007825032230
         H            0.524280584575     1.510691636219    -1.124579439565     1.007825032230
         H            3.414318584575    -0.366845363781    -1.066292439565     1.007825032230
         H            1.967575584575    -1.735746363781     1.243556560435     1.007825032230
         H            3.742915584575    -1.612077363781     1.088622560435     1.007825032230
         H            3.100677584575     2.743761636219     0.178316560435     1.007825032230
         H           -0.313913415425    -1.791763363781    -0.543364439565     1.007825032230
         H            2.906856584575    -3.567634363781     0.119545560435     1.007825032230
         H           -2.652479615425    -2.564422063781    -0.164081739565     1.007825032230
         H           -5.031884415425    -1.640304363781    -0.056385439565     1.007825032230
         H           -5.302644415425    -0.016360363781     0.386434560435     1.007825032230

  Basis Set: AUG-CC-PVTZ
    Blend: AUG-CC-PVTZ
  Basis Set: (AUG-CC-PVTZ AUX)
    Blend: AUG-CC-PVTZ-JKFIT
	 Reference Energy          =    -811.4721203191451195 [Eh]
	 Singles Energy            =      -0.0000000000000000 [Eh]
	 Same-Spin Energy          =      -0.8291359512953729 [Eh]
	 Opposite-Spin Energy      =      -2.5249143023684639 [Eh]
	 Correlation Energy        =      -3.3540502536638366 [Eh]
	 Total Energy              =    -814.8261705728089055 [Eh]

	 ================> DF-SCS-MP2 Energies <==================
	-----------------------------------------------------------
	 SCS Same-Spin Scale       =       0.3333333333333333 [-]
	 SCS Opposite-Spin Scale   =       1.2000000000000000 [-]
	 SCS Same-Spin Energy      =      -0.2763786504317909 [Eh]
	 SCS Opposite-Spin Energy  =      -3.0298971628421567 [Eh]
	 SCS Correlation Energy    =      -3.3062758132739476 [Eh]
	 SCS Total Energy          =    -814.7783961324190614 [Eh]
	-----------------------------------------------------------

  Dipole Moment: [D]
     X:     1.6615      Y:    -4.3372      Z:     2.4207     Total:     5.2375

*** Psi4 exiting successfully. Buy a developer a beer!
