                               Psi4 1.3.2 release

  ==> Input File <==

--------------------------------------------------------------------------
#psi4
#
memory 32 gb

molecule  {
0 1
  O        1.3620710    -0.3800110    -0.9318440
  O        3.2020570     1.9012130    -0.2995130
  O        2.7994070    -2.7489470    -0.4002010
  O       -1.3621860     2.3740050     0.1547830
  N       -0.7982440     0.1994180    -0.2292560
  N       -3.0541720     0.8052390     0.2400120
  N       -4.6734100    -0.8124350     0.4126370
  C        2.7015950     0.8755540     0.5594740
  C        1.2368440     1.1072260     0.8878520
  C        2.6518190    -0.3922910    -0.2854700
  C        0.5739580     0.6830040    -0.4149160
  C        2.8020980    -1.6600160     0.5224700
  C       -1.1273370    -1.1158190    -0.3082760
  C       -1.7446880     1.2038920     0.0820450
  C       -2.4289543    -1.4590645    -0.0970288
  C       -3.3619920    -0.4731600     0.1685110
  H        3.3343810     0.7567850     1.4508530
  H        0.9047070     0.4438290     1.6934890
  H        0.9853290     2.1340670     1.1581470
  H        0.5274540     1.5132540    -1.1249130
  H        3.4174920    -0.3642830    -1.0666260
  H        1.9707490    -1.7331840     1.2432230
  H        3.7460890    -1.6095150     1.0882890
  H        3.1038510     2.7463240     0.1779830
  H       -0.2873815    -1.7594409    -0.5447567
  H        2.9100300    -3.5650720     0.1192120
  H       -2.7034680    -2.5490840    -0.1532500
  H       -5.0287110    -1.6377420    -0.0567190
  H       -5.2994710    -0.0137980     0.3861010
units angstrom
no_reorient  #important for SAPT in psi4, default
symmetry c1  #important for SAPT in psi4, default
}

set PROPERTIES_ORIGIN ["COM"]
properties('MP2/aug-cc-pvtz', properties = ['dipole'])
--------------------------------------------------------------------------

    Molecular point group: c1
  Charge       = 0
  Multiplicity = 1
  Basis Set: AUG-CC-PVTZ
    Blend: AUG-CC-PVTZ
  Basis Set: (AUG-CC-PVTZ AUX)
    Blend: AUG-CC-PVTZ-JKFIT

    Orbital Energies [Eh]
    ---------------------

    Doubly Occupied:

       1A    -20.578578     2A    -20.574882     3A    -20.574333
       4A    -20.501436     5A    -15.622673     6A    -15.586869
       7A    -15.539019     8A    -11.368612     9A    -11.340159
      10A    -11.331346    11A    -11.320782    12A    -11.301539
      13A    -11.297747    14A    -11.294027    15A    -11.237460
      16A    -11.236862    17A     -1.417918    18A     -1.382351
      19A     -1.374313    20A     -1.366331    21A     -1.293645
      22A     -1.262070    23A     -1.168492    24A     -1.080110
      25A     -1.070243    26A     -1.029372    27A     -0.929377
      28A     -0.901882    29A     -0.868754    30A     -0.829910
      31A     -0.807425    32A     -0.756174    33A     -0.737920
      34A     -0.721530    35A     -0.707981    36A     -0.693624
      37A     -0.689657    38A     -0.675761    39A     -0.654758
      40A     -0.632701    41A     -0.628575    42A     -0.622206
      43A     -0.605051    44A     -0.597851    45A     -0.588966
      46A     -0.569730    47A     -0.568280    48A     -0.545682
      49A     -0.533228    50A     -0.523726    51A     -0.510971
      52A     -0.486665    53A     -0.482205    54A     -0.469319
      55A     -0.461628    56A     -0.443923    57A     -0.437844
      58A     -0.416110    59A     -0.383939    60A     -0.334309

  @DF-RHF Final Energy:  -811.47477353448198

   => Energetics <=

    Nuclear Repulsion Energy =           1170.9215759606418032
    One-Electron Energy =               -3436.8550366050189950
    Two-Electron Energy =                1454.4586871098952088
    Total Energy =                       -811.4747735344819830
  Basis Set: (AUG-CC-PVTZ AUX)
    Blend: AUG-CC-PVTZ-RI
    Molecular point group: c1

    Geometry (in Angstrom), charge = 0, multiplicity = 1:

       Center              X                  Y                   Z               Mass
    ------------   -----------------  -----------------  -----------------  -----------------
         O            1.362582790017    -0.382547253692    -0.932236282380    15.994914619570
         O            3.202568790017     1.898676746308    -0.299905282380    15.994914619570
         O            2.799918790017    -2.751483253692    -0.400593282380    15.994914619570
         O           -1.361674209983     2.371468746308     0.154390717620    15.994914619570
         N           -0.797732209983     0.196881746308    -0.229648282380    14.003074004430
         N           -3.053660209983     0.802702746308     0.239619717620    14.003074004430
         N           -4.672898209983    -0.814971253692     0.412244717620    14.003074004430
         C            2.702106790017     0.873017746308     0.559081717620    12.000000000000
         C            1.237355790017     1.104689746308     0.887459717620    12.000000000000
         C            2.652330790017    -0.394827253692    -0.285862282380    12.000000000000
         C            0.574469790017     0.680467746308    -0.415308282380    12.000000000000
         C            2.802609790017    -1.662552253692     0.522077717620    12.000000000000
         C           -1.126825209983    -1.118355253692    -0.308668282380    12.000000000000
         C           -1.744176209983     1.201355746308     0.081652717620    12.000000000000
         C           -2.428442509983    -1.461600753692    -0.097421082380    12.000000000000
         C           -3.361480209983    -0.475696253692     0.168118717620    12.000000000000
         H            3.334892790017     0.754248746308     1.450460717620     1.007825032230
         H            0.905218790017     0.441292746308     1.693096717620     1.007825032230
         H            0.985840790017     2.131530746308     1.157754717620     1.007825032230
         H            0.527965790017     1.510717746308    -1.125305282380     1.007825032230
         H            3.418003790017    -0.366819253692    -1.067018282380     1.007825032230
         H            1.971260790017    -1.735720253692     1.242830717620     1.007825032230
         H            3.746600790017    -1.612051253692     1.087896717620     1.007825032230
         H            3.104362790017     2.743787746308     0.177590717620     1.007825032230
         H           -0.286869709983    -1.761977153692    -0.545148982380     1.007825032230
         H            2.910541790017    -3.567608253692     0.118819717620     1.007825032230
         H           -2.702956209983    -2.551620253692    -0.153642282380     1.007825032230
         H           -5.028199209983    -1.640278253692    -0.057111282380     1.007825032230
         H           -5.298959209983    -0.016334253692     0.385708717620     1.007825032230

  Basis Set: AUG-CC-PVTZ
    Blend: AUG-CC-PVTZ
  Basis Set: (AUG-CC-PVTZ AUX)
    Blend: AUG-CC-PVTZ-JKFIT
	 Reference Energy          =    -811.4747735344819830 [Eh]
	 Singles Energy            =      -0.0000000000000000 [Eh]
	 Same-Spin Energy          =      -0.8305393254969212 [Eh]
	 Opposite-Spin Energy      =      -2.5259960356157682 [Eh]
	 Correlation Energy        =      -3.3565353611126896 [Eh]
	 Total Energy              =    -814.8313088955947023 [Eh]

	 ================> DF-SCS-MP2 Energies <==================
	-----------------------------------------------------------
	 SCS Same-Spin Scale       =       0.3333333333333333 [-]
	 SCS Opposite-Spin Scale   =       1.2000000000000000 [-]
	 SCS Same-Spin Energy      =      -0.2768464418323071 [Eh]
	 SCS Opposite-Spin Energy  =      -3.0311952427389217 [Eh]
	 SCS Correlation Energy    =      -3.3080416845712288 [Eh]
	 SCS Total Energy          =    -814.7828152190531910 [Eh]
	-----------------------------------------------------------

  Dipole Moment: [D]
     X:     1.2303      Y:    -4.7015      Z:     2.4657     Total:     5.4496

*** Psi4 exiting successfully. Buy a developer a beer!
