                               Psi4 1.3.2 release

  ==> Input File <==

--------------------------------------------------------------------------
#psi4
#
memory 32 gb

molecule  {
0 1
  O        1.3620710    -0.3800110    -0.9318440
  O        3.2020570     1.9012130    -0.2995130
  O        2.7994070    -2.7489470    -0.4002010
  O       -1.3621860     2.3740050     0.1547830
  N       -0.7982440     0.1994180    -0.2292560
  N       -3.0541720     0.8052390     0.2400120
  N       -4.6734100    -0.8124350     0.4126370
  C        2.7015950     0.8755540     0.5594740
  C        1.2368440     1.1072260     0.8878520
  C        2.6518190    -0.3922910    -0.2854700
  C        0.5739580     0.6830040    -0.4149160
  C        2.8020980    -1.6600160     0.5224700
  C       -1.1273370    -1.1158190    -0.3082760
  C       -1.7446880     1.2038920     0.0820450
  C       -2.4173070    -1.5045610    -0.1045420
  C       -3.3619920    -0.4731600     0.1685110
  H        3.3343810     0.7567850     1.4508530
  H        0.8440537     0.3226826     1.8406105
  H        0.9853290     2.1340670     1.1581470
  H        0.5274540     1.5132540    -1.1249130
  H        3.4174920    -0.3642830    -1.0666260
  H        1.9707490    -1.7331840     1.2432230
  H        3.7460890    -1.6095150     1.0882890
  H        3.1038510     2.7463240     0.1779830
  H       -0.3107400    -1.7892010    -0.5436980
  H        2.9100300    -3.5650720     0.1192120
  H       -2.7034680    -2.5490840    -0.1532500
  H       -5.0287110    -1.6377420    -0.0567190
  H       -5.2994710    -0.0137980     0.3861010
units angstrom
no_reorient  #important for SAPT in psi4, default
symmetry c1  #important for SAPT in psi4, default
}

set PROPERTIES_ORIGIN ["COM"]
properties('MP2/aug-cc-pvtz', properties = ['dipole'])
--------------------------------------------------------------------------

    Molecular point group: c1
  Charge       = 0
  Multiplicity = 1
  Basis Set: AUG-CC-PVTZ
    Blend: AUG-CC-PVTZ
  Basis Set: (AUG-CC-PVTZ AUX)
    Blend: AUG-CC-PVTZ-JKFIT

    Orbital Energies [Eh]
    ---------------------

    Doubly Occupied:

       1A    -20.577231     2A    -20.576991     3A    -20.573651
       4A    -20.503174     5A    -15.621725     6A    -15.588266
       7A    -15.540699     8A    -11.369956     9A    -11.344951
      10A    -11.333370    11A    -11.318200    12A    -11.303013
      13A    -11.296069    14A    -11.293608    15A    -11.259480
      16A    -11.236896    17A     -1.417446    18A     -1.382830
      19A     -1.374315    20A     -1.366574    21A     -1.292197
      22A     -1.261380    23A     -1.169023    24A     -1.076241
      25A     -1.068672    26A     -1.025878    27A     -0.927166
      28A     -0.896926    29A     -0.866878    30A     -0.825539
      31A     -0.807210    32A     -0.753771    33A     -0.737980
      34A     -0.721309    35A     -0.706966    36A     -0.693429
      37A     -0.688116    38A     -0.673363    39A     -0.655727
      40A     -0.636770    41A     -0.624197    42A     -0.615160
      43A     -0.601869    44A     -0.594633    45A     -0.588856
      46A     -0.572954    47A     -0.569394    48A     -0.543721
      49A     -0.528825    50A     -0.523117    51A     -0.499484
      52A     -0.485901    53A     -0.481971    54A     -0.465200
      55A     -0.461990    56A     -0.444864    57A     -0.438091
      58A     -0.416360    59A     -0.383879    60A     -0.335011

  @DF-RHF Final Energy:  -811.45931370203880

   => Energetics <=

    Nuclear Repulsion Energy =           1168.9924281315554708
    One-Electron Energy =               -3433.0265626100422196
    Two-Electron Energy =                1452.5748207764477229
    Total Energy =                       -811.4593137020387985
  Basis Set: (AUG-CC-PVTZ AUX)
    Blend: AUG-CC-PVTZ-RI
    Molecular point group: c1

    Geometry (in Angstrom), charge = 0, multiplicity = 1:

       Center              X                  Y                   Z               Mass
    ------------   -----------------  -----------------  -----------------  -----------------
         O            1.362340162610    -0.379473390969    -0.932496888998    15.994914619570
         O            3.202326162610     1.901750609031    -0.300165888998    15.994914619570
         O            2.799676162610    -2.748409390969    -0.400853888998    15.994914619570
         O           -1.361916837390     2.374542609031     0.154130111002    15.994914619570
         N           -0.797974837390     0.199955609031    -0.229908888998    14.003074004430
         N           -3.053902837390     0.805776609031     0.239359111002    14.003074004430
         N           -4.673140837390    -0.811897390969     0.411984111002    14.003074004430
         C            2.701864162610     0.876091609031     0.558821111002    12.000000000000
         C            1.237113162610     1.107763609031     0.887199111002    12.000000000000
         C            2.652088162610    -0.391753390969    -0.286122888998    12.000000000000
         C            0.574227162610     0.683541609031    -0.415568888998    12.000000000000
         C            2.802367162610    -1.659478390969     0.521817111002    12.000000000000
         C           -1.127067837390    -1.115281390969    -0.308928888998    12.000000000000
         C           -1.744418837390     1.204429609031     0.081392111002    12.000000000000
         C           -2.417037837390    -1.504023390969    -0.105194888998    12.000000000000
         C           -3.361722837390    -0.472622390969     0.167858111002    12.000000000000
         H            3.334650162610     0.757322609031     1.450200111002     1.007825032230
         H            0.844322862610     0.323220209031     1.839957611002     1.007825032230
         H            0.985598162610     2.134604609031     1.157494111002     1.007825032230
         H            0.527723162610     1.513791609031    -1.125565888998     1.007825032230
         H            3.417761162610    -0.363745390969    -1.067278888998     1.007825032230
         H            1.971018162610    -1.732646390969     1.242570111002     1.007825032230
         H            3.746358162610    -1.608977390969     1.087636111002     1.007825032230
         H            3.104120162610     2.746861609031     0.177330111002     1.007825032230
         H           -0.310470837390    -1.788663390969    -0.544350888998     1.007825032230
         H            2.910299162610    -3.564534390969     0.118559111002     1.007825032230
         H           -2.703198837390    -2.548546390969    -0.153902888998     1.007825032230
         H           -5.028441837390    -1.637204390969    -0.057371888998     1.007825032230
         H           -5.299201837390    -0.013260390969     0.385448111002     1.007825032230

  Basis Set: AUG-CC-PVTZ
    Blend: AUG-CC-PVTZ
  Basis Set: (AUG-CC-PVTZ AUX)
    Blend: AUG-CC-PVTZ-JKFIT
	 Reference Energy          =    -811.4593137020387985 [Eh]
	 Singles Energy            =      -0.0000000000000000 [Eh]
	 Same-Spin Energy          =      -0.8299162397319592 [Eh]
	 Opposite-Spin Energy      =      -2.5269736312192990 [Eh]
	 Correlation Energy        =      -3.3568898709512580 [Eh]
	 Total Energy              =    -814.8162035729900481 [Eh]

	 ================> DF-SCS-MP2 Energies <==================
	-----------------------------------------------------------
	 SCS Same-Spin Scale       =       0.3333333333333333 [-]
	 SCS Opposite-Spin Scale   =       1.2000000000000000 [-]
	 SCS Same-Spin Energy      =      -0.2766387465773197 [Eh]
	 SCS Opposite-Spin Energy  =      -3.0323683574631586 [Eh]
	 SCS Correlation Energy    =      -3.3090071040404783 [Eh]
	 SCS Total Energy          =    -814.7683208060792595 [Eh]
	-----------------------------------------------------------

  Dipole Moment: [D]
     X:     1.1069      Y:    -4.6182      Z:     2.4032     Total:     5.3225

*** Psi4 exiting successfully. Buy a developer a beer!
