                               Psi4 1.3.2 release

  ==> Input File <==

--------------------------------------------------------------------------
#psi4
#
memory 32 gb

molecule  {
0 1
  O        1.3620710    -0.3800110    -0.9318440
  O        3.2020570     1.9012130    -0.2995130
  O        2.7994070    -2.7489470    -0.4002010
  O       -1.3621860     2.3740050     0.1547830
  N       -0.7982440     0.1994180    -0.2292560
  N       -3.0541720     0.8052390     0.2400120
  N       -4.6734100    -0.8124350     0.4126370
  C        2.7080880     0.8453233     0.6027774
  C        1.2368440     1.1072260     0.8878520
  C        2.6518190    -0.3922910    -0.2854700
  C        0.5739580     0.6830040    -0.4149160
  C        2.8061602    -1.6306453     0.5660786
  C       -1.1273370    -1.1158190    -0.3082760
  C       -1.7446880     1.2038920     0.0820450
  C       -2.4173070    -1.5045610    -0.1045420
  C       -3.3619920    -0.4731600     0.1685110
  H        3.3343810     0.7567850     1.4508530
  H        0.9047070     0.4438290     1.6934890
  H        0.9853290     2.1340670     1.1581470
  H        0.5274540     1.5132540    -1.1249130
  H        3.4174920    -0.3642830    -1.0666260
  H        1.9707490    -1.7331840     1.2432230
  H        3.7460890    -1.6095150     1.0882890
  H        3.1038510     2.7463240     0.1779830
  H       -0.3107400    -1.7892010    -0.5436980
  H        2.9100300    -3.5650720     0.1192120
  H       -2.7034680    -2.5490840    -0.1532500
  H       -5.0287110    -1.6377420    -0.0567190
  H       -5.2994710    -0.0137980     0.3861010
units angstrom
no_reorient  #important for SAPT in psi4, default
symmetry c1  #important for SAPT in psi4, default
}

set PROPERTIES_ORIGIN ["COM"]
properties('MP2/aug-cc-pvtz', properties = ['dipole'])
--------------------------------------------------------------------------

    Molecular point group: c1
  Charge       = 0
  Multiplicity = 1
  Basis Set: AUG-CC-PVTZ
    Blend: AUG-CC-PVTZ
  Basis Set: (AUG-CC-PVTZ AUX)
    Blend: AUG-CC-PVTZ-JKFIT

    Orbital Energies [Eh]
    ---------------------

    Doubly Occupied:

       1A    -20.575359     2A    -20.572989     3A    -20.569581
       4A    -20.503678     5A    -15.622530     6A    -15.588797
       7A    -15.541333     8A    -11.370541     9A    -11.345578
      10A    -11.332214    11A    -11.318858    12A    -11.300408
      13A    -11.296280    14A    -11.295588    15A    -11.239182
      16A    -11.237608    17A     -1.416056    18A     -1.380998
      19A     -1.355425    20A     -1.351772    21A     -1.292796
      22A     -1.262062    23A     -1.169648    24A     -1.081503
      25A     -1.072042    26A     -1.029271    27A     -0.929397
      28A     -0.898491    29A     -0.869618    30A     -0.831593
      31A     -0.812676    32A     -0.755066    33A     -0.740617
      34A     -0.717855    35A     -0.705219    36A     -0.685846
      37A     -0.681715    38A     -0.676541    39A     -0.657143
      40A     -0.636892    41A     -0.628683    42A     -0.617339
      43A     -0.603084    44A     -0.592741    45A     -0.585953
      46A     -0.573216    47A     -0.567243    48A     -0.541685
      49A     -0.529199    50A     -0.523738    51A     -0.509031
      52A     -0.490562    53A     -0.482694    54A     -0.473161
      55A     -0.464071    56A     -0.447231    57A     -0.439437
      58A     -0.417067    59A     -0.384518    60A     -0.335659

  @DF-RHF Final Energy:  -811.47193405938594

   => Energetics <=

    Nuclear Repulsion Energy =           1169.0295221778883388
    One-Electron Energy =               -3433.1487567689314346
    Two-Electron Energy =                1452.6473005316570379
    Total Energy =                       -811.4719340593860579
  Basis Set: (AUG-CC-PVTZ AUX)
    Blend: AUG-CC-PVTZ-RI
    Molecular point group: c1

    Geometry (in Angstrom), charge = 0, multiplicity = 1:

       Center              X                  Y                   Z               Mass
    ------------   -----------------  -----------------  -----------------  -----------------
         O            1.361513222573    -0.379965592635    -0.936436599608    15.994914619570
         O            3.201499222573     1.901258407365    -0.304105599608    15.994914619570
         O            2.798849222573    -2.748901592635    -0.404793599608    15.994914619570
         O           -1.362743777427     2.374050407365     0.150190400392    15.994914619570
         N           -0.798801777427     0.199463407365    -0.233848599608    14.003074004430
         N           -3.054729777427     0.805284407365     0.235419400392    14.003074004430
         N           -4.673967777427    -0.812389592635     0.408044400392    14.003074004430
         C            2.707530222573     0.845368707365     0.598184800392    12.000000000000
         C            1.236286222573     1.107271407365     0.883259400392    12.000000000000
         C            2.651261222573    -0.392245592635    -0.290062599608    12.000000000000
         C            0.573400222573     0.683049407365    -0.419508599608    12.000000000000
         C            2.805602422573    -1.630599892635     0.561486000392    12.000000000000
         C           -1.127894777427    -1.115773592635    -0.312868599608    12.000000000000
         C           -1.745245777427     1.203937407365     0.077452400392    12.000000000000
         C           -2.417864777427    -1.504515592635    -0.109134599608    12.000000000000
         C           -3.362549777427    -0.473114592635     0.163918400392    12.000000000000
         H            3.333823222573     0.756830407365     1.446260400392     1.007825032230
         H            0.904149222573     0.443874407365     1.688896400392     1.007825032230
         H            0.984771222573     2.134112407365     1.153554400392     1.007825032230
         H            0.526896222573     1.513299407365    -1.129505599608     1.007825032230
         H            3.416934222573    -0.364237592635    -1.071218599608     1.007825032230
         H            1.970191222573    -1.733138592635     1.238630400392     1.007825032230
         H            3.745531222573    -1.609469592635     1.083696400392     1.007825032230
         H            3.103293222573     2.746369407365     0.173390400392     1.007825032230
         H           -0.311297777427    -1.789155592635    -0.548290599608     1.007825032230
         H            2.909472222573    -3.565026592635     0.114619400392     1.007825032230
         H           -2.704025777427    -2.549038592635    -0.157842599608     1.007825032230
         H           -5.029268777427    -1.637696592635    -0.061311599608     1.007825032230
         H           -5.300028777427    -0.013752592635     0.381508400392     1.007825032230

  Basis Set: AUG-CC-PVTZ
    Blend: AUG-CC-PVTZ
  Basis Set: (AUG-CC-PVTZ AUX)
    Blend: AUG-CC-PVTZ-JKFIT
	 Reference Energy          =    -811.4719340593859442 [Eh]
	 Singles Energy            =      -0.0000000000000000 [Eh]
	 Same-Spin Energy          =      -0.8299197477049205 [Eh]
	 Opposite-Spin Energy      =      -2.5270689893031260 [Eh]
	 Correlation Energy        =      -3.3569887370080465 [Eh]
	 Total Energy              =    -814.8289227963939538 [Eh]

	 ================> DF-SCS-MP2 Energies <==================
	-----------------------------------------------------------
	 SCS Same-Spin Scale       =       0.3333333333333333 [-]
	 SCS Opposite-Spin Scale   =       1.2000000000000000 [-]
	 SCS Same-Spin Energy      =      -0.2766399159016402 [Eh]
	 SCS Opposite-Spin Energy  =      -3.0324827871637510 [Eh]
	 SCS Correlation Energy    =      -3.3091227030653911 [Eh]
	 SCS Total Energy          =    -814.7810567624513851 [Eh]
	-----------------------------------------------------------

  Dipole Moment: [D]
     X:     0.9986      Y:    -4.6544      Z:     2.6777     Total:     5.4618

*** Psi4 exiting successfully. Buy a developer a beer!
