                               Psi4 1.3.2 release

  ==> Input File <==

--------------------------------------------------------------------------
#psi4
#
memory 32 gb

molecule  {
0 1
  O        1.3799183    -0.3129968    -0.9617696
  O        3.2020570     1.9012130    -0.2995130
  O        2.7994070    -2.7489470    -0.4002010
  O       -1.3621860     2.3740050     0.1547830
  N       -0.7982440     0.1994180    -0.2292560
  N       -3.0541720     0.8052390     0.2400120
  N       -4.6734100    -0.8124350     0.4126370
  C        2.7015950     0.8755540     0.5594740
  C        1.2368440     1.1072260     0.8878520
  C        2.6518190    -0.3922910    -0.2854700
  C        0.5739580     0.6830040    -0.4149160
  C        2.8741286    -1.6353509     0.5439021
  C       -1.1273370    -1.1158190    -0.3082760
  C       -1.7446880     1.2038920     0.0820450
  C       -2.4173070    -1.5045610    -0.1045420
  C       -3.3619920    -0.4731600     0.1685110
  H        3.3343810     0.7567850     1.4508530
  H        0.9047070     0.4438290     1.6934890
  H        0.9853290     2.1340670     1.1581470
  H        0.5274540     1.5132540    -1.1249130
  H        3.4174920    -0.3642830    -1.0666260
  H        1.9707490    -1.7331840     1.2432230
  H        3.7460890    -1.6095150     1.0882890
  H        3.1038510     2.7463240     0.1779830
  H       -0.3107400    -1.7892010    -0.5436980
  H        2.9100300    -3.5650720     0.1192120
  H       -2.7034680    -2.5490840    -0.1532500
  H       -5.0287110    -1.6377420    -0.0567190
  H       -5.2994710    -0.0137980     0.3861010
units angstrom
no_reorient  #important for SAPT in psi4, default
symmetry c1  #important for SAPT in psi4, default
}

set PROPERTIES_ORIGIN ["COM"]
properties('MP2/aug-cc-pvtz', properties = ['dipole'])
--------------------------------------------------------------------------

    Molecular point group: c1
  Charge       = 0
  Multiplicity = 1
  Basis Set: AUG-CC-PVTZ
    Blend: AUG-CC-PVTZ
  Basis Set: (AUG-CC-PVTZ AUX)
    Blend: AUG-CC-PVTZ-JKFIT

    Orbital Energies [Eh]
    ---------------------

    Doubly Occupied:

       1A    -20.576552     2A    -20.574203     3A    -20.573386
       4A    -20.502480     5A    -15.621469     6A    -15.588361
       7A    -15.540827     8A    -11.369697     9A    -11.345081
      10A    -11.327823    11A    -11.319066    12A    -11.299939
      13A    -11.299340    14A    -11.295633    15A    -11.237365
      16A    -11.235777    17A     -1.422573    18A     -1.381849
      19A     -1.369019    20A     -1.360616    21A     -1.292217
      22A     -1.261563    23A     -1.169030    24A     -1.078543
      25A     -1.071697    26A     -1.029665    27A     -0.930847
      28A     -0.898317    29A     -0.868283    30A     -0.832034
      31A     -0.807849    32A     -0.755311    33A     -0.740338
      34A     -0.717118    35A     -0.707347    36A     -0.696295
      37A     -0.689398    38A     -0.674756    39A     -0.655646
      40A     -0.639209    41A     -0.627578    42A     -0.619550
      43A     -0.603329    44A     -0.593956    45A     -0.590219
      46A     -0.572955    47A     -0.569594    48A     -0.543444
      49A     -0.531382    50A     -0.524061    51A     -0.509825
      52A     -0.483854    53A     -0.482887    54A     -0.469736
      55A     -0.459579    56A     -0.445331    57A     -0.438574
      58A     -0.415565    59A     -0.383414    60A     -0.334752

  @DF-RHF Final Energy:  -811.47081503645495

   => Energetics <=

    Nuclear Repulsion Energy =           1169.1391247243061571
    One-Electron Energy =               -3433.3076715257534488
    Two-Electron Energy =                1452.6977317649925681
    Total Energy =                       -811.4708150364549510
  Basis Set: (AUG-CC-PVTZ AUX)
    Blend: AUG-CC-PVTZ-RI
    Molecular point group: c1

    Geometry (in Angstrom), charge = 0, multiplicity = 1:

       Center              X                  Y                   Z               Mass
    ------------   -----------------  -----------------  -----------------  -----------------
         O            1.374854960418    -0.319020281314    -0.960794306511    15.994914619570
         O            3.196993660418     1.895189518686    -0.298537706511    15.994914619570
         O            2.794343660418    -2.754970481314    -0.399225706511    15.994914619570
         O           -1.367249339582     2.367981518686     0.155758293489    15.994914619570
         N           -0.803307339582     0.193394518686    -0.228280706511    14.003074004430
         N           -3.059235339582     0.799215518686     0.240987293489    14.003074004430
         N           -4.678473339582    -0.818458481314     0.413612293489    14.003074004430
         C            2.696531660418     0.869530518686     0.560449293489    12.000000000000
         C            1.231780660418     1.101202518686     0.888827293489    12.000000000000
         C            2.646755660418    -0.398314481314    -0.284494706511    12.000000000000
         C            0.568894660418     0.676980518686    -0.413940706511    12.000000000000
         C            2.869065260418    -1.641374381314     0.544877393489    12.000000000000
         C           -1.132400339582    -1.121842481314    -0.307300706511    12.000000000000
         C           -1.749751339582     1.197868518686     0.083020293489    12.000000000000
         C           -2.422370339582    -1.510584481314    -0.103566706511    12.000000000000
         C           -3.367055339582    -0.479183481314     0.169486293489    12.000000000000
         H            3.329317660418     0.750761518686     1.451828293489     1.007825032230
         H            0.899643660418     0.437805518686     1.694464293489     1.007825032230
         H            0.980265660418     2.128043518686     1.159122293489     1.007825032230
         H            0.522390660418     1.507230518686    -1.123937706511     1.007825032230
         H            3.412428660418    -0.370306481314    -1.065650706511     1.007825032230
         H            1.965685660418    -1.739207481314     1.244198293489     1.007825032230
         H            3.741025660418    -1.615538481314     1.089264293489     1.007825032230
         H            3.098787660418     2.740300518686     0.178958293489     1.007825032230
         H           -0.315803339582    -1.795224481314    -0.542722706511     1.007825032230
         H            2.904966660418    -3.571095481314     0.120187293489     1.007825032230
         H           -2.708531339582    -2.555107481314    -0.152274706511     1.007825032230
         H           -5.033774339582    -1.643765481314    -0.055743706511     1.007825032230
         H           -5.304534339582    -0.019821481314     0.387076293489     1.007825032230

  Basis Set: AUG-CC-PVTZ
    Blend: AUG-CC-PVTZ
  Basis Set: (AUG-CC-PVTZ AUX)
    Blend: AUG-CC-PVTZ-JKFIT
	 Reference Energy          =    -811.4708150364549510 [Eh]
	 Singles Energy            =      -0.0000000000000000 [Eh]
	 Same-Spin Energy          =      -0.8296783456263501 [Eh]
	 Opposite-Spin Energy      =      -2.5253645064387236 [Eh]
	 Correlation Energy        =      -3.3550428520650737 [Eh]
	 Total Energy              =    -814.8258578885199768 [Eh]

	 ================> DF-SCS-MP2 Energies <==================
	-----------------------------------------------------------
	 SCS Same-Spin Scale       =       0.3333333333333333 [-]
	 SCS Opposite-Spin Scale   =       1.2000000000000000 [-]
	 SCS Same-Spin Energy      =      -0.2765594485421167 [Eh]
	 SCS Opposite-Spin Energy  =      -3.0304374077264682 [Eh]
	 SCS Correlation Energy    =      -3.3069968562685848 [Eh]
	 SCS Total Energy          =    -814.7778118927235482 [Eh]
	-----------------------------------------------------------

  Dipole Moment: [D]
     X:     1.1725      Y:    -4.7303      Z:     2.5805     Total:     5.5145

*** Psi4 exiting successfully. Buy a developer a beer!
