                               Psi4 1.3.2 release

  ==> Input File <==

--------------------------------------------------------------------------
#psi4
#
memory 32 gb

molecule  {
0 1
  O        1.3620710    -0.3800110    -0.9318440
  O        3.2020570     1.9012130    -0.2995130
  O        2.7994070    -2.7489470    -0.4002010
  O       -1.3621860     2.3740050     0.1547830
  N       -0.7982440     0.1994180    -0.2292560
  N       -3.0541720     0.8052390     0.2400120
  N       -4.6734100    -0.8124350     0.4126370
  C        2.7015950     0.8755540     0.5594740
  C        1.2368440     1.1072260     0.8878520
  C        2.6518190    -0.3922910    -0.2854700
  C        0.5815432     0.6590067    -0.4195949
  C        2.8020980    -1.6600160     0.5224700
  C       -1.1273370    -1.1158190    -0.3082760
  C       -1.7623572     1.1866660     0.0829293
  C       -2.4173070    -1.5045610    -0.1045420
  C       -3.3619920    -0.4731600     0.1685110
  H        3.3343810     0.7567850     1.4508530
  H        0.9047070     0.4438290     1.6934890
  H        0.9853290     2.1340670     1.1581470
  H        0.5274540     1.5132540    -1.1249130
  H        3.4174920    -0.3642830    -1.0666260
  H        1.9707490    -1.7331840     1.2432230
  H        3.7460890    -1.6095150     1.0882890
  H        3.1038510     2.7463240     0.1779830
  H       -0.3107400    -1.7892010    -0.5436980
  H        2.9100300    -3.5650720     0.1192120
  H       -2.7034680    -2.5490840    -0.1532500
  H       -5.0287110    -1.6377420    -0.0567190
  H       -5.2994710    -0.0137980     0.3861010
units angstrom
no_reorient  #important for SAPT in psi4, default
symmetry c1  #important for SAPT in psi4, default
}

set PROPERTIES_ORIGIN ["COM"]
properties('MP2/aug-cc-pvtz', properties = ['dipole'])
--------------------------------------------------------------------------

    Molecular point group: c1
  Charge       = 0
  Multiplicity = 1
  Basis Set: AUG-CC-PVTZ
    Blend: AUG-CC-PVTZ
  Basis Set: (AUG-CC-PVTZ AUX)
    Blend: AUG-CC-PVTZ-JKFIT

    Orbital Energies [Eh]
    ---------------------

    Doubly Occupied:

       1A    -20.578574     2A    -20.575374     3A    -20.573802
       4A    -20.496140     5A    -15.622660     6A    -15.590439
       7A    -15.542621     8A    -11.368898     9A    -11.347863
      10A    -11.330593    11A    -11.319048    12A    -11.300492
      13A    -11.297811    14A    -11.294651    15A    -11.238151
      16A    -11.235704    17A     -1.423052    18A     -1.376274
      19A     -1.373841    20A     -1.365126    21A     -1.288585
      22A     -1.261490    23A     -1.175047    24A     -1.078203
      25A     -1.070501    26A     -1.028039    27A     -0.927086
      28A     -0.897989    29A     -0.871198    30A     -0.832526
      31A     -0.807412    32A     -0.756567    33A     -0.739646
      34A     -0.721574    35A     -0.707542    36A     -0.693802
      37A     -0.689129    38A     -0.676750    39A     -0.658577
      40A     -0.637170    41A     -0.627664    42A     -0.617171
      43A     -0.602995    44A     -0.596706    45A     -0.587575
      46A     -0.571612    47A     -0.569538    48A     -0.545704
      49A     -0.532369    50A     -0.523492    51A     -0.507269
      52A     -0.486872    53A     -0.478615    54A     -0.469196
      55A     -0.460612    56A     -0.440745    57A     -0.436313
      58A     -0.417038    59A     -0.384207    60A     -0.334605

  @DF-RHF Final Energy:  -811.47738725749377

   => Energetics <=

    Nuclear Repulsion Energy =           1170.1639959575056764
    One-Electron Energy =               -3435.3622760707212365
    Two-Electron Energy =                1453.7208928557215586
    Total Energy =                       -811.4773872574937741
  Basis Set: (AUG-CC-PVTZ AUX)
    Blend: AUG-CC-PVTZ-RI
    Molecular point group: c1

    Geometry (in Angstrom), charge = 0, multiplicity = 1:

       Center              X                  Y                   Z               Mass
    ------------   -----------------  -----------------  -----------------  -----------------
         O            1.362603846287    -0.377832701236    -0.931643450214    15.994914619570
         O            3.202589846287     1.903391298764    -0.299312450214    15.994914619570
         O            2.799939846287    -2.746768701236    -0.400000450214    15.994914619570
         O           -1.361653153713     2.376183298764     0.154983549786    15.994914619570
         N           -0.797711153713     0.201596298764    -0.229055450214    14.003074004430
         N           -3.053639153713     0.807417298764     0.240212549786    14.003074004430
         N           -4.672877153713    -0.810256701236     0.412837549786    14.003074004430
         C            2.702127846287     0.877732298764     0.559674549786    12.000000000000
         C            1.237376846287     1.109404298764     0.888052549786    12.000000000000
         C            2.652351846287    -0.390112701236    -0.285269450214    12.000000000000
         C            0.582076046287     0.661184998764    -0.419394350214    12.000000000000
         C            2.802630846287    -1.657837701236     0.522670549786    12.000000000000
         C           -1.126804153713    -1.113640701236    -0.308075450214    12.000000000000
         C           -1.761824353713     1.188844298764     0.083129849786    12.000000000000
         C           -2.416774153713    -1.502382701236    -0.104341450214    12.000000000000
         C           -3.361459153713    -0.470981701236     0.168711549786    12.000000000000
         H            3.334913846287     0.758963298764     1.451053549786     1.007825032230
         H            0.905239846287     0.446007298764     1.693689549786     1.007825032230
         H            0.985861846287     2.136245298764     1.158347549786     1.007825032230
         H            0.527986846287     1.515432298764    -1.124712450214     1.007825032230
         H            3.418024846287    -0.362104701236    -1.066425450214     1.007825032230
         H            1.971281846287    -1.731005701236     1.243423549786     1.007825032230
         H            3.746621846287    -1.607336701236     1.088489549786     1.007825032230
         H            3.104383846287     2.748502298764     0.178183549786     1.007825032230
         H           -0.310207153713    -1.787022701236    -0.543497450214     1.007825032230
         H            2.910562846287    -3.562893701236     0.119412549786     1.007825032230
         H           -2.702935153713    -2.546905701236    -0.153049450214     1.007825032230
         H           -5.028178153713    -1.635563701236    -0.056518450214     1.007825032230
         H           -5.298938153713    -0.011619701236     0.386301549786     1.007825032230

  Basis Set: AUG-CC-PVTZ
    Blend: AUG-CC-PVTZ
  Basis Set: (AUG-CC-PVTZ AUX)
    Blend: AUG-CC-PVTZ-JKFIT
	 Reference Energy          =    -811.4773872574937741 [Eh]
	 Singles Energy            =      -0.0000000000000000 [Eh]
	 Same-Spin Energy          =      -0.8300466991532975 [Eh]
	 Opposite-Spin Energy      =      -2.5252992543956969 [Eh]
	 Correlation Energy        =      -3.3553459535489942 [Eh]
	 Total Energy              =    -814.8327332110427506 [Eh]

	 ================> DF-SCS-MP2 Energies <==================
	-----------------------------------------------------------
	 SCS Same-Spin Scale       =       0.3333333333333333 [-]
	 SCS Opposite-Spin Scale   =       1.2000000000000000 [-]
	 SCS Same-Spin Energy      =      -0.2766822330510992 [Eh]
	 SCS Opposite-Spin Energy  =      -3.0303591052748362 [Eh]
	 SCS Correlation Energy    =      -3.3070413383259352 [Eh]
	 SCS Total Energy          =    -814.7844285958196906 [Eh]
	-----------------------------------------------------------

  Dipole Moment: [D]
     X:     1.0280      Y:    -4.9405      Z:     2.4749     Total:     5.6205

*** Psi4 exiting successfully. Buy a developer a beer!
