                               Psi4 1.3.2 release

  ==> Input File <==

--------------------------------------------------------------------------
#psi4
#
memory 32 gb

molecule  {
0 1
  O        1.3544259    -0.3808795    -0.9415652
  O        3.2020570     1.9012130    -0.2995130
  O        2.7994070    -2.7489470    -0.4002010
  O       -1.3621860     2.3740050     0.1547830
  N       -0.7982440     0.1994180    -0.2292560
  N       -3.0541720     0.8052390     0.2400120
  N       -4.6734100    -0.8124350     0.4126370
  C        2.7015950     0.8755540     0.5594740
  C        1.2274707     1.1164841     0.8895390
  C        2.6518190    -0.3922910    -0.2854700
  C        0.5739580     0.6830040    -0.4149160
  C        2.8020980    -1.6600160     0.5224700
  C       -1.1273370    -1.1158190    -0.3082760
  C       -1.7446880     1.2038920     0.0820450
  C       -2.4173070    -1.5045610    -0.1045420
  C       -3.3619920    -0.4731600     0.1685110
  H        3.3343810     0.7567850     1.4508530
  H        0.9047070     0.4438290     1.6934890
  H        0.9853290     2.1340670     1.1581470
  H        0.5274540     1.5132540    -1.1249130
  H        3.4174920    -0.3642830    -1.0666260
  H        1.9707490    -1.7331840     1.2432230
  H        3.7460890    -1.6095150     1.0882890
  H        3.1038510     2.7463240     0.1779830
  H       -0.3107400    -1.7892010    -0.5436980
  H        2.9100300    -3.5650720     0.1192120
  H       -2.7034680    -2.5490840    -0.1532500
  H       -5.0287110    -1.6377420    -0.0567190
  H       -5.2994710    -0.0137980     0.3861010
units angstrom
no_reorient  #important for SAPT in psi4, default
symmetry c1  #important for SAPT in psi4, default
}

set PROPERTIES_ORIGIN ["COM"]
properties('MP2/aug-cc-pvtz', properties = ['dipole'])
--------------------------------------------------------------------------

    Molecular point group: c1
  Charge       = 0
  Multiplicity = 1
  Basis Set: AUG-CC-PVTZ
    Blend: AUG-CC-PVTZ
  Basis Set: (AUG-CC-PVTZ AUX)
    Blend: AUG-CC-PVTZ-JKFIT

    Orbital Energies [Eh]
    ---------------------

    Doubly Occupied:

       1A    -20.578124     2A    -20.574512     3A    -20.573469
       4A    -20.502718     5A    -15.621084     6A    -15.588060
       7A    -15.540439     8A    -11.369459     9A    -11.344669
      10A    -11.330211    11A    -11.317832    12A    -11.302013
      13A    -11.297656    14A    -11.294335    15A    -11.236940
      16A    -11.236621    17A     -1.414433    18A     -1.382018
      19A     -1.373847    20A     -1.365330    21A     -1.291778
      22A     -1.260775    23A     -1.168715    24A     -1.078443
      25A     -1.068663    26A     -1.027485    27A     -0.926360
      28A     -0.896997    29A     -0.869121    30A     -0.830516
      31A     -0.806295    32A     -0.753945    33A     -0.738034
      34A     -0.720837    35A     -0.706574    36A     -0.693050
      37A     -0.689293    38A     -0.675168    39A     -0.655849
      40A     -0.636520    41A     -0.627208    42A     -0.618124
      43A     -0.604297    44A     -0.594481    45A     -0.588496
      46A     -0.572276    47A     -0.568188    48A     -0.546119
      49A     -0.532449    50A     -0.525102    51A     -0.510409
      52A     -0.486845    53A     -0.481788    54A     -0.468588
      55A     -0.460698    56A     -0.444234    57A     -0.437990
      58A     -0.415930    59A     -0.383357    60A     -0.334543

  @DF-RHF Final Energy:  -811.47873206514726

   => Energetics <=

    Nuclear Repulsion Energy =           1169.5416817823577276
    One-Electron Energy =               -3434.1622123468741847
    Two-Electron Energy =                1453.1417984993690879
    Total Energy =                       -811.4787320651471418
  Basis Set: (AUG-CC-PVTZ AUX)
    Blend: AUG-CC-PVTZ-RI
    Molecular point group: c1

    Geometry (in Angstrom), charge = 0, multiplicity = 1:

       Center              X                  Y                   Z               Mass
    ------------   -----------------  -----------------  -----------------  -----------------
         O            1.355459666707    -0.381307584773    -0.940969607171    15.994914619570
         O            3.203090766707     1.900784915227    -0.298917407171    15.994914619570
         O            2.800440766707    -2.749375084773    -0.399605407171    15.994914619570
         O           -1.361152233293     2.373576915227     0.155378592829    15.994914619570
         N           -0.797210233293     0.198989915227    -0.228660407171    14.003074004430
         N           -3.053138233293     0.804810915227     0.240607592829    14.003074004430
         N           -4.672376233293    -0.812863084773     0.413232592829    14.003074004430
         C            2.702628766707     0.875125915227     0.560069592829    12.000000000000
         C            1.228504466707     1.116056015227     0.890134592829    12.000000000000
         C            2.652852766707    -0.392719084773    -0.284874407171    12.000000000000
         C            0.574991766707     0.682575915227    -0.414320407171    12.000000000000
         C            2.803131766707    -1.660444084773     0.523065592829    12.000000000000
         C           -1.126303233293    -1.116247084773    -0.307680407171    12.000000000000
         C           -1.743654233293     1.203463915227     0.082640592829    12.000000000000
         C           -2.416273233293    -1.504989084773    -0.103946407171    12.000000000000
         C           -3.360958233293    -0.473588084773     0.169106592829    12.000000000000
         H            3.335414766707     0.756356915227     1.451448592829     1.007825032230
         H            0.905740766707     0.443400915227     1.694084592829     1.007825032230
         H            0.986362766707     2.133638915227     1.158742592829     1.007825032230
         H            0.528487766707     1.512825915227    -1.124317407171     1.007825032230
         H            3.418525766707    -0.364711084773    -1.066030407171     1.007825032230
         H            1.971782766707    -1.733612084773     1.243818592829     1.007825032230
         H            3.747122766707    -1.609943084773     1.088884592829     1.007825032230
         H            3.104884766707     2.745895915227     0.178578592829     1.007825032230
         H           -0.309706233293    -1.789629084773    -0.543102407171     1.007825032230
         H            2.911063766707    -3.565500084773     0.119807592829     1.007825032230
         H           -2.702434233293    -2.549512084773    -0.152654407171     1.007825032230
         H           -5.027677233293    -1.638170084773    -0.056123407171     1.007825032230
         H           -5.298437233293    -0.014226084773     0.386696592829     1.007825032230

  Basis Set: AUG-CC-PVTZ
    Blend: AUG-CC-PVTZ
  Basis Set: (AUG-CC-PVTZ AUX)
    Blend: AUG-CC-PVTZ-JKFIT
	 Reference Energy          =    -811.4787320651472555 [Eh]
	 Singles Energy            =      -0.0000000000000000 [Eh]
	 Same-Spin Energy          =      -0.8296537331555618 [Eh]
	 Opposite-Spin Energy      =      -2.5254228710587800 [Eh]
	 Correlation Energy        =      -3.3550766042143421 [Eh]
	 Total Energy              =    -814.8338086693615878 [Eh]

	 ================> DF-SCS-MP2 Energies <==================
	-----------------------------------------------------------
	 SCS Same-Spin Scale       =       0.3333333333333333 [-]
	 SCS Opposite-Spin Scale   =       1.2000000000000000 [-]
	 SCS Same-Spin Energy      =      -0.2765512443851872 [Eh]
	 SCS Opposite-Spin Energy  =      -3.0305074452705361 [Eh]
	 SCS Correlation Energy    =      -3.3070586896557232 [Eh]
	 SCS Total Energy          =    -814.7857907548029743 [Eh]
	-----------------------------------------------------------

  Dipole Moment: [D]
     X:     1.1382      Y:    -4.6789      Z:     2.5113     Total:     5.4309

*** Psi4 exiting successfully. Buy a developer a beer!
