                               Psi4 1.3.2 release

  ==> Input File <==

--------------------------------------------------------------------------
#psi4
#
memory 32 gb

molecule  {
0 1
  O        1.3620710    -0.3800110    -0.9318440
  O        3.2020570     1.9012130    -0.2995130
  O        2.7994070    -2.7489470    -0.4002010
  O       -1.3621860     2.3740050     0.1547830
  N       -0.7982440     0.1994180    -0.2292560
  N       -3.0541720     0.8052390     0.2400120
  N       -4.6734100    -0.8124350     0.4126370
  C        2.7015950     0.8755540     0.5594740
  C        1.2368440     1.1072260     0.8878520
  C        2.6518190    -0.3922910    -0.2854700
  C        0.5739580     0.6830040    -0.4149160
  C        2.8020980    -1.6600160     0.5224700
  C       -1.1497691    -1.1103121    -0.3029566
  C       -1.7621934     1.1865620     0.0837629
  C       -2.4173070    -1.5045610    -0.1045420
  C       -3.3619920    -0.4731600     0.1685110
  H        3.3343810     0.7567850     1.4508530
  H        0.9047070     0.4438290     1.6934890
  H        0.9853290     2.1340670     1.1581470
  H        0.5274540     1.5132540    -1.1249130
  H        3.4174920    -0.3642830    -1.0666260
  H        1.9707490    -1.7331840     1.2432230
  H        3.7460890    -1.6095150     1.0882890
  H        3.1038510     2.7463240     0.1779830
  H       -0.3107400    -1.7892010    -0.5436980
  H        2.9100300    -3.5650720     0.1192120
  H       -2.7034680    -2.5490840    -0.1532500
  H       -5.0287110    -1.6377420    -0.0567190
  H       -5.2994710    -0.0137980     0.3861010
units angstrom
no_reorient  #important for SAPT in psi4, default
symmetry c1  #important for SAPT in psi4, default
}

set PROPERTIES_ORIGIN ["COM"]
properties('MP2/aug-cc-pvtz', properties = ['dipole'])
--------------------------------------------------------------------------

    Molecular point group: c1
  Charge       = 0
  Multiplicity = 1
  Basis Set: AUG-CC-PVTZ
    Blend: AUG-CC-PVTZ
  Basis Set: (AUG-CC-PVTZ AUX)
    Blend: AUG-CC-PVTZ-JKFIT

    Orbital Energies [Eh]
    ---------------------

    Doubly Occupied:

       1A    -20.577412     2A    -20.573631     3A    -20.572432
       4A    -20.496433     5A    -15.621700     6A    -15.591405
       7A    -15.542989     8A    -11.368400     9A    -11.348761
      10A    -11.330872    11A    -11.317252    12A    -11.300135
      13A    -11.296456    14A    -11.292574    15A    -11.236996
      16A    -11.235832    17A     -1.415598    18A     -1.376302
      19A     -1.373084    20A     -1.362982    21A     -1.289571
      22A     -1.261011    23A     -1.175591    24A     -1.080880
      25A     -1.070806    26A     -1.029073    27A     -0.927334
      28A     -0.894895    29A     -0.871323    30A     -0.832984
      31A     -0.806226    32A     -0.757548    33A     -0.738638
      34A     -0.720527    35A     -0.706725    36A     -0.692364
      37A     -0.688931    38A     -0.675196    39A     -0.656104
      40A     -0.638373    41A     -0.627810    42A     -0.615339
      43A     -0.602342    44A     -0.595282    45A     -0.585273
      46A     -0.572753    47A     -0.568360    48A     -0.544368
      49A     -0.532279    50A     -0.523037    51A     -0.508452
      52A     -0.485134    53A     -0.479461    54A     -0.468082
      55A     -0.460360    56A     -0.441771    57A     -0.437187
      58A     -0.416791    59A     -0.385361    60A     -0.337796

  @DF-RHF Final Energy:  -811.47735379181790

   => Energetics <=

    Nuclear Repulsion Energy =           1170.0572912626573725
    One-Electron Energy =               -3435.2041233453087443
    Two-Electron Energy =                1453.6694782908336947
    Total Energy =                       -811.4773537918179045
  Basis Set: (AUG-CC-PVTZ AUX)
    Blend: AUG-CC-PVTZ-RI
    Molecular point group: c1

    Geometry (in Angstrom), charge = 0, multiplicity = 1:

       Center              X                  Y                   Z               Mass
    ------------   -----------------  -----------------  -----------------  -----------------
         O            1.364181375215    -0.379386276729    -0.932215833204    15.994914619570
         O            3.204167375215     1.901837723271    -0.299884833204    15.994914619570
         O            2.801517375215    -2.748322276729    -0.400572833204    15.994914619570
         O           -1.360075624785     2.374629723271     0.154411166796    15.994914619570
         N           -0.796133624785     0.200042723271    -0.229627833204    14.003074004430
         N           -3.052061624785     0.805863723271     0.239640166796    14.003074004430
         N           -4.671299624785    -0.811810276729     0.412265166796    14.003074004430
         C            2.703705375215     0.876178723271     0.559102166796    12.000000000000
         C            1.238954375215     1.107850723271     0.887480166796    12.000000000000
         C            2.653929375215    -0.391666276729    -0.285841833204    12.000000000000
         C            0.576068375215     0.683628723271    -0.415287833204    12.000000000000
         C            2.804208375215    -1.659391276729     0.522098166796    12.000000000000
         C           -1.147658724785    -1.109687376729    -0.303328433204    12.000000000000
         C           -1.760083024785     1.187186723271     0.083391066796    12.000000000000
         C           -2.415196624785    -1.503936276729    -0.104913833204    12.000000000000
         C           -3.359881624785    -0.472535276729     0.168139166796    12.000000000000
         H            3.336491375215     0.757409723271     1.450481166796     1.007825032230
         H            0.906817375215     0.444453723271     1.693117166796     1.007825032230
         H            0.987439375215     2.134691723271     1.157775166796     1.007825032230
         H            0.529564375215     1.513878723271    -1.125284833204     1.007825032230
         H            3.419602375215    -0.363658276729    -1.066997833204     1.007825032230
         H            1.972859375215    -1.732559276729     1.242851166796     1.007825032230
         H            3.748199375215    -1.608890276729     1.087917166796     1.007825032230
         H            3.105961375215     2.746948723271     0.177611166796     1.007825032230
         H           -0.308629624785    -1.788576276729    -0.544069833204     1.007825032230
         H            2.912140375215    -3.564447276729     0.118840166796     1.007825032230
         H           -2.701357624785    -2.548459276729    -0.153621833204     1.007825032230
         H           -5.026600624785    -1.637117276729    -0.057090833204     1.007825032230
         H           -5.297360624785    -0.013173276729     0.385729166796     1.007825032230

  Basis Set: AUG-CC-PVTZ
    Blend: AUG-CC-PVTZ
  Basis Set: (AUG-CC-PVTZ AUX)
    Blend: AUG-CC-PVTZ-JKFIT
	 Reference Energy          =    -811.4773537918179045 [Eh]
	 Singles Energy            =      -0.0000000000000000 [Eh]
	 Same-Spin Energy          =      -0.8298420389261232 [Eh]
	 Opposite-Spin Energy      =      -2.5252299523681803 [Eh]
	 Correlation Energy        =      -3.3550719912943032 [Eh]
	 Total Energy              =    -814.8324257831121713 [Eh]

	 ================> DF-SCS-MP2 Energies <==================
	-----------------------------------------------------------
	 SCS Same-Spin Scale       =       0.3333333333333333 [-]
	 SCS Opposite-Spin Scale   =       1.2000000000000000 [-]
	 SCS Same-Spin Energy      =      -0.2766140129753744 [Eh]
	 SCS Opposite-Spin Energy  =      -3.0302759428418162 [Eh]
	 SCS Correlation Energy    =      -3.3068899558171907 [Eh]
	 SCS Total Energy          =    -814.7842437476350597 [Eh]
	-----------------------------------------------------------

  Dipole Moment: [D]
     X:     0.8990      Y:    -4.8863      Z:     2.4949     Total:     5.5595

*** Psi4 exiting successfully. Buy a developer a beer!
