                               Psi4 1.3.2 release

  ==> Input File <==

--------------------------------------------------------------------------
#psi4
#
memory 32 gb

molecule  {
0 1
  O        1.3854171    -0.3785275    -0.9764380
  O        3.2020570     1.9012130    -0.2995130
  O        2.7994070    -2.7489470    -0.4002010
  O       -1.3621860     2.3740050     0.1547830
  N       -0.7982440     0.1994180    -0.2292560
  N       -3.0541720     0.8052390     0.2400120
  N       -4.6734100    -0.8124350     0.4126370
  C        2.7015950     0.8755540     0.5594740
  C        1.2368440     1.1072260     0.8878520
  C        2.6518190    -0.3922910    -0.2854700
  C        0.5739580     0.6830040    -0.4149160
  C        2.8020980    -1.6600160     0.5224700
  C       -1.1273370    -1.1158190    -0.3082760
  C       -1.7446880     1.2038920     0.0820450
  C       -2.4173070    -1.5045610    -0.1045420
  C       -3.3619920    -0.4731600     0.1685110
  H        3.3343810     0.7567850     1.4508530
  H        0.9047070     0.4438290     1.6934890
  H        0.9853290     2.1340670     1.1581470
  H        0.5274540     1.5132540    -1.1249130
  H        3.3897470    -0.3636451    -1.0928646
  H        1.9707490    -1.7331840     1.2432230
  H        3.7460890    -1.6095150     1.0882890
  H        3.1038510     2.7463240     0.1779830
  H       -0.3107400    -1.7892010    -0.5436980
  H        2.9100300    -3.5650720     0.1192120
  H       -2.7034680    -2.5490840    -0.1532500
  H       -5.0287110    -1.6377420    -0.0567190
  H       -5.2994710    -0.0137980     0.3861010
units angstrom
no_reorient  #important for SAPT in psi4, default
symmetry c1  #important for SAPT in psi4, default
}

set PROPERTIES_ORIGIN ["COM"]
properties('MP2/aug-cc-pvtz', properties = ['dipole'])
--------------------------------------------------------------------------

    Molecular point group: c1
  Charge       = 0
  Multiplicity = 1
  Basis Set: AUG-CC-PVTZ
    Blend: AUG-CC-PVTZ
  Basis Set: (AUG-CC-PVTZ AUX)
    Blend: AUG-CC-PVTZ-JKFIT

    Orbital Energies [Eh]
    ---------------------

    Doubly Occupied:

       1A    -20.577318     2A    -20.574188     3A    -20.572639
       4A    -20.503728     5A    -15.622977     6A    -15.588874
       7A    -15.541501     8A    -11.370735     9A    -11.345688
      10A    -11.332364    11A    -11.319122    12A    -11.301255
      13A    -11.296828    14A    -11.290967    15A    -11.238486
      16A    -11.237722    17A     -1.409619    18A     -1.382796
      19A     -1.373205    20A     -1.363087    21A     -1.292929
      22A     -1.262303    23A     -1.169793    24A     -1.080493
      25A     -1.067669    26A     -1.026866    27A     -0.927027
      28A     -0.897753    29A     -0.869228    30A     -0.830117
      31A     -0.805738    32A     -0.754831    33A     -0.737661
      34A     -0.719711    35A     -0.707014    36A     -0.691560
      37A     -0.689389    38A     -0.674082    39A     -0.654986
      40A     -0.637198    41A     -0.628010    42A     -0.618710
      43A     -0.605388    44A     -0.594736    45A     -0.588343
      46A     -0.572544    47A     -0.562348    48A     -0.545730
      49A     -0.533128    50A     -0.523950    51A     -0.510836
      52A     -0.486205    53A     -0.482869    54A     -0.468300
      55A     -0.460487    56A     -0.445007    57A     -0.438106
      58A     -0.417011    59A     -0.384399    60A     -0.335684

  @DF-RHF Final Energy:  -811.47679133915790

   => Energetics <=

    Nuclear Repulsion Energy =           1168.7079089475903402
    One-Electron Energy =               -3432.4869238796154605
    Two-Electron Energy =                1452.3022235928674490
    Total Energy =                       -811.4767913391578986
  Basis Set: (AUG-CC-PVTZ AUX)
    Blend: AUG-CC-PVTZ-RI
    Molecular point group: c1

    Geometry (in Angstrom), charge = 0, multiplicity = 1:

       Center              X                  Y                   Z               Mass
    ------------   -----------------  -----------------  -----------------  -----------------
         O            1.383895855283    -0.378634856979    -0.973180582504    15.994914619570
         O            3.200535755283     1.901105643021    -0.296255582504    15.994914619570
         O            2.797885755283    -2.749054356979    -0.396943582504    15.994914619570
         O           -1.363707244717     2.373897643021     0.158040417496    15.994914619570
         N           -0.799765244717     0.199310643021    -0.225998582504    14.003074004430
         N           -3.055693244717     0.805131643021     0.243269417496    14.003074004430
         N           -4.674931244717    -0.812542356979     0.415894417496    14.003074004430
         C            2.700073755283     0.875446643021     0.562731417496    12.000000000000
         C            1.235322755283     1.107118643021     0.891109417496    12.000000000000
         C            2.650297755283    -0.392398356979    -0.282212582504    12.000000000000
         C            0.572436755283     0.682896643021    -0.411658582504    12.000000000000
         C            2.800576755283    -1.660123356979     0.525727417496    12.000000000000
         C           -1.128858244717    -1.115926356979    -0.305018582504    12.000000000000
         C           -1.746209244717     1.203784643021     0.085302417496    12.000000000000
         C           -2.418828244717    -1.504668356979    -0.101284582504    12.000000000000
         C           -3.363513244717    -0.473267356979     0.171768417496    12.000000000000
         H            3.332859755283     0.756677643021     1.454110417496     1.007825032230
         H            0.903185755283     0.443721643021     1.696746417496     1.007825032230
         H            0.983807755283     2.133959643021     1.161404417496     1.007825032230
         H            0.525932755283     1.513146643021    -1.121655582504     1.007825032230
         H            3.388225755283    -0.363752456979    -1.089607182504     1.007825032230
         H            1.969227755283    -1.733291356979     1.246480417496     1.007825032230
         H            3.744567755283    -1.609622356979     1.091546417496     1.007825032230
         H            3.102329755283     2.746216643021     0.181240417496     1.007825032230
         H           -0.312261244717    -1.789308356979    -0.540440582504     1.007825032230
         H            2.908508755283    -3.565179356979     0.122469417496     1.007825032230
         H           -2.704989244717    -2.549191356979    -0.149992582504     1.007825032230
         H           -5.030232244717    -1.637849356979    -0.053461582504     1.007825032230
         H           -5.300992244717    -0.013905356979     0.389358417496     1.007825032230

  Basis Set: AUG-CC-PVTZ
    Blend: AUG-CC-PVTZ
  Basis Set: (AUG-CC-PVTZ AUX)
    Blend: AUG-CC-PVTZ-JKFIT
	 Reference Energy          =    -811.4767913391578986 [Eh]
	 Singles Energy            =      -0.0000000000000000 [Eh]
	 Same-Spin Energy          =      -0.8298224074645761 [Eh]
	 Opposite-Spin Energy      =      -2.5260769340367890 [Eh]
	 Correlation Energy        =      -3.3558993415013649 [Eh]
	 Total Energy              =    -814.8326906806593115 [Eh]

	 ================> DF-SCS-MP2 Energies <==================
	-----------------------------------------------------------
	 SCS Same-Spin Scale       =       0.3333333333333333 [-]
	 SCS Opposite-Spin Scale   =       1.2000000000000000 [-]
	 SCS Same-Spin Energy      =      -0.2766074691548587 [Eh]
	 SCS Opposite-Spin Energy  =      -3.0312923208441469 [Eh]
	 SCS Correlation Energy    =      -3.3078997899990057 [Eh]
	 SCS Total Energy          =    -814.7846911291569540 [Eh]
	-----------------------------------------------------------

  Dipole Moment: [D]
     X:     0.9652      Y:    -4.6489      Z:     2.5698     Total:     5.3989

*** Psi4 exiting successfully. Buy a developer a beer!
