                               Psi4 1.3.2 release

  ==> Input File <==

--------------------------------------------------------------------------
#psi4
#
memory 32 gb

molecule  {
0 1
  O        1.3620710    -0.3800110    -0.9318440
  O        3.2020570     1.9012130    -0.2995130
  O        2.7915928    -2.6994197    -0.4556043
  O       -1.3621860     2.3740050     0.1547830
  N       -0.7982440     0.1994180    -0.2292560
  N       -3.0541720     0.8052390     0.2400120
  N       -4.6734100    -0.8124350     0.4126370
  C        2.7015950     0.8755540     0.5594740
  C        1.2368440     1.1072260     0.8878520
  C        2.6494470    -0.4367179    -0.3508667
  C        0.5739580     0.6830040    -0.4149160
  C        2.8020980    -1.6600160     0.5224700
  C       -1.1273370    -1.1158190    -0.3082760
  C       -1.7446880     1.2038920     0.0820450
  C       -2.4173070    -1.5045610    -0.1045420
  C       -3.3619920    -0.4731600     0.1685110
  H        3.3343810     0.7567850     1.4508530
  H        0.9047070     0.4438290     1.6934890
  H        0.9853290     2.1340670     1.1581470
  H        0.5274540     1.5132540    -1.1249130
  H        3.4174920    -0.3642830    -1.0666260
  H        1.9707490    -1.7331840     1.2432230
  H        3.7460890    -1.6095150     1.0882890
  H        3.1038510     2.7463240     0.1779830
  H       -0.3107400    -1.7892010    -0.5436980
  H        2.9100300    -3.5650720     0.1192120
  H       -2.7034680    -2.5490840    -0.1532500
  H       -5.0287110    -1.6377420    -0.0567190
  H       -5.2994710    -0.0137980     0.3861010
units angstrom
no_reorient  #important for SAPT in psi4, default
symmetry c1  #important for SAPT in psi4, default
}

set PROPERTIES_ORIGIN ["COM"]
properties('MP2/aug-cc-pvtz', properties = ['dipole'])
--------------------------------------------------------------------------

    Molecular point group: c1
  Charge       = 0
  Multiplicity = 1
  Basis Set: AUG-CC-PVTZ
    Blend: AUG-CC-PVTZ
  Basis Set: (AUG-CC-PVTZ AUX)
    Blend: AUG-CC-PVTZ-JKFIT

    Orbital Energies [Eh]
    ---------------------

    Doubly Occupied:

       1A    -20.584701     2A    -20.573312     3A    -20.571347
       4A    -20.503200     5A    -15.622265     6A    -15.588553
       7A    -15.541065     8A    -11.370230     9A    -11.345277
      10A    -11.332238    11A    -11.318645    12A    -11.298839
      13A    -11.294556    14A    -11.290153    15A    -11.237322
      16A    -11.234847    17A     -1.420321    18A     -1.382091
      19A     -1.367840    20A     -1.359750    21A     -1.292610
      22A     -1.262188    23A     -1.169494    24A     -1.077307
      25A     -1.059136    26A     -1.026300    27A     -0.922339
      28A     -0.897308    29A     -0.864804    30A     -0.829839
      31A     -0.811568    32A     -0.754866    33A     -0.738656
      34A     -0.715233    35A     -0.704079    36A     -0.686500
      37A     -0.685740    38A     -0.677509    39A     -0.657711
      40A     -0.635209    41A     -0.627370    42A     -0.617586
      43A     -0.603810    44A     -0.596796    45A     -0.588325
      46A     -0.575388    47A     -0.569087    48A     -0.548312
      49A     -0.531380    50A     -0.522274    51A     -0.511226
      52A     -0.482571    53A     -0.471807    54A     -0.464201
      55A     -0.457392    56A     -0.444766    57A     -0.435473
      58A     -0.416517    59A     -0.383894    60A     -0.335140

  @DF-RHF Final Energy:  -811.46248588133642

   => Energetics <=

    Nuclear Repulsion Energy =           1170.0884884499632790
    One-Electron Energy =               -3435.3254212608967464
    Two-Electron Energy =                1453.7744469295971612
    Total Energy =                       -811.4624858813363062
  Basis Set: (AUG-CC-PVTZ AUX)
    Blend: AUG-CC-PVTZ-RI
    Molecular point group: c1

    Geometry (in Angstrom), charge = 0, multiplicity = 1:

       Center              X                  Y                   Z               Mass
    ------------   -----------------  -----------------  -----------------  -----------------
         O            1.362746712002    -0.381151824596    -0.924485971169    15.994914619570
         O            3.202732712002     1.900072175404    -0.292154971169    15.994914619570
         O            2.792268512002    -2.700560524596    -0.448246271169    15.994914619570
         O           -1.361510287998     2.372864175404     0.162141028831    15.994914619570
         N           -0.797568287998     0.198277175404    -0.221897971169    14.003074004430
         N           -3.053496287998     0.804098175404     0.247370028831    14.003074004430
         N           -4.672734287998    -0.813575824596     0.419995028831    14.003074004430
         C            2.702270712002     0.874413175404     0.566832028831    12.000000000000
         C            1.237519712002     1.106085175404     0.895210028831    12.000000000000
         C            2.650122712002    -0.437858724596    -0.343508671169    12.000000000000
         C            0.574633712002     0.681863175404    -0.407557971169    12.000000000000
         C            2.802773712002    -1.661156824596     0.529828028831    12.000000000000
         C           -1.126661287998    -1.116959824596    -0.300917971169    12.000000000000
         C           -1.744012287998     1.202751175404     0.089403028831    12.000000000000
         C           -2.416631287998    -1.505701824596    -0.097183971169    12.000000000000
         C           -3.361316287998    -0.474300824596     0.175869028831    12.000000000000
         H            3.335056712002     0.755644175404     1.458211028831     1.007825032230
         H            0.905382712002     0.442688175404     1.700847028831     1.007825032230
         H            0.986004712002     2.132926175404     1.165505028831     1.007825032230
         H            0.528129712002     1.512113175404    -1.117554971169     1.007825032230
         H            3.418167712002    -0.365423824596    -1.059267971169     1.007825032230
         H            1.971424712002    -1.734324824596     1.250581028831     1.007825032230
         H            3.746764712002    -1.610655824596     1.095647028831     1.007825032230
         H            3.104526712002     2.745183175404     0.185341028831     1.007825032230
         H           -0.310064287998    -1.790341824596    -0.536339971169     1.007825032230
         H            2.910705712002    -3.566212824596     0.126570028831     1.007825032230
         H           -2.702792287998    -2.550224824596    -0.145891971169     1.007825032230
         H           -5.028035287998    -1.638882824596    -0.049360971169     1.007825032230
         H           -5.298795287998    -0.014938824596     0.393459028831     1.007825032230

  Basis Set: AUG-CC-PVTZ
    Blend: AUG-CC-PVTZ
  Basis Set: (AUG-CC-PVTZ AUX)
    Blend: AUG-CC-PVTZ-JKFIT
	 Reference Energy          =    -811.4624858813364199 [Eh]
	 Singles Energy            =      -0.0000000000000000 [Eh]
	 Same-Spin Energy          =      -0.8305692668091773 [Eh]
	 Opposite-Spin Energy      =      -2.5278056522113594 [Eh]
	 Correlation Energy        =      -3.3583749190205365 [Eh]
	 Total Energy              =    -814.8208608003569680 [Eh]

	 ================> DF-SCS-MP2 Energies <==================
	-----------------------------------------------------------
	 SCS Same-Spin Scale       =       0.3333333333333333 [-]
	 SCS Opposite-Spin Scale   =       1.2000000000000000 [-]
	 SCS Same-Spin Energy      =      -0.2768564222697257 [Eh]
	 SCS Opposite-Spin Energy  =      -3.0333667826536312 [Eh]
	 SCS Correlation Energy    =      -3.3102232049233571 [Eh]
	 SCS Total Energy          =    -814.7727090862597379 [Eh]
	-----------------------------------------------------------

  Dipole Moment: [D]
     X:     1.0247      Y:    -4.8068      Z:     2.4605     Total:     5.4963

*** Psi4 exiting successfully. Buy a developer a beer!
