                               Psi4 1.3.2 release

  ==> Input File <==

--------------------------------------------------------------------------
#psi4
#
memory 32 gb

molecule  {
0 1
  O        1.3620710    -0.3800110    -0.9318440
  O        3.2020570     1.9012130    -0.2995130
  O        2.7994070    -2.7489470    -0.4002010
  O       -1.3621860     2.3740050     0.1547830
  N       -0.8663742     0.2136718    -0.2147486
  N       -3.0541720     0.8052390     0.2400120
  N       -4.6734100    -0.8124350     0.4126370
  C        2.7015950     0.8755540     0.5594740
  C        1.2368440     1.1072260     0.8878520
  C        2.6518190    -0.3922910    -0.2854700
  C        0.5739580     0.6830040    -0.4149160
  C        2.8020980    -1.6600160     0.5224700
  C       -1.1273370    -1.1158190    -0.3082760
  C       -1.7446880     1.2038920     0.0820450
  C       -2.4342923    -1.4360928    -0.0939325
  C       -3.3619920    -0.4731600     0.1685110
  H        3.3343810     0.7567850     1.4508530
  H        0.9047070     0.4438290     1.6934890
  H        0.9853290     2.1340670     1.1581470
  H        0.5274540     1.5132540    -1.1249130
  H        3.4174920    -0.3642830    -1.0666260
  H        1.9707490    -1.7331840     1.2432230
  H        3.7460890    -1.6095150     1.0882890
  H        3.1038510     2.7463240     0.1779830
  H       -0.3107400    -1.7892010    -0.5436980
  H        2.9100300    -3.5650720     0.1192120
  H       -2.7034680    -2.5490840    -0.1532500
  H       -5.0287110    -1.6377420    -0.0567190
  H       -5.2994710    -0.0137980     0.3861010
units angstrom
no_reorient  #important for SAPT in psi4, default
symmetry c1  #important for SAPT in psi4, default
}

set PROPERTIES_ORIGIN ["COM"]
properties('MP2/aug-cc-pvtz', properties = ['dipole'])
--------------------------------------------------------------------------

    Molecular point group: c1
  Charge       = 0
  Multiplicity = 1
  Basis Set: AUG-CC-PVTZ
    Blend: AUG-CC-PVTZ
  Basis Set: (AUG-CC-PVTZ AUX)
    Blend: AUG-CC-PVTZ-JKFIT

    Orbital Energies [Eh]
    ---------------------

    Doubly Occupied:

       1A    -20.579936     2A    -20.577611     3A    -20.575931
       4A    -20.494227     5A    -15.624078     6A    -15.584289
       7A    -15.535545     8A    -11.360828     9A    -11.336493
      10A    -11.335012    11A    -11.322475    12A    -11.302953
      13A    -11.299196    14A    -11.296067    15A    -11.239277
      16A    -11.237797    17A     -1.418314    18A     -1.385296
      19A     -1.375587    20A     -1.367561    21A     -1.294477
      22A     -1.260225    23A     -1.164514    24A     -1.080742
      25A     -1.071280    26A     -1.034414    27A     -0.927360
      28A     -0.912501    29A     -0.868104    30A     -0.828036
      31A     -0.808847    32A     -0.757697    33A     -0.739172
      34A     -0.723269    35A     -0.707086    36A     -0.694226
      37A     -0.688401    38A     -0.675967    39A     -0.656974
      40A     -0.633003    41A     -0.630499    42A     -0.624432
      43A     -0.605629    44A     -0.599675    45A     -0.590046
      46A     -0.571976    47A     -0.557622    48A     -0.546214
      49A     -0.533896    50A     -0.520624    51A     -0.512363
      52A     -0.488022    53A     -0.479166    54A     -0.470632
      55A     -0.462476    56A     -0.443775    57A     -0.435954
      58A     -0.413506    59A     -0.382689    60A     -0.335507

  @DF-RHF Final Energy:  -811.46458910562592

   => Energetics <=

    Nuclear Repulsion Energy =           1171.1875493524823924
    One-Electron Energy =               -3437.3453348329630899
    Two-Electron Energy =                1454.6931963748550061
    Total Energy =                       -811.4645891056259188
  Basis Set: (AUG-CC-PVTZ AUX)
    Blend: AUG-CC-PVTZ-RI
    Molecular point group: c1

    Geometry (in Angstrom), charge = 0, multiplicity = 1:

       Center              X                  Y                   Z               Mass
    ------------   -----------------  -----------------  -----------------  -----------------
         O            1.367169635472    -0.384507988443    -0.933299165537    15.994914619570
         O            3.207155635472     1.896716011557    -0.300968165537    15.994914619570
         O            2.804505635472    -2.753443988443    -0.401656165537    15.994914619570
         O           -1.357087364528     2.369508011557     0.153327834463    15.994914619570
         N           -0.861275564528     0.209174811557    -0.216203765537    14.003074004430
         N           -3.049073364528     0.800742011557     0.238556834463    14.003074004430
         N           -4.668311364528    -0.816931988443     0.411181834463    14.003074004430
         C            2.706693635472     0.871057011557     0.558018834463    12.000000000000
         C            1.241942635472     1.102729011557     0.886396834463    12.000000000000
         C            2.656917635472    -0.396787988443    -0.286925165537    12.000000000000
         C            0.579056635472     0.678507011557    -0.416371165537    12.000000000000
         C            2.807196635472    -1.664512988443     0.521014834463    12.000000000000
         C           -1.122238364528    -1.120315988443    -0.309731165537    12.000000000000
         C           -1.739589364528     1.199395011557     0.080589834463    12.000000000000
         C           -2.429193664528    -1.440589788443    -0.095387665537    12.000000000000
         C           -3.356893364528    -0.477656988443     0.167055834463    12.000000000000
         H            3.339479635472     0.752288011557     1.449397834463     1.007825032230
         H            0.909805635472     0.439332011557     1.692033834463     1.007825032230
         H            0.990427635472     2.129570011557     1.156691834463     1.007825032230
         H            0.532552635472     1.508757011557    -1.126368165537     1.007825032230
         H            3.422590635472    -0.368779988443    -1.068081165537     1.007825032230
         H            1.975847635472    -1.737680988443     1.241767834463     1.007825032230
         H            3.751187635472    -1.614011988443     1.086833834463     1.007825032230
         H            3.108949635472     2.741827011557     0.176527834463     1.007825032230
         H           -0.305641364528    -1.793697988443    -0.545153165537     1.007825032230
         H            2.915128635472    -3.569568988443     0.117756834463     1.007825032230
         H           -2.698369364528    -2.553580988443    -0.154705165537     1.007825032230
         H           -5.023612364528    -1.642238988443    -0.058174165537     1.007825032230
         H           -5.294372364528    -0.018294988443     0.384645834463     1.007825032230

  Basis Set: AUG-CC-PVTZ
    Blend: AUG-CC-PVTZ
  Basis Set: (AUG-CC-PVTZ AUX)
    Blend: AUG-CC-PVTZ-JKFIT
	 Reference Energy          =    -811.4645891056259188 [Eh]
	 Singles Energy            =      -0.0000000000000000 [Eh]
	 Same-Spin Energy          =      -0.8310940445811887 [Eh]
	 Opposite-Spin Energy      =      -2.5266344556375051 [Eh]
	 Correlation Energy        =      -3.3577285002186938 [Eh]
	 Total Energy              =    -814.8223176058446597 [Eh]

	 ================> DF-SCS-MP2 Energies <==================
	-----------------------------------------------------------
	 SCS Same-Spin Scale       =       0.3333333333333333 [-]
	 SCS Opposite-Spin Scale   =       1.2000000000000000 [-]
	 SCS Same-Spin Energy      =      -0.2770313481937295 [Eh]
	 SCS Opposite-Spin Energy  =      -3.0319613467650059 [Eh]
	 SCS Correlation Energy    =      -3.3089926949587354 [Eh]
	 SCS Total Energy          =    -814.7735818005846795 [Eh]
	-----------------------------------------------------------

  Dipole Moment: [D]
     X:     1.4733      Y:    -4.9077      Z:     2.4141     Total:     5.6643

*** Psi4 exiting successfully. Buy a developer a beer!
