                               Psi4 1.3.2 release

  ==> Input File <==

--------------------------------------------------------------------------
#psi4
#
memory 32 gb

molecule  {
0 1
  O        1.3620710    -0.3800110    -0.9318440
  O        3.2020570     1.9012130    -0.2995130
  O        2.7994070    -2.7489470    -0.4002010
  O       -1.3621860     2.3740050     0.1547830
  N       -0.7982440     0.1994180    -0.2292560
  N       -3.0541720     0.8052390     0.2400120
  N       -4.6734100    -0.8124350     0.4126370
  C        2.7015950     0.8755540     0.5594740
  C        1.2368440     1.1072260     0.8878520
  C        2.6644913    -0.4321782    -0.3134751
  C        0.5372390     0.6694247    -0.4453520
  C        2.8020980    -1.6600160     0.5224700
  C       -1.1273370    -1.1158190    -0.3082760
  C       -1.7446880     1.2038920     0.0820450
  C       -2.4173070    -1.5045610    -0.1045420
  C       -3.3619920    -0.4731600     0.1685110
  H        3.3343810     0.7567850     1.4508530
  H        0.9047070     0.4438290     1.6934890
  H        0.9853290     2.1340670     1.1581470
  H        0.5274540     1.5132540    -1.1249130
  H        3.4174920    -0.3642830    -1.0666260
  H        1.9707490    -1.7331840     1.2432230
  H        3.7460890    -1.6095150     1.0882890
  H        3.1038510     2.7463240     0.1779830
  H       -0.3107400    -1.7892010    -0.5436980
  H        2.9100300    -3.5650720     0.1192120
  H       -2.7034680    -2.5490840    -0.1532500
  H       -5.0287110    -1.6377420    -0.0567190
  H       -5.2994710    -0.0137980     0.3861010
units angstrom
no_reorient  #important for SAPT in psi4, default
symmetry c1  #important for SAPT in psi4, default
}

set PROPERTIES_ORIGIN ["COM"]
properties('MP2/aug-cc-pvtz', properties = ['dipole'])
--------------------------------------------------------------------------

    Molecular point group: c1
  Charge       = 0
  Multiplicity = 1
  Basis Set: AUG-CC-PVTZ
    Blend: AUG-CC-PVTZ
  Basis Set: (AUG-CC-PVTZ AUX)
    Blend: AUG-CC-PVTZ-JKFIT

    Orbital Energies [Eh]
    ---------------------

    Doubly Occupied:

       1A    -20.576755     2A    -20.571857     3A    -20.569293
       4A    -20.504645     5A    -15.624013     6A    -15.589463
       7A    -15.542316     8A    -11.371839     9A    -11.346386
      10A    -11.329616    11A    -11.319765    12A    -11.299503
      13A    -11.295644    14A    -11.292341    15A    -11.238574
      16A    -11.234863    17A     -1.413713    18A     -1.383737
      19A     -1.372482    20A     -1.363621    21A     -1.294479
      22A     -1.265897    23A     -1.171284    24A     -1.075990
      25A     -1.063785    26A     -1.025529    27A     -0.928430
      28A     -0.899558    29A     -0.867945    30A     -0.830050
      31A     -0.807668    32A     -0.756889    33A     -0.739096
      34A     -0.719286    35A     -0.706619    36A     -0.692995
      37A     -0.686657    38A     -0.677882    39A     -0.658469
      40A     -0.636234    41A     -0.627743    42A     -0.619432
      43A     -0.606438    44A     -0.596519    45A     -0.589297
      46A     -0.575057    47A     -0.570126    48A     -0.544548
      49A     -0.531042    50A     -0.522334    51A     -0.507085
      52A     -0.481451    53A     -0.473264    54A     -0.466332
      55A     -0.460766    56A     -0.443986    57A     -0.437457
      58A     -0.418575    59A     -0.383750    60A     -0.335583

  @DF-RHF Final Energy:  -811.47500072826267

   => Energetics <=

    Nuclear Repulsion Energy =           1169.2958850670627271
    One-Electron Energy =               -3433.6698743779847973
    Two-Electron Energy =                1452.8989885826597401
    Total Energy =                       -811.4750007282625575
  Basis Set: (AUG-CC-PVTZ AUX)
    Blend: AUG-CC-PVTZ-RI
    Molecular point group: c1

    Geometry (in Angstrom), charge = 0, multiplicity = 1:

       Center              X                  Y                   Z               Mass
    ------------   -----------------  -----------------  -----------------  -----------------
         O            1.363341668089    -0.377185741846    -0.928755801043    15.994914619570
         O            3.203327668089     1.904038258154    -0.296424801043    15.994914619570
         O            2.800677668089    -2.746121741846    -0.397112801043    15.994914619570
         O           -1.360915331911     2.376830258154     0.157871198957    15.994914619570
         N           -0.796973331911     0.202243258154    -0.226167801043    14.003074004430
         N           -3.052901331911     0.808064258154     0.243100198957    14.003074004430
         N           -4.672139331911    -0.809609741846     0.415725198957    14.003074004430
         C            2.702865668089     0.878379258154     0.562562198957    12.000000000000
         C            1.238114668089     1.110051258154     0.890940198957    12.000000000000
         C            2.665761968089    -0.429352941846    -0.310386901043    12.000000000000
         C            0.538509668089     0.672249958154    -0.442263801043    12.000000000000
         C            2.803368668089    -1.657190741846     0.525558198957    12.000000000000
         C           -1.126066331911    -1.112993741846    -0.305187801043    12.000000000000
         C           -1.743417331911     1.206717258154     0.085133198957    12.000000000000
         C           -2.416036331911    -1.501735741846    -0.101453801043    12.000000000000
         C           -3.360721331911    -0.470334741846     0.171599198957    12.000000000000
         H            3.335651668089     0.759610258154     1.453941198957     1.007825032230
         H            0.905977668089     0.446654258154     1.696577198957     1.007825032230
         H            0.986599668089     2.136892258154     1.161235198957     1.007825032230
         H            0.528724668089     1.516079258154    -1.121824801043     1.007825032230
         H            3.418762668089    -0.361457741846    -1.063537801043     1.007825032230
         H            1.972019668089    -1.730358741846     1.246311198957     1.007825032230
         H            3.747359668089    -1.606689741846     1.091377198957     1.007825032230
         H            3.105121668089     2.749149258154     0.181071198957     1.007825032230
         H           -0.309469331911    -1.786375741846    -0.540609801043     1.007825032230
         H            2.911300668089    -3.562246741846     0.122300198957     1.007825032230
         H           -2.702197331911    -2.546258741846    -0.150161801043     1.007825032230
         H           -5.027440331911    -1.634916741846    -0.053630801043     1.007825032230
         H           -5.298200331911    -0.010972741846     0.389189198957     1.007825032230

  Basis Set: AUG-CC-PVTZ
    Blend: AUG-CC-PVTZ
  Basis Set: (AUG-CC-PVTZ AUX)
    Blend: AUG-CC-PVTZ-JKFIT
	 Reference Energy          =    -811.4750007282626711 [Eh]
	 Singles Energy            =      -0.0000000000000000 [Eh]
	 Same-Spin Energy          =      -0.8294032757042812 [Eh]
	 Opposite-Spin Energy      =      -2.5248524595748574 [Eh]
	 Correlation Energy        =      -3.3542557352791387 [Eh]
	 Total Energy              =    -814.8292564635418103 [Eh]

	 ================> DF-SCS-MP2 Energies <==================
	-----------------------------------------------------------
	 SCS Same-Spin Scale       =       0.3333333333333333 [-]
	 SCS Opposite-Spin Scale   =       1.2000000000000000 [-]
	 SCS Same-Spin Energy      =      -0.2764677585680937 [Eh]
	 SCS Opposite-Spin Energy  =      -3.0298229514898289 [Eh]
	 SCS Correlation Energy    =      -3.3062907100579224 [Eh]
	 SCS Total Energy          =    -814.7812914383206362 [Eh]
	-----------------------------------------------------------

  Dipole Moment: [D]
     X:     0.9083      Y:    -4.7613      Z:     2.4179     Total:     5.4168

*** Psi4 exiting successfully. Buy a developer a beer!
