                               Psi4 1.3.2 release

  ==> Input File <==

--------------------------------------------------------------------------
#psi4
#
memory 32 gb

molecule  {
0 1
  O        1.3620710    -0.3800110    -0.9318440
  O        3.2020570     1.9012130    -0.2995130
  O        2.7994070    -2.7489470    -0.4002010
  O       -1.3621860     2.3740050     0.1547830
  N       -0.7905492     0.2125745    -0.1539954
  N       -3.0541720     0.8052390     0.2400120
  N       -4.6734100    -0.8124350     0.4126370
  C        2.7015950     0.8755540     0.5594740
  C        1.1697039     1.0875416     0.9259877
  C        2.6518190    -0.3922910    -0.2854700
  C        0.5739580     0.6830040    -0.4149160
  C        2.8020980    -1.6600160     0.5224700
  C       -1.1273370    -1.1158190    -0.3082760
  C       -1.7446880     1.2038920     0.0820450
  C       -2.4173070    -1.5045610    -0.1045420
  C       -3.3619920    -0.4731600     0.1685110
  H        3.3343810     0.7567850     1.4508530
  H        0.9047070     0.4438290     1.6934890
  H        0.9853290     2.1340670     1.1581470
  H        0.5274540     1.5132540    -1.1249130
  H        3.4174920    -0.3642830    -1.0666260
  H        1.9707490    -1.7331840     1.2432230
  H        3.7460890    -1.6095150     1.0882890
  H        3.1038510     2.7463240     0.1779830
  H       -0.3107400    -1.7892010    -0.5436980
  H        2.9100300    -3.5650720     0.1192120
  H       -2.7034680    -2.5490840    -0.1532500
  H       -5.0287110    -1.6377420    -0.0567190
  H       -5.2994710    -0.0137980     0.3861010
units angstrom
no_reorient  #important for SAPT in psi4, default
symmetry c1  #important for SAPT in psi4, default
}

set PROPERTIES_ORIGIN ["COM"]
properties('MP2/aug-cc-pvtz', properties = ['dipole'])
--------------------------------------------------------------------------

    Molecular point group: c1
  Charge       = 0
  Multiplicity = 1
  Basis Set: AUG-CC-PVTZ
    Blend: AUG-CC-PVTZ
  Basis Set: (AUG-CC-PVTZ AUX)
    Blend: AUG-CC-PVTZ-JKFIT

    Orbital Energies [Eh]
    ---------------------

    Doubly Occupied:

       1A    -20.577761     2A    -20.575167     3A    -20.573894
       4A    -20.499084     5A    -15.619538     6A    -15.588781
       7A    -15.540625     8A    -11.366389     9A    -11.345329
      10A    -11.330565    11A    -11.319686    12A    -11.301875
      13A    -11.296770    14A    -11.292587    15A    -11.239355
      16A    -11.233047    17A     -1.415667    18A     -1.381986
      19A     -1.373011    20A     -1.365204    21A     -1.290433
      22A     -1.259244    23A     -1.168973    24A     -1.076679
      25A     -1.064748    26A     -1.027273    27A     -0.923801
      28A     -0.898156    29A     -0.869215    30A     -0.832687
      31A     -0.804100    32A     -0.755184    33A     -0.735667
      34A     -0.719840    35A     -0.706344    36A     -0.693252
      37A     -0.689665    38A     -0.676818    39A     -0.656322
      40A     -0.636671    41A     -0.628534    42A     -0.618338
      43A     -0.606254    44A     -0.595929    45A     -0.587633
      46A     -0.568481    47A     -0.565321    48A     -0.548950
      49A     -0.537056    50A     -0.523983    51A     -0.514297
      52A     -0.482464    53A     -0.477121    54A     -0.468347
      55A     -0.454257    56A     -0.440648    57A     -0.438300
      58A     -0.415039    59A     -0.382886    60A     -0.336015

  @DF-RHF Final Energy:  -811.47082429927264

   => Energetics <=

    Nuclear Repulsion Energy =           1169.7543798846741083
    One-Electron Energy =               -3434.6279197786675468
    Two-Electron Energy =                1453.4027155947208030
    Total Energy =                       -811.4708242992726355
  Basis Set: (AUG-CC-PVTZ AUX)
    Blend: AUG-CC-PVTZ-RI
    Molecular point group: c1

    Geometry (in Angstrom), charge = 0, multiplicity = 1:

       Center              X                  Y                   Z               Mass
    ------------   -----------------  -----------------  -----------------  -----------------
         O            1.365144340394    -0.379782135654    -0.938499935295    15.994914619570
         O            3.205130340394     1.901441864346    -0.306168935295    15.994914619570
         O            2.802480340394    -2.748718135654    -0.406856935295    15.994914619570
         O           -1.359112659606     2.374233864346     0.148127064705    15.994914619570
         N           -0.787475859606     0.212803364346    -0.160651335295    14.003074004430
         N           -3.051098659606     0.805467864346     0.233356064705    14.003074004430
         N           -4.670336659606    -0.812206135654     0.405981064705    14.003074004430
         C            2.704668340394     0.875782864346     0.552818064705    12.000000000000
         C            1.172777240394     1.087770464346     0.919331764705    12.000000000000
         C            2.654892340394    -0.392062135654    -0.292125935295    12.000000000000
         C            0.577031340394     0.683232864346    -0.421571935295    12.000000000000
         C            2.805171340394    -1.659787135654     0.515814064705    12.000000000000
         C           -1.124263659606    -1.115590135654    -0.314931935295    12.000000000000
         C           -1.741614659606     1.204120864346     0.075389064705    12.000000000000
         C           -2.414233659606    -1.504332135654    -0.111197935295    12.000000000000
         C           -3.358918659606    -0.472931135654     0.161855064705    12.000000000000
         H            3.337454340394     0.757013864346     1.444197064705     1.007825032230
         H            0.907780340394     0.444057864346     1.686833064705     1.007825032230
         H            0.988402340394     2.134295864346     1.151491064705     1.007825032230
         H            0.530527340394     1.513482864346    -1.131568935295     1.007825032230
         H            3.420565340394    -0.364054135654    -1.073281935295     1.007825032230
         H            1.973822340394    -1.732955135654     1.236567064705     1.007825032230
         H            3.749162340394    -1.609286135654     1.081633064705     1.007825032230
         H            3.106924340394     2.746552864346     0.171327064705     1.007825032230
         H           -0.307666659606    -1.788972135654    -0.550353935295     1.007825032230
         H            2.913103340394    -3.564843135654     0.112556064705     1.007825032230
         H           -2.700394659606    -2.548855135654    -0.159905935295     1.007825032230
         H           -5.025637659606    -1.637513135654    -0.063374935295     1.007825032230
         H           -5.296397659606    -0.013569135654     0.379445064705     1.007825032230

  Basis Set: AUG-CC-PVTZ
    Blend: AUG-CC-PVTZ
  Basis Set: (AUG-CC-PVTZ AUX)
    Blend: AUG-CC-PVTZ-JKFIT
	 Reference Energy          =    -811.4708242992726355 [Eh]
	 Singles Energy            =      -0.0000000000000000 [Eh]
	 Same-Spin Energy          =      -0.8296622260719106 [Eh]
	 Opposite-Spin Energy      =      -2.5259271970300654 [Eh]
	 Correlation Energy        =      -3.3555894231019758 [Eh]
	 Total Energy              =    -814.8264137223745820 [Eh]

	 ================> DF-SCS-MP2 Energies <==================
	-----------------------------------------------------------
	 SCS Same-Spin Scale       =       0.3333333333333333 [-]
	 SCS Opposite-Spin Scale   =       1.2000000000000000 [-]
	 SCS Same-Spin Energy      =      -0.2765540753573035 [Eh]
	 SCS Opposite-Spin Energy  =      -3.0311126364360783 [Eh]
	 SCS Correlation Energy    =      -3.3076667117933818 [Eh]
	 SCS Total Energy          =    -814.7784910110659666 [Eh]
	-----------------------------------------------------------

  Dipole Moment: [D]
     X:     1.0847      Y:    -4.7676      Z:     2.4432     Total:     5.4658

*** Psi4 exiting successfully. Buy a developer a beer!
