                               Psi4 1.3.2 release

  ==> Input File <==

--------------------------------------------------------------------------
#psi4
#
memory 32 gb

molecule  {
0 1
  O        1.3620710    -0.3800110    -0.9318440
  O        3.2020570     1.9012130    -0.2995130
  O        2.7994070    -2.7489470    -0.4002010
  O       -1.3621860     2.3740050     0.1547830
  N       -0.7982440     0.1994180    -0.2292560
  N       -3.0541720     0.8052390     0.2400120
  N       -4.6734100    -0.8124350     0.4126370
  C        2.7015950     0.8755540     0.5594740
  C        1.2341077     1.1079041     0.8749006
  C        2.6518190    -0.3922910    -0.2854700
  C        0.5739580     0.6830040    -0.4149160
  C        2.8020980    -1.6600160     0.5224700
  C       -1.1273370    -1.1158190    -0.3082760
  C       -1.7446880     1.2038920     0.0820450
  C       -2.4173070    -1.5045610    -0.1045420
  C       -3.3619920    -0.4731600     0.1685110
  H        3.3420525     0.7556427     1.4452032
  H        0.9047070     0.4438290     1.6934890
  H        0.9853290     2.1340670     1.1581470
  H        0.5274540     1.5132540    -1.1249130
  H        3.4174920    -0.3642830    -1.0666260
  H        1.9707490    -1.7331840     1.2432230
  H        3.7460890    -1.6095150     1.0882890
  H        3.1038510     2.7463240     0.1779830
  H       -0.3107400    -1.7892010    -0.5436980
  H        2.9100300    -3.5650720     0.1192120
  H       -2.7034680    -2.5490840    -0.1532500
  H       -5.0287110    -1.6377420    -0.0567190
  H       -5.2994710    -0.0137980     0.3861010
units angstrom
no_reorient  #important for SAPT in psi4, default
symmetry c1  #important for SAPT in psi4, default
}

set PROPERTIES_ORIGIN ["COM"]
properties('MP2/aug-cc-pvtz', properties = ['dipole'])
--------------------------------------------------------------------------

    Molecular point group: c1
  Charge       = 0
  Multiplicity = 1
  Basis Set: AUG-CC-PVTZ
    Blend: AUG-CC-PVTZ
  Basis Set: (AUG-CC-PVTZ AUX)
    Blend: AUG-CC-PVTZ-JKFIT

    Orbital Energies [Eh]
    ---------------------

    Doubly Occupied:

       1A    -20.577723     2A    -20.573920     3A    -20.572861
       4A    -20.503095     5A    -15.621799     6A    -15.588390
       7A    -15.540832     8A    -11.369959     9A    -11.345082
      10A    -11.330349    11A    -11.318356    12A    -11.300879
      13A    -11.296820    14A    -11.292960    15A    -11.237233
      16A    -11.237064    17A     -1.416991    18A     -1.382475
      19A     -1.373511    20A     -1.365687    21A     -1.292279
      22A     -1.261515    23A     -1.169190    24A     -1.079688
      25A     -1.068898    26A     -1.028676    27A     -0.927018
      28A     -0.897491    29A     -0.868951    30A     -0.830367
      31A     -0.806717    32A     -0.754296    33A     -0.739123
      34A     -0.721101    35A     -0.706853    36A     -0.692985
      37A     -0.688977    38A     -0.675704    39A     -0.656715
      40A     -0.637269    41A     -0.627592    42A     -0.618297
      43A     -0.604431    44A     -0.595146    45A     -0.589047
      46A     -0.573493    47A     -0.568522    48A     -0.544515
      49A     -0.532039    50A     -0.523618    51A     -0.510095
      52A     -0.485342    53A     -0.482068    54A     -0.468307
      55A     -0.461436    56A     -0.444796    57A     -0.438082
      58A     -0.416376    59A     -0.383926    60A     -0.335103

  @DF-RHF Final Energy:  -811.47911809637867

   => Energetics <=

    Nuclear Repulsion Energy =           1170.1734743762826838
    One-Electron Energy =               -3435.4011287144462585
    Two-Electron Energy =                1453.7485362417849046
    Total Energy =                       -811.4791180963786701
  Basis Set: (AUG-CC-PVTZ AUX)
    Blend: AUG-CC-PVTZ-RI
    Molecular point group: c1

    Geometry (in Angstrom), charge = 0, multiplicity = 1:

       Center              X                  Y                   Z               Mass
    ------------   -----------------  -----------------  -----------------  -----------------
         O            1.362181530580    -0.380041799933    -0.931134509699    15.994914619570
         O            3.202167530580     1.901182200067    -0.298803509699    15.994914619570
         O            2.799517530580    -2.748977799933    -0.399491509699    15.994914619570
         O           -1.362075469420     2.373974200067     0.155492490301    15.994914619570
         N           -0.798133469420     0.199387200067    -0.228546509699    14.003074004430
         N           -3.054061469420     0.805208200067     0.240721490301    14.003074004430
         N           -4.673299469420    -0.812465799933     0.413346490301    14.003074004430
         C            2.701705530580     0.875523200067     0.560183490301    12.000000000000
         C            1.234218230580     1.107873300067     0.875610090301    12.000000000000
         C            2.651929530580    -0.392321799933    -0.284760509699    12.000000000000
         C            0.574068530580     0.682973200067    -0.414206509699    12.000000000000
         C            2.802208530580    -1.660046799933     0.523179490301    12.000000000000
         C           -1.127226469420    -1.115849799933    -0.307566509699    12.000000000000
         C           -1.744577469420     1.203861200067     0.082754490301    12.000000000000
         C           -2.417196469420    -1.504591799933    -0.103832509699    12.000000000000
         C           -3.361881469420    -0.473190799933     0.169220490301    12.000000000000
         H            3.342163030580     0.755611900067     1.445912690301     1.007825032230
         H            0.904817530580     0.443798200067     1.694198490301     1.007825032230
         H            0.985439530580     2.134036200067     1.158856490301     1.007825032230
         H            0.527564530580     1.513223200067    -1.124203509699     1.007825032230
         H            3.417602530580    -0.364313799933    -1.065916509699     1.007825032230
         H            1.970859530580    -1.733214799933     1.243932490301     1.007825032230
         H            3.746199530580    -1.609545799933     1.088998490301     1.007825032230
         H            3.103961530580     2.746293200067     0.178692490301     1.007825032230
         H           -0.310629469420    -1.789231799933    -0.542988509699     1.007825032230
         H            2.910140530580    -3.565102799933     0.119921490301     1.007825032230
         H           -2.703357469420    -2.549114799933    -0.152540509699     1.007825032230
         H           -5.028600469420    -1.637772799933    -0.056009509699     1.007825032230
         H           -5.299360469420    -0.013828799933     0.386810490301     1.007825032230

  Basis Set: AUG-CC-PVTZ
    Blend: AUG-CC-PVTZ
  Basis Set: (AUG-CC-PVTZ AUX)
    Blend: AUG-CC-PVTZ-JKFIT
	 Reference Energy          =    -811.4791180963786701 [Eh]
	 Singles Energy            =      -0.0000000000000000 [Eh]
	 Same-Spin Energy          =      -0.8297104055004065 [Eh]
	 Opposite-Spin Energy      =      -2.5251698693921565 [Eh]
	 Correlation Energy        =      -3.3548802748925630 [Eh]
	 Total Energy              =    -814.8339983712712637 [Eh]

	 ================> DF-SCS-MP2 Energies <==================
	-----------------------------------------------------------
	 SCS Same-Spin Scale       =       0.3333333333333333 [-]
	 SCS Opposite-Spin Scale   =       1.2000000000000000 [-]
	 SCS Same-Spin Energy      =      -0.2765701351668022 [Eh]
	 SCS Opposite-Spin Energy  =      -3.0302038432705878 [Eh]
	 SCS Correlation Energy    =      -3.3067739784373900 [Eh]
	 SCS Total Energy          =    -814.7858920748160472 [Eh]
	-----------------------------------------------------------

  Dipole Moment: [D]
     X:     1.0734      Y:    -4.6785      Z:     2.4931     Total:     5.4088

*** Psi4 exiting successfully. Buy a developer a beer!
