                               Psi4 1.3.2 release

  ==> Input File <==

--------------------------------------------------------------------------
#psi4
#
memory 32 gb

molecule  {
0 1
  O        1.3620710    -0.3800110    -0.9318440
  O        3.2020570     1.9012130    -0.2995130
  O        2.7994070    -2.7489470    -0.4002010
  O       -1.3621860     2.3740050     0.1547830
  N       -0.7982440     0.1994180    -0.2292560
  N       -3.0541720     0.8052390     0.2400120
  N       -4.6734100    -0.8124350     0.4126370
  C        2.7015950     0.8755540     0.5594740
  C        1.2368440     1.1072260     0.8878520
  C        2.6518190    -0.3922910    -0.2854700
  C        0.5739580     0.6830040    -0.4149160
  C        2.8020980    -1.6600160     0.5224700
  C       -1.1480386    -1.0483196    -0.2980672
  C       -1.7446880     1.2038920     0.0820450
  C       -2.4173070    -1.5045610    -0.1045420
  C       -3.3065402    -0.4235693     0.1628473
  H        3.3343810     0.7567850     1.4508530
  H        0.9047070     0.4438290     1.6934890
  H        0.9853290     2.1340670     1.1581470
  H        0.5274540     1.5132540    -1.1249130
  H        3.4174920    -0.3642830    -1.0666260
  H        1.9707490    -1.7331840     1.2432230
  H        3.7460890    -1.6095150     1.0882890
  H        3.1038510     2.7463240     0.1779830
  H       -0.3107400    -1.7892010    -0.5436980
  H        2.9100300    -3.5650720     0.1192120
  H       -2.7034680    -2.5490840    -0.1532500
  H       -5.0287110    -1.6377420    -0.0567190
  H       -5.2994710    -0.0137980     0.3861010
units angstrom
no_reorient  #important for SAPT in psi4, default
symmetry c1  #important for SAPT in psi4, default
}

set PROPERTIES_ORIGIN ["COM"]
properties('MP2/aug-cc-pvtz', properties = ['dipole'])
--------------------------------------------------------------------------

    Molecular point group: c1
  Charge       = 0
  Multiplicity = 1
  Basis Set: AUG-CC-PVTZ
    Blend: AUG-CC-PVTZ
  Basis Set: (AUG-CC-PVTZ AUX)
    Blend: AUG-CC-PVTZ-JKFIT

    Orbital Energies [Eh]
    ---------------------

    Doubly Occupied:

       1A    -20.578824     2A    -20.577483     3A    -20.576541
       4A    -20.512459     5A    -15.629437     6A    -15.572258
       7A    -15.544598     8A    -11.377981     9A    -11.337802
      10A    -11.337055    11A    -11.315271    12A    -11.304347
      13A    -11.298541    14A    -11.295858    15A    -11.241865
      16A    -11.231816    17A     -1.423288    18A     -1.393732
      19A     -1.375566    20A     -1.369022    21A     -1.306743
      22A     -1.268042    23A     -1.164990    24A     -1.083110
      25A     -1.071554    26A     -1.030993    27A     -0.931216
      28A     -0.901976    29A     -0.874444    30A     -0.835388
      31A     -0.807911    32A     -0.753768    33A     -0.746582
      34A     -0.724059    35A     -0.700798    36A     -0.693478
      37A     -0.682419    38A     -0.672887    39A     -0.651688
      40A     -0.643235    41A     -0.637462    42A     -0.620063
      43A     -0.606319    44A     -0.595370    45A     -0.586582
      46A     -0.572072    47A     -0.568014    48A     -0.546816
      49A     -0.530981    50A     -0.528593    51A     -0.509233
      52A     -0.492681    53A     -0.488664    54A     -0.470635
      55A     -0.464756    56A     -0.454284    57A     -0.440652
      58A     -0.420994    59A     -0.390822    60A     -0.333934

  @DF-RHF Final Energy:  -811.46653929307934

   => Energetics <=

    Nuclear Repulsion Energy =           1172.4893124514624105
    One-Electron Energy =               -3439.7158059147832319
    Two-Electron Energy =                1455.7599541702415991
    Total Energy =                       -811.4665392930792223
  Basis Set: (AUG-CC-PVTZ AUX)
    Blend: AUG-CC-PVTZ-RI
    Molecular point group: c1

    Geometry (in Angstrom), charge = 0, multiplicity = 1:

       Center              X                  Y                   Z               Mass
    ------------   -----------------  -----------------  -----------------  -----------------
         O            1.360234702051    -0.386198352437    -0.932084139514    15.994914619570
         O            3.200220702051     1.895025647563    -0.299753139514    15.994914619570
         O            2.797570702051    -2.755134352437    -0.400441139514    15.994914619570
         O           -1.364022297949     2.367817647563     0.154542860486    15.994914619570
         N           -0.800080297949     0.193230647563    -0.229496139514    14.003074004430
         N           -3.056008297949     0.799051647563     0.239771860486    14.003074004430
         N           -4.675246297949    -0.818622352437     0.412396860486    14.003074004430
         C            2.699758702051     0.869366647563     0.559233860486    12.000000000000
         C            1.235007702051     1.101038647563     0.887611860486    12.000000000000
         C            2.649982702051    -0.398478352437    -0.285710139514    12.000000000000
         C            0.572121702051     0.676816647563    -0.415156139514    12.000000000000
         C            2.800261702051    -1.666203352437     0.522229860486    12.000000000000
         C           -1.149874897949    -1.054506952437    -0.298307339514    12.000000000000
         C           -1.746524297949     1.197704647563     0.081804860486    12.000000000000
         C           -2.419143297949    -1.510748352437    -0.104782139514    12.000000000000
         C           -3.308376497949    -0.429756652437     0.162607160486    12.000000000000
         H            3.332544702051     0.750597647563     1.450612860486     1.007825032230
         H            0.902870702051     0.437641647563     1.693248860486     1.007825032230
         H            0.983492702051     2.127879647563     1.157906860486     1.007825032230
         H            0.525617702051     1.507066647563    -1.125153139514     1.007825032230
         H            3.415655702051    -0.370470352437    -1.066866139514     1.007825032230
         H            1.968912702051    -1.739371352437     1.242982860486     1.007825032230
         H            3.744252702051    -1.615702352437     1.088048860486     1.007825032230
         H            3.102014702051     2.740136647563     0.177742860486     1.007825032230
         H           -0.312576297949    -1.795388352437    -0.543938139514     1.007825032230
         H            2.908193702051    -3.571259352437     0.118971860486     1.007825032230
         H           -2.705304297949    -2.555271352437    -0.153490139514     1.007825032230
         H           -5.030547297949    -1.643929352437    -0.056959139514     1.007825032230
         H           -5.301307297949    -0.019985352437     0.385860860486     1.007825032230

  Basis Set: AUG-CC-PVTZ
    Blend: AUG-CC-PVTZ
  Basis Set: (AUG-CC-PVTZ AUX)
    Blend: AUG-CC-PVTZ-JKFIT
	 Reference Energy          =    -811.4665392930793359 [Eh]
	 Singles Energy            =      -0.0000000000000000 [Eh]
	 Same-Spin Energy          =      -0.8294509931226276 [Eh]
	 Opposite-Spin Energy      =      -2.5243816287831935 [Eh]
	 Correlation Energy        =      -3.3538326219058212 [Eh]
	 Total Energy              =    -814.8203719149851167 [Eh]

	 ================> DF-SCS-MP2 Energies <==================
	-----------------------------------------------------------
	 SCS Same-Spin Scale       =       0.3333333333333333 [-]
	 SCS Opposite-Spin Scale   =       1.2000000000000000 [-]
	 SCS Same-Spin Energy      =      -0.2764836643742092 [Eh]
	 SCS Opposite-Spin Energy  =      -3.0292579545398319 [Eh]
	 SCS Correlation Energy    =      -3.3057416189140412 [Eh]
	 SCS Total Energy          =    -814.7722809119933345 [Eh]
	-----------------------------------------------------------

  Dipole Moment: [D]
     X:     1.8938      Y:    -4.1718      Z:     2.4180     Total:     5.1805

*** Psi4 exiting successfully. Buy a developer a beer!
