                               Psi4 1.3.2 release

  ==> Input File <==

--------------------------------------------------------------------------
#psi4
#
memory 32 gb

molecule  {
0 1
  O        1.3620710    -0.3800110    -0.9318440
  O        3.2132374     1.8957016    -0.2994894
  O        2.7994070    -2.7489470    -0.4002010
  O       -1.3621860     2.3740050     0.1547830
  N       -0.7982440     0.1994180    -0.2292560
  N       -3.0541720     0.8052390     0.2400120
  N       -4.6734100    -0.8124350     0.4126370
  C        2.7015950     0.8755540     0.5594740
  C        1.2368321     1.0962465     0.8952774
  C        2.6518190    -0.3922910    -0.2854700
  C        0.5739580     0.6830040    -0.4149160
  C        2.8020980    -1.6600160     0.5224700
  C       -1.1273370    -1.1158190    -0.3082760
  C       -1.7446880     1.2038920     0.0820450
  C       -2.4173070    -1.5045610    -0.1045420
  C       -3.3619920    -0.4731600     0.1685110
  H        3.3343810     0.7567850     1.4508530
  H        0.9047070     0.4438290     1.6934890
  H        0.9853290     2.1340670     1.1581470
  H        0.5274540     1.5132540    -1.1249130
  H        3.4174920    -0.3642830    -1.0666260
  H        1.9707490    -1.7331840     1.2432230
  H        3.7460890    -1.6095150     1.0882890
  H        3.1038510     2.7463240     0.1779830
  H       -0.3107400    -1.7892010    -0.5436980
  H        2.9100300    -3.5650720     0.1192120
  H       -2.7034680    -2.5490840    -0.1532500
  H       -5.0287110    -1.6377420    -0.0567190
  H       -5.2994710    -0.0137980     0.3861010
units angstrom
no_reorient  #important for SAPT in psi4, default
symmetry c1  #important for SAPT in psi4, default
}

set PROPERTIES_ORIGIN ["COM"]
properties('MP2/aug-cc-pvtz', properties = ['dipole'])
--------------------------------------------------------------------------

    Molecular point group: c1
  Charge       = 0
  Multiplicity = 1
  Basis Set: AUG-CC-PVTZ
    Blend: AUG-CC-PVTZ
  Basis Set: (AUG-CC-PVTZ AUX)
    Blend: AUG-CC-PVTZ-JKFIT

    Orbital Energies [Eh]
    ---------------------

    Doubly Occupied:

       1A    -20.577622     2A    -20.575485     3A    -20.572670
       4A    -20.503098     5A    -15.621761     6A    -15.588413
       7A    -15.540867     8A    -11.369957     9A    -11.345099
      10A    -11.331059    11A    -11.318331    12A    -11.300640
      13A    -11.296704    14A    -11.292698    15A    -11.237089
      16A    -11.236926    17A     -1.416520    18A     -1.382354
      19A     -1.373130    20A     -1.365274    21A     -1.292286
      22A     -1.261483    23A     -1.169165    24A     -1.078943
      25A     -1.068891    26A     -1.027699    27A     -0.926582
      28A     -0.897511    29A     -0.868902    30A     -0.831026
      31A     -0.806044    32A     -0.754342    33A     -0.738602
      34A     -0.720600    35A     -0.706214    36A     -0.692239
      37A     -0.689010    38A     -0.676065    39A     -0.656566
      40A     -0.637367    41A     -0.628267    42A     -0.618772
      43A     -0.604480    44A     -0.595098    45A     -0.588404
      46A     -0.572715    47A     -0.568714    48A     -0.544517
      49A     -0.533318    50A     -0.522139    51A     -0.511583
      52A     -0.485441    53A     -0.482145    54A     -0.468675
      55A     -0.461136    56A     -0.444452    57A     -0.437805
      58A     -0.416391    59A     -0.383795    60A     -0.334960

  @DF-RHF Final Energy:  -811.47868956967898

   => Energetics <=

    Nuclear Repulsion Energy =           1169.7942441474992847
    One-Electron Energy =               -3434.6497849950264936
    Two-Electron Energy =                1453.3768512778483455
    Total Energy =                       -811.4786895696788633
  Basis Set: (AUG-CC-PVTZ AUX)
    Blend: AUG-CC-PVTZ-RI
    Molecular point group: c1

    Geometry (in Angstrom), charge = 0, multiplicity = 1:

       Center              X                  Y                   Z               Mass
    ------------   -----------------  -----------------  -----------------  -----------------
         O            1.361284131884    -0.379042664222    -0.932238003562    15.994914619570
         O            3.212450531884     1.896669935778    -0.299883403562    15.994914619570
         O            2.798620131884    -2.747978664222    -0.400595003562    15.994914619570
         O           -1.362972868116     2.374973335778     0.154388996438    15.994914619570
         N           -0.799030868116     0.200386335778    -0.229650003562    14.003074004430
         N           -3.054958868116     0.806207335778     0.239617996438    14.003074004430
         N           -4.674196868116    -0.811466664222     0.412242996438    14.003074004430
         C            2.700808131884     0.876522335778     0.559079996438    12.000000000000
         C            1.236045231884     1.097214835778     0.894883396438    12.000000000000
         C            2.651032131884    -0.391322664222    -0.285864003562    12.000000000000
         C            0.573171131884     0.683972335778    -0.415310003562    12.000000000000
         C            2.801311131884    -1.659047664222     0.522075996438    12.000000000000
         C           -1.128123868116    -1.114850664222    -0.308670003562    12.000000000000
         C           -1.745474868116     1.204860335778     0.081650996438    12.000000000000
         C           -2.418093868116    -1.503592664222    -0.104936003562    12.000000000000
         C           -3.362778868116    -0.472191664222     0.168116996438    12.000000000000
         H            3.333594131884     0.757753335778     1.450458996438     1.007825032230
         H            0.903920131884     0.444797335778     1.693094996438     1.007825032230
         H            0.984542131884     2.135035335778     1.157752996438     1.007825032230
         H            0.526667131884     1.514222335778    -1.125307003562     1.007825032230
         H            3.416705131884    -0.363314664222    -1.067020003562     1.007825032230
         H            1.969962131884    -1.732215664222     1.242828996438     1.007825032230
         H            3.745302131884    -1.608546664222     1.087894996438     1.007825032230
         H            3.103064131884     2.747292335778     0.177588996438     1.007825032230
         H           -0.311526868116    -1.788232664222    -0.544092003562     1.007825032230
         H            2.909243131884    -3.564103664222     0.118817996438     1.007825032230
         H           -2.704254868116    -2.548115664222    -0.153644003562     1.007825032230
         H           -5.029497868116    -1.636773664222    -0.057113003562     1.007825032230
         H           -5.300257868116    -0.012829664222     0.385706996438     1.007825032230

  Basis Set: AUG-CC-PVTZ
    Blend: AUG-CC-PVTZ
  Basis Set: (AUG-CC-PVTZ AUX)
    Blend: AUG-CC-PVTZ-JKFIT
	 Reference Energy          =    -811.4786895696789770 [Eh]
	 Singles Energy            =      -0.0000000000000000 [Eh]
	 Same-Spin Energy          =      -0.8297582831554635 [Eh]
	 Opposite-Spin Energy      =      -2.5254004792773119 [Eh]
	 Correlation Energy        =      -3.3551587624327754 [Eh]
	 Total Energy              =    -814.8338483321117565 [Eh]

	 ================> DF-SCS-MP2 Energies <==================
	-----------------------------------------------------------
	 SCS Same-Spin Scale       =       0.3333333333333333 [-]
	 SCS Opposite-Spin Scale   =       1.2000000000000000 [-]
	 SCS Same-Spin Energy      =      -0.2765860943851545 [Eh]
	 SCS Opposite-Spin Energy  =      -3.0304805751327741 [Eh]
	 SCS Correlation Energy    =      -3.3070666695179285 [Eh]
	 SCS Total Energy          =    -814.7857562391968713 [Eh]
	-----------------------------------------------------------

  Dipole Moment: [D]
     X:     1.0439      Y:    -4.6716      Z:     2.4853     Total:     5.3936

*** Psi4 exiting successfully. Buy a developer a beer!
