                               Psi4 1.3.2 release

  ==> Input File <==

--------------------------------------------------------------------------
#psi4
#
memory 32 gb

molecule  {
0 1
  O        1.3620710    -0.3800110    -0.9318440
  O        3.2020570     1.9012130    -0.2995130
  O        2.7994070    -2.7489470    -0.4002010
  O       -1.3621860     2.3740050     0.1547830
  N       -0.7982440     0.1994180    -0.2292560
  N       -3.0541720     0.8052390     0.2400120
  N       -4.6734100    -0.8124350     0.4126370
  C        2.7015950     0.8755540     0.5594740
  C        1.2368440     1.1072260     0.8878520
  C        2.6518190    -0.3922910    -0.2854700
  C        0.5739580     0.6830040    -0.4149160
  C        2.8020980    -1.6600160     0.5224700
  C       -1.1273370    -1.1158190    -0.3082760
  C       -1.7446880     1.2038920     0.0820450
  C       -2.4173070    -1.5045610    -0.1045420
  C       -3.3619920    -0.4731600     0.1685110
  H        3.3343810     0.7567850     1.4508530
  H        0.9047070     0.4438290     1.6934890
  H        0.9853290     2.1340670     1.1581470
  H        0.5274540     1.5132540    -1.1249130
  H        3.4174920    -0.3642830    -1.0666260
  H        2.1215313    -1.7199135     1.1124996
  H        3.7460890    -1.6095150     1.0882890
  H        3.1038510     2.7463240     0.1779830
  H       -0.3107400    -1.7892010    -0.5436980
  H        2.9100300    -3.5650720     0.1192120
  H       -2.7034680    -2.5490840    -0.1532500
  H       -5.0287110    -1.6377420    -0.0567190
  H       -5.2994710    -0.0137980     0.3861010
units angstrom
no_reorient  #important for SAPT in psi4, default
symmetry c1  #important for SAPT in psi4, default
}

set PROPERTIES_ORIGIN ["COM"]
properties('MP2/aug-cc-pvtz', properties = ['dipole'])
--------------------------------------------------------------------------

    Molecular point group: c1
  Charge       = 0
  Multiplicity = 1
  Basis Set: AUG-CC-PVTZ
    Blend: AUG-CC-PVTZ
  Basis Set: (AUG-CC-PVTZ AUX)
    Blend: AUG-CC-PVTZ-JKFIT

    Orbital Energies [Eh]
    ---------------------

    Doubly Occupied:

       1A    -20.574363     2A    -20.574217     3A    -20.573029
       4A    -20.503330     5A    -15.622043     6A    -15.588593
       7A    -15.541085     8A    -11.370179     9A    -11.345318
      10A    -11.331030    11A    -11.318662    12A    -11.300743
      13A    -11.291283    14A    -11.271324    15A    -11.237496
      16A    -11.237371    17A     -1.416848    18A     -1.382565
      19A     -1.372563    20A     -1.365112    21A     -1.292508
      22A     -1.261706    23A     -1.169382    24A     -1.079892
      25A     -1.071845    26A     -1.032332    27A     -0.940488
      28A     -0.900705    29A     -0.871410    30A     -0.831052
      31A     -0.814215    32A     -0.755713    33A     -0.741195
      34A     -0.725480    35A     -0.707370    36A     -0.692355
      37A     -0.690679    38A     -0.680721    39A     -0.661408
      40A     -0.639498    41A     -0.627840    42A     -0.619254
      43A     -0.604462    44A     -0.596279    45A     -0.589359
      46A     -0.572927    47A     -0.569095    48A     -0.547465
      49A     -0.532733    50A     -0.524821    51A     -0.510883
      52A     -0.486007    53A     -0.482570    54A     -0.474588
      55A     -0.461729    56A     -0.444533    57A     -0.437586
      58A     -0.416568    59A     -0.383992    60A     -0.335239

  @DF-RHF Final Energy:  -811.44882409466686

   => Energetics <=

    Nuclear Repulsion Energy =           1170.8779893785142576
    One-Electron Energy =               -3436.6635434931299642
    Two-Electron Energy =                1454.3367300199486181
    Total Energy =                       -811.4488240946668611
  Basis Set: (AUG-CC-PVTZ AUX)
    Blend: AUG-CC-PVTZ-RI
    Molecular point group: c1

    Geometry (in Angstrom), charge = 0, multiplicity = 1:

       Center              X                  Y                   Z               Mass
    ------------   -----------------  -----------------  -----------------  -----------------
         O            1.361401814282    -0.380069931350    -0.931263817096    15.994914619570
         O            3.201387814282     1.901154068650    -0.298932817096    15.994914619570
         O            2.798737814282    -2.749005931350    -0.399620817096    15.994914619570
         O           -1.362855185718     2.373946068650     0.155363182904    15.994914619570
         N           -0.798913185718     0.199359068650    -0.228675817096    14.003074004430
         N           -3.054841185718     0.805180068650     0.240592182904    14.003074004430
         N           -4.674079185718    -0.812493931350     0.413217182904    14.003074004430
         C            2.700925814282     0.875495068650     0.560054182904    12.000000000000
         C            1.236174814282     1.107167068650     0.888432182904    12.000000000000
         C            2.651149814282    -0.392349931350    -0.284889817096    12.000000000000
         C            0.573288814282     0.682945068650    -0.414335817096    12.000000000000
         C            2.801428814282    -1.660074931350     0.523050182904    12.000000000000
         C           -1.128006185718    -1.115877931350    -0.307695817096    12.000000000000
         C           -1.745357185718     1.203833068650     0.082625182904    12.000000000000
         C           -2.417976185718    -1.504619931350    -0.103961817096    12.000000000000
         C           -3.362661185718    -0.473218931350     0.169091182904    12.000000000000
         H            3.333711814282     0.756726068650     1.451433182904     1.007825032230
         H            0.904037814282     0.443770068650     1.694069182904     1.007825032230
         H            0.984659814282     2.134008068650     1.158727182904     1.007825032230
         H            0.526784814282     1.513195068650    -1.124332817096     1.007825032230
         H            3.416822814282    -0.364341931350    -1.066045817096     1.007825032230
         H            2.120862114282    -1.719972431350     1.113079782904     1.007825032230
         H            3.745419814282    -1.609573931350     1.088869182904     1.007825032230
         H            3.103181814282     2.746265068650     0.178563182904     1.007825032230
         H           -0.311409185718    -1.789259931350    -0.543117817096     1.007825032230
         H            2.909360814282    -3.565130931350     0.119792182904     1.007825032230
         H           -2.704137185718    -2.549142931350    -0.152669817096     1.007825032230
         H           -5.029380185718    -1.637800931350    -0.056138817096     1.007825032230
         H           -5.300140185718    -0.013856931350     0.386681182904     1.007825032230

  Basis Set: AUG-CC-PVTZ
    Blend: AUG-CC-PVTZ
  Basis Set: (AUG-CC-PVTZ AUX)
    Blend: AUG-CC-PVTZ-JKFIT
	 Reference Energy          =    -811.4488240946668611 [Eh]
	 Singles Energy            =      -0.0000000000000000 [Eh]
	 Same-Spin Energy          =      -0.8294620725136481 [Eh]
	 Opposite-Spin Energy      =      -2.5241970471271933 [Eh]
	 Correlation Energy        =      -3.3536591196408416 [Eh]
	 Total Energy              =    -814.8024832143076992 [Eh]

	 ================> DF-SCS-MP2 Energies <==================
	-----------------------------------------------------------
	 SCS Same-Spin Scale       =       0.3333333333333333 [-]
	 SCS Opposite-Spin Scale   =       1.2000000000000000 [-]
	 SCS Same-Spin Energy      =      -0.2764873575045493 [Eh]
	 SCS Opposite-Spin Energy  =      -3.0290364565526318 [Eh]
	 SCS Correlation Energy    =      -3.3055238140571812 [Eh]
	 SCS Total Energy          =    -814.7543479087240712 [Eh]
	-----------------------------------------------------------

  Dipole Moment: [D]
     X:     1.0021      Y:    -4.6397      Z:     2.5776     Total:     5.4014

*** Psi4 exiting successfully. Buy a developer a beer!
