                               Psi4 1.3.2 release

  ==> Input File <==

--------------------------------------------------------------------------
#psi4
#
memory 32 gb

molecule  {
0 1
  O        1.3620710    -0.3800110    -0.9318440
  O        3.2020570     1.9012130    -0.2995130
  O        2.7994070    -2.7489470    -0.4002010
  O       -1.3621860     2.3740050     0.1547830
  N       -0.7982440     0.1994180    -0.2292560
  N       -3.0541720     0.8052390     0.2400120
  N       -4.6616799    -0.8586450     0.4067017
  C        2.7015950     0.8755540     0.5594740
  C        1.2368440     1.1072260     0.8878520
  C        2.6518190    -0.3922910    -0.2854700
  C        0.5739580     0.6830040    -0.4149160
  C        2.8020980    -1.6600160     0.5224700
  C       -1.1273370    -1.1158190    -0.3082760
  C       -1.7446880     1.2038920     0.0820450
  C       -2.4537499    -1.5380512    -0.0995912
  C       -3.3619920    -0.4731600     0.1685110
  H        3.3343810     0.7567850     1.4508530
  H        0.9047070     0.4438290     1.6934890
  H        0.9853290     2.1340670     1.1581470
  H        0.5274540     1.5132540    -1.1249130
  H        3.4174920    -0.3642830    -1.0666260
  H        1.9707490    -1.7331840     1.2432230
  H        3.7460890    -1.6095150     1.0882890
  H        3.1038510     2.7463240     0.1779830
  H       -0.3107400    -1.7892010    -0.5436980
  H        2.9100300    -3.5650720     0.1192120
  H       -2.7034680    -2.5490840    -0.1532500
  H       -5.0287110    -1.6377420    -0.0567190
  H       -5.2994710    -0.0137980     0.3861010
units angstrom
no_reorient  #important for SAPT in psi4, default
symmetry c1  #important for SAPT in psi4, default
}

set PROPERTIES_ORIGIN ["COM"]
properties('MP2/aug-cc-pvtz', properties = ['dipole'])
--------------------------------------------------------------------------

    Molecular point group: c1
  Charge       = 0
  Multiplicity = 1
  Basis Set: AUG-CC-PVTZ
    Blend: AUG-CC-PVTZ
  Basis Set: (AUG-CC-PVTZ AUX)
    Blend: AUG-CC-PVTZ-JKFIT

    Orbital Energies [Eh]
    ---------------------

    Doubly Occupied:

       1A    -20.578218     2A    -20.575146     3A    -20.573980
       4A    -20.504737     5A    -15.626064     6A    -15.585815
       7A    -15.542012     8A    -11.371857     9A    -11.344307
      10A    -11.332538    11A    -11.325230    12A    -11.301776
      13A    -11.297446    14A    -11.293892    15A    -11.238057
      16A    -11.235879    17A     -1.417856    18A     -1.383610
      19A     -1.374182    20A     -1.366567    21A     -1.291193
      22A     -1.261384    23A     -1.170398    24A     -1.078053
      25A     -1.064915    26A     -1.027362    27A     -0.927692
      28A     -0.899004    29A     -0.870203    30A     -0.832417
      31A     -0.806398    32A     -0.749135    33A     -0.740844
      34A     -0.722305    35A     -0.708941    36A     -0.693338
      37A     -0.691373    38A     -0.675173    39A     -0.659107
      40A     -0.642903    41A     -0.627795    42A     -0.618272
      43A     -0.604513    44A     -0.592185    45A     -0.586464
      46A     -0.570303    47A     -0.568872    48A     -0.545434
      49A     -0.532773    50A     -0.525281    51A     -0.511176
      52A     -0.486672    53A     -0.481314    54A     -0.468973
      55A     -0.461521    56A     -0.445591    57A     -0.438419
      58A     -0.417757    59A     -0.384657    60A     -0.331077

  @DF-RHF Final Energy:  -811.47065175673538

   => Energetics <=

    Nuclear Repulsion Energy =           1168.8992317961790377
    One-Electron Energy =               -3432.7790570691327048
    Two-Electron Energy =                1452.4091735162185159
    Total Energy =                       -811.4706517567353785
  Basis Set: (AUG-CC-PVTZ AUX)
    Blend: AUG-CC-PVTZ-RI
    Molecular point group: c1

    Geometry (in Angstrom), charge = 0, multiplicity = 1:

       Center              X                  Y                   Z               Mass
    ------------   -----------------  -----------------  -----------------  -----------------
         O            1.363273399926    -0.375391891994    -0.931739589615    15.994914619570
         O            3.203259399926     1.905832108006    -0.299408589615    15.994914619570
         O            2.800609399926    -2.744327891994    -0.400096589615    15.994914619570
         O           -1.360983600074     2.378624108006     0.154887410385    15.994914619570
         N           -0.797041600074     0.204037108006    -0.229151589615    14.003074004430
         N           -3.052969600074     0.809858108006     0.240116410385    14.003074004430
         N           -4.660477500074    -0.854025891994     0.406806110385    14.003074004430
         C            2.702797399926     0.880173108006     0.559578410385    12.000000000000
         C            1.238046399926     1.111845108006     0.887956410385    12.000000000000
         C            2.653021399926    -0.387671891994    -0.285365589615    12.000000000000
         C            0.575160399926     0.687623108006    -0.414811589615    12.000000000000
         C            2.803300399926    -1.655396891994     0.522574410385    12.000000000000
         C           -1.126134600074    -1.111199891994    -0.308171589615    12.000000000000
         C           -1.743485600074     1.208511108006     0.082149410385    12.000000000000
         C           -2.452547500074    -1.533432091994    -0.099486789615    12.000000000000
         C           -3.360789600074    -0.468540891994     0.168615410385    12.000000000000
         H            3.335583399926     0.761404108006     1.450957410385     1.007825032230
         H            0.905909399926     0.448448108006     1.693593410385     1.007825032230
         H            0.986531399926     2.138686108006     1.158251410385     1.007825032230
         H            0.528656399926     1.517873108006    -1.124808589615     1.007825032230
         H            3.418694399926    -0.359663891994    -1.066521589615     1.007825032230
         H            1.971951399926    -1.728564891994     1.243327410385     1.007825032230
         H            3.747291399926    -1.604895891994     1.088393410385     1.007825032230
         H            3.105053399926     2.750943108006     0.178087410385     1.007825032230
         H           -0.309537600074    -1.784581891994    -0.543593589615     1.007825032230
         H            2.911232399926    -3.560452891994     0.119316410385     1.007825032230
         H           -2.702265600074    -2.544464891994    -0.153145589615     1.007825032230
         H           -5.027508600074    -1.633122891994    -0.056614589615     1.007825032230
         H           -5.298268600074    -0.009178891994     0.386205410385     1.007825032230

  Basis Set: AUG-CC-PVTZ
    Blend: AUG-CC-PVTZ
  Basis Set: (AUG-CC-PVTZ AUX)
    Blend: AUG-CC-PVTZ-JKFIT
	 Reference Energy          =    -811.4706517567353785 [Eh]
	 Singles Energy            =      -0.0000000000000000 [Eh]
	 Same-Spin Energy          =      -0.8300774887589902 [Eh]
	 Opposite-Spin Energy      =      -2.5260864443707494 [Eh]
	 Correlation Energy        =      -3.3561639331297397 [Eh]
	 Total Energy              =    -814.8268156898651569 [Eh]

	 ================> DF-SCS-MP2 Energies <==================
	-----------------------------------------------------------
	 SCS Same-Spin Scale       =       0.3333333333333333 [-]
	 SCS Opposite-Spin Scale   =       1.2000000000000000 [-]
	 SCS Same-Spin Energy      =      -0.2766924962529967 [Eh]
	 SCS Opposite-Spin Energy  =      -3.0313037332448993 [Eh]
	 SCS Correlation Energy    =      -3.3079962294978960 [Eh]
	 SCS Total Energy          =    -814.7786479862332953 [Eh]
	-----------------------------------------------------------

  Dipole Moment: [D]
     X:     1.1943      Y:    -4.5860      Z:     2.4762     Total:     5.3468

*** Psi4 exiting successfully. Buy a developer a beer!
