                               Psi4 1.3.2 release

  ==> Input File <==

--------------------------------------------------------------------------
#psi4
#
memory 32 gb

molecule  {
0 1
  O        1.3620710    -0.3800110    -0.9318440
  O        3.2020570     1.9012130    -0.2995130
  O        2.7994070    -2.7489470    -0.4002010
  O       -1.4232759     2.3914826     0.1662227
  N       -0.7982440     0.1994180    -0.2292560
  N       -3.0719521     0.8743512     0.2505652
  N       -4.6734100    -0.8124350     0.4126370
  C        2.7015950     0.8755540     0.5594740
  C        1.2368440     1.1072260     0.8878520
  C        2.6518190    -0.3922910    -0.2854700
  C        0.5739580     0.6830040    -0.4149160
  C        2.8020980    -1.6600160     0.5224700
  C       -1.1273370    -1.1158190    -0.3082760
  C       -1.7446880     1.2038920     0.0820450
  C       -2.4173070    -1.5045610    -0.1045420
  C       -3.3619920    -0.4731600     0.1685110
  H        3.3343810     0.7567850     1.4508530
  H        0.9047070     0.4438290     1.6934890
  H        0.9853290     2.1340670     1.1581470
  H        0.5274540     1.5132540    -1.1249130
  H        3.4174920    -0.3642830    -1.0666260
  H        1.9707490    -1.7331840     1.2432230
  H        3.7460890    -1.6095150     1.0882890
  H        3.1038510     2.7463240     0.1779830
  H       -0.3107400    -1.7892010    -0.5436980
  H        2.9100300    -3.5650720     0.1192120
  H       -2.7034680    -2.5490840    -0.1532500
  H       -5.0287110    -1.6377420    -0.0567190
  H       -5.2994710    -0.0137980     0.3861010
units angstrom
no_reorient  #important for SAPT in psi4, default
symmetry c1  #important for SAPT in psi4, default
}

set PROPERTIES_ORIGIN ["COM"]
properties('MP2/aug-cc-pvtz', properties = ['dipole'])
--------------------------------------------------------------------------

    Molecular point group: c1
  Charge       = 0
  Multiplicity = 1
  Basis Set: AUG-CC-PVTZ
    Blend: AUG-CC-PVTZ
  Basis Set: (AUG-CC-PVTZ AUX)
    Blend: AUG-CC-PVTZ-JKFIT

    Orbital Energies [Eh]
    ---------------------

    Doubly Occupied:

       1A    -20.578866     2A    -20.575204     3A    -20.574841
       4A    -20.494777     5A    -15.625838     6A    -15.592012
       7A    -15.544081     8A    -11.362789     9A    -11.351494
      10A    -11.333109    11A    -11.323152    12A    -11.302021
      13A    -11.298038    14A    -11.294407    15A    -11.240831
      16A    -11.238101    17A     -1.417841    18A     -1.378471
      19A     -1.374614    20A     -1.365573    21A     -1.285648
      22A     -1.260704    23A     -1.157489    24A     -1.080921
      25A     -1.070910    26A     -1.029147    27A     -0.927371
      28A     -0.900603    29A     -0.862089    30A     -0.830106
      31A     -0.807661    32A     -0.752862    33A     -0.740577
      34A     -0.721959    35A     -0.705719    36A     -0.694092
      37A     -0.689358    38A     -0.674170    39A     -0.656757
      40A     -0.638043    41A     -0.626282    42A     -0.618250
      43A     -0.602686    44A     -0.595770    45A     -0.584582
      46A     -0.571427    47A     -0.569362    48A     -0.545470
      49A     -0.530974    50A     -0.524733    51A     -0.510783
      52A     -0.487028    53A     -0.482207    54A     -0.469639
      55A     -0.462019    56A     -0.442117    57A     -0.437196
      58A     -0.417648    59A     -0.375961    60A     -0.334993

  @DF-RHF Final Energy:  -811.47008750594580

   => Energetics <=

    Nuclear Repulsion Energy =           1167.3781903108827009
    One-Electron Energy =               -3429.8138085223090457
    Two-Electron Energy =                1450.9655307054802051
    Total Energy =                       -811.4700875059459122
  Basis Set: (AUG-CC-PVTZ AUX)
    Blend: AUG-CC-PVTZ-RI
    Molecular point group: c1

    Geometry (in Angstrom), charge = 0, multiplicity = 1:

       Center              X                  Y                   Z               Mass
    ------------   -----------------  -----------------  -----------------  -----------------
         O            1.367470167315    -0.385503716794    -0.933300451673    15.994914619570
         O            3.207456167315     1.895720283206    -0.300969451673    15.994914619570
         O            2.804806167315    -2.754439716794    -0.401657451673    15.994914619570
         O           -1.417876732685     2.385989883206     0.164766248327    15.994914619570
         N           -0.792844832685     0.193925283206    -0.230712451673    14.003074004430
         N           -3.066552932685     0.868858483206     0.249108748327    14.003074004430
         N           -4.668010832685    -0.817927716794     0.411180548327    14.003074004430
         C            2.706994167315     0.870061283206     0.558017548327    12.000000000000
         C            1.242243167315     1.101733283206     0.886395548327    12.000000000000
         C            2.657218167315    -0.397783716794    -0.286926451673    12.000000000000
         C            0.579357167315     0.677511283206    -0.416372451673    12.000000000000
         C            2.807497167315    -1.665508716794     0.521013548327    12.000000000000
         C           -1.121937832685    -1.121311716794    -0.309732451673    12.000000000000
         C           -1.739288832685     1.198399283206     0.080588548327    12.000000000000
         C           -2.411907832685    -1.510053716794    -0.105998451673    12.000000000000
         C           -3.356592832685    -0.478652716794     0.167054548327    12.000000000000
         H            3.339780167315     0.751292283206     1.449396548327     1.007825032230
         H            0.910106167315     0.438336283206     1.692032548327     1.007825032230
         H            0.990728167315     2.128574283206     1.156690548327     1.007825032230
         H            0.532853167315     1.507761283206    -1.126369451673     1.007825032230
         H            3.422891167315    -0.369775716794    -1.068082451673     1.007825032230
         H            1.976148167315    -1.738676716794     1.241766548327     1.007825032230
         H            3.751488167315    -1.615007716794     1.086832548327     1.007825032230
         H            3.109250167315     2.740831283206     0.176526548327     1.007825032230
         H           -0.305340832685    -1.794693716794    -0.545154451673     1.007825032230
         H            2.915429167315    -3.570564716794     0.117755548327     1.007825032230
         H           -2.698068832685    -2.554576716794    -0.154706451673     1.007825032230
         H           -5.023311832685    -1.643234716794    -0.058175451673     1.007825032230
         H           -5.294071832685    -0.019290716794     0.384644548327     1.007825032230

  Basis Set: AUG-CC-PVTZ
    Blend: AUG-CC-PVTZ
  Basis Set: (AUG-CC-PVTZ AUX)
    Blend: AUG-CC-PVTZ-JKFIT
	 Reference Energy          =    -811.4700875059457985 [Eh]
	 Singles Energy            =      -0.0000000000000000 [Eh]
	 Same-Spin Energy          =      -0.8300735384018615 [Eh]
	 Opposite-Spin Energy      =      -2.5268030481989219 [Eh]
	 Correlation Energy        =      -3.3568765866007833 [Eh]
	 Total Energy              =    -814.8269640925466319 [Eh]

	 ================> DF-SCS-MP2 Energies <==================
	-----------------------------------------------------------
	 SCS Same-Spin Scale       =       0.3333333333333333 [-]
	 SCS Opposite-Spin Scale   =       1.2000000000000000 [-]
	 SCS Same-Spin Energy      =      -0.2766911794672872 [Eh]
	 SCS Opposite-Spin Energy  =      -3.0321636578387063 [Eh]
	 SCS Correlation Energy    =      -3.3088548373059936 [Eh]
	 SCS Total Energy          =    -814.7789423432517424 [Eh]
	-----------------------------------------------------------

  Dipole Moment: [D]
     X:     1.1892      Y:    -4.9755      Z:     2.4584     Total:     5.6757

*** Psi4 exiting successfully. Buy a developer a beer!
