                               Psi4 1.3.2 release

  ==> Input File <==

--------------------------------------------------------------------------
#psi4
#
memory 32 gb

molecule  {
0 1
  O        1.3620710    -0.3800110    -0.9318440
  O        3.2020570     1.9012130    -0.2995130
  O        2.7968004    -2.7327630    -0.4189574
  O       -1.3621860     2.3740050     0.1547830
  N       -0.7982440     0.1994180    -0.2292560
  N       -3.0541720     0.8052390     0.2400120
  N       -4.6734100    -0.8124350     0.4126370
  C        2.7015950     0.8755540     0.5594740
  C        1.2368440     1.1072260     0.8878520
  C        2.6509822    -0.4067197    -0.3075239
  C        0.5739580     0.6830040    -0.4149160
  C        2.8020980    -1.6600160     0.5224700
  C       -1.1273370    -1.1158190    -0.3082760
  C       -1.7446880     1.2038920     0.0820450
  C       -2.4173070    -1.5045610    -0.1045420
  C       -3.3619920    -0.4731600     0.1685110
  H        3.3343810     0.7567850     1.4508530
  H        0.9047070     0.4438290     1.6934890
  H        0.9853290     2.1340670     1.1581470
  H        0.5274540     1.5132540    -1.1249130
  H        3.4174920    -0.3642830    -1.0666260
  H        1.9707490    -1.7331840     1.2432230
  H        3.7460890    -1.6095150     1.0882890
  H        3.1038510     2.7463240     0.1779830
  H       -0.3107400    -1.7892010    -0.5436980
  H        2.9100300    -3.5650720     0.1192120
  H       -2.7034680    -2.5490840    -0.1532500
  H       -5.0287110    -1.6377420    -0.0567190
  H       -5.2994710    -0.0137980     0.3861010
units angstrom
no_reorient  #important for SAPT in psi4, default
symmetry c1  #important for SAPT in psi4, default
}

set PROPERTIES_ORIGIN ["COM"]
properties('MP2/aug-cc-pvtz', properties = ['dipole'])
--------------------------------------------------------------------------

    Molecular point group: c1
  Charge       = 0
  Multiplicity = 1
  Basis Set: AUG-CC-PVTZ
    Blend: AUG-CC-PVTZ
  Basis Set: (AUG-CC-PVTZ AUX)
    Blend: AUG-CC-PVTZ-JKFIT

    Orbital Energies [Eh]
    ---------------------

    Doubly Occupied:

       1A    -20.580091     2A    -20.573358     3A    -20.573039
       4A    -20.503091     5A    -15.621900     6A    -15.588414
       7A    -15.540878     8A    -11.369998     9A    -11.345107
      10A    -11.331221    11A    -11.318395    12A    -11.300327
      13A    -11.295882    14A    -11.291834    15A    -11.237111
      16A    -11.236120    17A     -1.417847    18A     -1.382193
      19A     -1.370978    20A     -1.364155    21A     -1.292348
      22A     -1.261678    23A     -1.169229    24A     -1.077898
      25A     -1.065877    26A     -1.027426    27A     -0.925028
      28A     -0.897324    29A     -0.867500    30A     -0.830561
      31A     -0.808062    32A     -0.754404    33A     -0.738708
      34A     -0.718417    35A     -0.705680    36A     -0.690719
      37A     -0.688274    38A     -0.676364    39A     -0.656883
      40A     -0.636482    41A     -0.627481    42A     -0.618174
      43A     -0.604442    44A     -0.595231    45A     -0.588795
      46A     -0.573188    47A     -0.569613    48A     -0.546015
      49A     -0.531988    50A     -0.523343    51A     -0.510792
      52A     -0.482661    53A     -0.479145    54A     -0.468439
      55A     -0.460471    56A     -0.444616    57A     -0.437546
      58A     -0.416414    59A     -0.383785    60A     -0.334993

  @DF-RHF Final Energy:  -811.47648545645188

   => Energetics <=

    Nuclear Repulsion Energy =           1169.9786341901683500
    One-Electron Energy =               -3435.0543710387560168
    Two-Electron Energy =                1453.5992513921355567
    Total Energy =                       -811.4764854564518828
  Basis Set: (AUG-CC-PVTZ AUX)
    Blend: AUG-CC-PVTZ-RI
    Molecular point group: c1

    Geometry (in Angstrom), charge = 0, multiplicity = 1:

       Center              X                  Y                   Z               Mass
    ------------   -----------------  -----------------  -----------------  -----------------
         O            1.362298795995    -0.380388495634    -0.929357496489    15.994914619570
         O            3.202284795995     1.900835504366    -0.297026496489    15.994914619570
         O            2.797028195995    -2.733140495634    -0.416470896489    15.994914619570
         O           -1.361958204005     2.373627504366     0.157269503511    15.994914619570
         N           -0.798016204005     0.199040504366    -0.226769496489    14.003074004430
         N           -3.053944204005     0.804861504366     0.242498503511    14.003074004430
         N           -4.673182204005    -0.812812495634     0.415123503511    14.003074004430
         C            2.701822795995     0.875176504366     0.561960503511    12.000000000000
         C            1.237071795995     1.106848504366     0.890338503511    12.000000000000
         C            2.651209995995    -0.407097195634    -0.305037396489    12.000000000000
         C            0.574185795995     0.682626504366    -0.412429496489    12.000000000000
         C            2.802325795995    -1.660393495634     0.524956503511    12.000000000000
         C           -1.127109204005    -1.116196495634    -0.305789496489    12.000000000000
         C           -1.744460204005     1.203514504366     0.084531503511    12.000000000000
         C           -2.417079204005    -1.504938495634    -0.102055496489    12.000000000000
         C           -3.361764204005    -0.473537495634     0.170997503511    12.000000000000
         H            3.334608795995     0.756407504366     1.453339503511     1.007825032230
         H            0.904934795995     0.443451504366     1.695975503511     1.007825032230
         H            0.985556795995     2.133689504366     1.160633503511     1.007825032230
         H            0.527681795995     1.512876504366    -1.122426496489     1.007825032230
         H            3.417719795995    -0.364660495634    -1.064139496489     1.007825032230
         H            1.970976795995    -1.733561495634     1.245709503511     1.007825032230
         H            3.746316795995    -1.609892495634     1.090775503511     1.007825032230
         H            3.104078795995     2.745946504366     0.180469503511     1.007825032230
         H           -0.310512204005    -1.789578495634    -0.541211496489     1.007825032230
         H            2.910257795995    -3.565449495634     0.121698503511     1.007825032230
         H           -2.703240204005    -2.549461495634    -0.150763496489     1.007825032230
         H           -5.028483204005    -1.638119495634    -0.054232496489     1.007825032230
         H           -5.299243204005    -0.014175495634     0.388587503511     1.007825032230

  Basis Set: AUG-CC-PVTZ
    Blend: AUG-CC-PVTZ
  Basis Set: (AUG-CC-PVTZ AUX)
    Blend: AUG-CC-PVTZ-JKFIT
	 Reference Energy          =    -811.4764854564518828 [Eh]
	 Singles Energy            =      -0.0000000000000000 [Eh]
	 Same-Spin Energy          =      -0.8298622856812301 [Eh]
	 Opposite-Spin Energy      =      -2.5258326713267030 [Eh]
	 Correlation Energy        =      -3.3556949570079331 [Eh]
	 Total Energy              =    -814.8321804134598096 [Eh]

	 ================> DF-SCS-MP2 Energies <==================
	-----------------------------------------------------------
	 SCS Same-Spin Scale       =       0.3333333333333333 [-]
	 SCS Opposite-Spin Scale   =       1.2000000000000000 [-]
	 SCS Same-Spin Energy      =      -0.2766207618937433 [Eh]
	 SCS Opposite-Spin Energy  =      -3.0309992055920434 [Eh]
	 SCS Correlation Energy    =      -3.3076199674857869 [Eh]
	 SCS Total Energy          =    -814.7841054239377172 [Eh]
	-----------------------------------------------------------

  Dipole Moment: [D]
     X:     1.0592      Y:    -4.7221      Z:     2.4807     Total:     5.4382

*** Psi4 exiting successfully. Buy a developer a beer!
