                               Psi4 1.3.2 release

  ==> Input File <==

--------------------------------------------------------------------------
#psi4
#
memory 32 gb

molecule  {
0 1
  O        1.3620710    -0.3800110    -0.9318440
  O        3.2020570     1.9012130    -0.2995130
  O        2.7994070    -2.7489470    -0.4002010
  O       -1.3621860     2.3740050     0.1547830
  N       -0.7982440     0.1994180    -0.2292560
  N       -3.0541720     0.8052390     0.2400120
  N       -4.6734100    -0.8124350     0.4126370
  C        2.7015950     0.8755540     0.5594740
  C        1.2368440     1.1072260     0.8878520
  C        2.6518190    -0.3922910    -0.2854700
  C        0.5739580     0.6830040    -0.4149160
  C        2.8225756    -1.6669379     0.5073697
  C       -1.1273370    -1.1158190    -0.3082760
  C       -1.7446880     1.2038920     0.0820450
  C       -2.4173070    -1.5045610    -0.1045420
  C       -3.3619920    -0.4731600     0.1685110
  H        3.3343810     0.7567850     1.4508530
  H        0.9047070     0.4438290     1.6934890
  H        0.9853290     2.1340670     1.1581470
  H        0.5274540     1.5132540    -1.1249130
  H        3.4241201    -0.3811123    -1.0604993
  H        1.9707490    -1.7331840     1.2432230
  H        3.7460890    -1.6095150     1.0882890
  H        3.1038510     2.7463240     0.1779830
  H       -0.3107400    -1.7892010    -0.5436980
  H        2.9100300    -3.5650720     0.1192120
  H       -2.7034680    -2.5490840    -0.1532500
  H       -5.0287110    -1.6377420    -0.0567190
  H       -5.2994710    -0.0137980     0.3861010
units angstrom
no_reorient  #important for SAPT in psi4, default
symmetry c1  #important for SAPT in psi4, default
}

set PROPERTIES_ORIGIN ["COM"]
properties('MP2/aug-cc-pvtz', properties = ['dipole'])
--------------------------------------------------------------------------

    Molecular point group: c1
  Charge       = 0
  Multiplicity = 1
  Basis Set: AUG-CC-PVTZ
    Blend: AUG-CC-PVTZ
  Basis Set: (AUG-CC-PVTZ AUX)
    Blend: AUG-CC-PVTZ-JKFIT

    Orbital Energies [Eh]
    ---------------------

    Doubly Occupied:

       1A    -20.579279     2A    -20.574169     3A    -20.573232
       4A    -20.502914     5A    -15.621596     6A    -15.588233
       7A    -15.540654     8A    -11.369765     9A    -11.344892
      10A    -11.330722    11A    -11.318121    12A    -11.301082
      13A    -11.297280    14A    -11.292874    15A    -11.236846
      16A    -11.236560    17A     -1.416781    18A     -1.383211
      19A     -1.377464    20A     -1.366607    21A     -1.292087
      22A     -1.261284    23A     -1.168973    24A     -1.078740
      25A     -1.068580    26A     -1.027895    27A     -0.926406
      28A     -0.896997    29A     -0.868588    30A     -0.830697
      31A     -0.805658    32A     -0.754090    33A     -0.738779
      34A     -0.722689    35A     -0.706872    36A     -0.695372
      37A     -0.689120    38A     -0.675425    39A     -0.656061
      40A     -0.637506    41A     -0.627456    42A     -0.618493
      43A     -0.605707    44A     -0.595160    45A     -0.589422
      46A     -0.572737    47A     -0.569478    48A     -0.544717
      49A     -0.532435    50A     -0.523972    51A     -0.509968
      52A     -0.486298    53A     -0.482004    54A     -0.466441
      55A     -0.459300    56A     -0.444258    57A     -0.437574
      58A     -0.416167    59A     -0.383611    60A     -0.334780

  @DF-RHF Final Energy:  -811.47881126303560

   => Energetics <=

    Nuclear Repulsion Energy =           1169.8400566375396465
    One-Electron Energy =               -3434.7295787251009642
    Two-Electron Energy =                1453.4107108245254949
    Total Energy =                       -811.4788112630355954
  Basis Set: (AUG-CC-PVTZ AUX)
    Blend: AUG-CC-PVTZ-RI
    Molecular point group: c1

    Geometry (in Angstrom), charge = 0, multiplicity = 1:

       Center              X                  Y                   Z               Mass
    ------------   -----------------  -----------------  -----------------  -----------------
         O            1.360959484277    -0.379570579422    -0.931073220733    15.994914619570
         O            3.200945484277     1.901653420578    -0.298742220733    15.994914619570
         O            2.798295484277    -2.748506579422    -0.399430220733    15.994914619570
         O           -1.363297515723     2.374445420578     0.155553779267    15.994914619570
         N           -0.799355515723     0.199858420578    -0.228485220733    14.003074004430
         N           -3.055283515723     0.805679420578     0.240782779267    14.003074004430
         N           -4.674521515723    -0.811994579422     0.413407779267    14.003074004430
         C            2.700483484277     0.875994420578     0.560244779267    12.000000000000
         C            1.235732484277     1.107666420578     0.888622779267    12.000000000000
         C            2.650707484277    -0.391850579422    -0.284699220733    12.000000000000
         C            0.572846484277     0.683444420578    -0.414145220733    12.000000000000
         C            2.821464084277    -1.666497479422     0.508140479267    12.000000000000
         C           -1.128448515723    -1.115378579422    -0.307505220733    12.000000000000
         C           -1.745799515723     1.204332420578     0.082815779267    12.000000000000
         C           -2.418418515723    -1.504120579422    -0.103771220733    12.000000000000
         C           -3.363103515723    -0.472719579422     0.169281779267    12.000000000000
         H            3.333269484277     0.757225420578     1.451623779267     1.007825032230
         H            0.903595484277     0.444269420578     1.694259779267     1.007825032230
         H            0.984217484277     2.134507420578     1.158917779267     1.007825032230
         H            0.526342484277     1.513694420578    -1.124142220733     1.007825032230
         H            3.423008584277    -0.380671879422    -1.059728520733     1.007825032230
         H            1.969637484277    -1.732743579422     1.243993779267     1.007825032230
         H            3.744977484277    -1.609074579422     1.089059779267     1.007825032230
         H            3.102739484277     2.746764420578     0.178753779267     1.007825032230
         H           -0.311851515723    -1.788760579422    -0.542927220733     1.007825032230
         H            2.908918484277    -3.564631579422     0.119982779267     1.007825032230
         H           -2.704579515723    -2.548643579422    -0.152479220733     1.007825032230
         H           -5.029822515723    -1.637301579422    -0.055948220733     1.007825032230
         H           -5.300582515723    -0.013357579422     0.386871779267     1.007825032230

  Basis Set: AUG-CC-PVTZ
    Blend: AUG-CC-PVTZ
  Basis Set: (AUG-CC-PVTZ AUX)
    Blend: AUG-CC-PVTZ-JKFIT
	 Reference Energy          =    -811.4788112630355954 [Eh]
	 Singles Energy            =      -0.0000000000000000 [Eh]
	 Same-Spin Energy          =      -0.8296351873796344 [Eh]
	 Opposite-Spin Energy      =      -2.5248802186480237 [Eh]
	 Correlation Energy        =      -3.3545154060276579 [Eh]
	 Total Energy              =    -814.8333266690632399 [Eh]

	 ================> DF-SCS-MP2 Energies <==================
	-----------------------------------------------------------
	 SCS Same-Spin Scale       =       0.3333333333333333 [-]
	 SCS Opposite-Spin Scale   =       1.2000000000000000 [-]
	 SCS Same-Spin Energy      =      -0.2765450624598781 [Eh]
	 SCS Opposite-Spin Energy  =      -3.0298562623776282 [Eh]
	 SCS Correlation Energy    =      -3.3064013248375064 [Eh]
	 SCS Total Energy          =    -814.7852125878730476 [Eh]
	-----------------------------------------------------------

  Dipole Moment: [D]
     X:     1.1112      Y:    -4.7283      Z:     2.4556     Total:     5.4425

*** Psi4 exiting successfully. Buy a developer a beer!
