                               Psi4 1.3.2 release

  ==> Input File <==

--------------------------------------------------------------------------
#psi4
#
memory 32 gb

molecule  {
0 1
  O        1.3620710    -0.3800110    -0.9318440
  O        3.2020570     1.9012130    -0.2995130
  O        2.7994070    -2.7489470    -0.4002010
  O       -1.3621860     2.3740050     0.1547830
  N       -0.7982440     0.1994180    -0.2292560
  N       -3.0541720     0.8052390     0.2400120
  N       -4.6734100    -0.8124350     0.4126370
  C        2.7015950     0.8755540     0.5594740
  C        1.2368440     1.1072260     0.8878520
  C        2.6518190    -0.3922910    -0.2854700
  C        0.5739580     0.6830040    -0.4149160
  C        2.8020980    -1.6600160     0.5224700
  C       -1.1273370    -1.1158190    -0.3082760
  C       -1.7446880     1.2038920     0.0820450
  C       -2.4173070    -1.5045610    -0.1045420
  C       -3.3619920    -0.4731600     0.1685110
  H        3.3343810     0.7567850     1.4508530
  H        0.9047070     0.4438290     1.6934890
  H        0.9853290     2.1340670     1.1581470
  H        0.5274540     1.5132540    -1.1249130
  H        3.4174920    -0.3642830    -1.0666260
  H        1.9707490    -1.7331840     1.2432230
  H        3.7460890    -1.6095150     1.0882890
  H        3.1038510     2.7463240     0.1779830
  H       -0.3107400    -1.7892010    -0.5436980
  H        2.9100300    -3.5650720     0.1192120
  H       -2.7034680    -2.5490840    -0.1532500
  H       -4.9586138    -1.4749175     0.0358800
  H       -5.2994710    -0.0137980     0.3861010
units angstrom
no_reorient  #important for SAPT in psi4, default
symmetry c1  #important for SAPT in psi4, default
}

set PROPERTIES_ORIGIN ["COM"]
properties('MP2/aug-cc-pvtz', properties = ['dipole'])
--------------------------------------------------------------------------

    Molecular point group: c1
  Charge       = 0
  Multiplicity = 1
  Basis Set: AUG-CC-PVTZ
    Blend: AUG-CC-PVTZ
  Basis Set: (AUG-CC-PVTZ AUX)
    Blend: AUG-CC-PVTZ-JKFIT

    Orbital Energies [Eh]
    ---------------------

    Doubly Occupied:

       1A    -20.578009     2A    -20.574661     3A    -20.573332
       4A    -20.503622     5A    -15.622688     6A    -15.566631
       7A    -15.541420     8A    -11.370385     9A    -11.345721
      10A    -11.331276    11A    -11.319337    12A    -11.301215
      13A    -11.297166    14A    -11.293425    15A    -11.237988
      16A    -11.237237    17A     -1.417143    18A     -1.383097
      19A     -1.373859    20A     -1.366103    21A     -1.303274
      22A     -1.271798    23A     -1.188469    24A     -1.079670
      25A     -1.069768    26A     -1.030089    27A     -0.931124
      28A     -0.898425    29A     -0.880687    30A     -0.836119
      31A     -0.806853    32A     -0.766211    33A     -0.740776
      34A     -0.726787    35A     -0.716082    36A     -0.695931
      37A     -0.693302    38A     -0.685572    39A     -0.660302
      40A     -0.638174    41A     -0.628251    42A     -0.619350
      43A     -0.606074    44A     -0.595996    45A     -0.590337
      46A     -0.573394    47A     -0.569286    48A     -0.545447
      49A     -0.534177    50A     -0.524175    51A     -0.511321
      52A     -0.486294    53A     -0.482643    54A     -0.468821
      55A     -0.461613    56A     -0.445086    57A     -0.438648
      58A     -0.417120    59A     -0.386518    60A     -0.335676

  @DF-RHF Final Energy:  -811.43472017044678

   => Energetics <=

    Nuclear Repulsion Energy =           1171.2556488429961519
    One-Electron Energy =               -3437.2328246855131511
    Two-Electron Energy =                1454.5424556720699911
    Total Energy =                       -811.4347201704467807
  Basis Set: (AUG-CC-PVTZ AUX)
    Blend: AUG-CC-PVTZ-RI
    Molecular point group: c1

    Geometry (in Angstrom), charge = 0, multiplicity = 1:

       Center              X                  Y                   Z               Mass
    ------------   -----------------  -----------------  -----------------  -----------------
         O            1.361759893663    -0.380733649976    -0.932254918882    15.994914619570
         O            3.201745893663     1.900490350024    -0.299923918882    15.994914619570
         O            2.799095893663    -2.749669649976    -0.400611918882    15.994914619570
         O           -1.362497106337     2.373282350024     0.154372081118    15.994914619570
         N           -0.798555106337     0.198695350024    -0.229666918882    14.003074004430
         N           -3.054483106337     0.804516350024     0.239601081118    14.003074004430
         N           -4.673721106337    -0.813157649976     0.412226081118    14.003074004430
         C            2.701283893663     0.874831350024     0.559063081118    12.000000000000
         C            1.236532893663     1.106503350024     0.887441081118    12.000000000000
         C            2.651507893663    -0.393013649976    -0.285880918882    12.000000000000
         C            0.573646893663     0.682281350024    -0.415326918882    12.000000000000
         C            2.801786893663    -1.660738649976     0.522059081118    12.000000000000
         C           -1.127648106337    -1.116541649976    -0.308686918882    12.000000000000
         C           -1.744999106337     1.203169350024     0.081634081118    12.000000000000
         C           -2.417618106337    -1.505283649976    -0.104952918882    12.000000000000
         C           -3.362303106337    -0.473882649976     0.168100081118    12.000000000000
         H            3.334069893663     0.756062350024     1.450442081118     1.007825032230
         H            0.904395893663     0.443106350024     1.693078081118     1.007825032230
         H            0.985017893663     2.133344350024     1.157736081118     1.007825032230
         H            0.527142893663     1.512531350024    -1.125323918882     1.007825032230
         H            3.417180893663    -0.365005649976    -1.067036918882     1.007825032230
         H            1.970437893663    -1.733906649976     1.242812081118     1.007825032230
         H            3.745777893663    -1.610237649976     1.087878081118     1.007825032230
         H            3.103539893663     2.745601350024     0.177572081118     1.007825032230
         H           -0.311051106337    -1.789923649976    -0.544108918882     1.007825032230
         H            2.909718893663    -3.565794649976     0.118801081118     1.007825032230
         H           -2.703779106337    -2.549806649976    -0.153660918882     1.007825032230
         H           -4.958924906337    -1.475640149976     0.035469081118     1.007825032230
         H           -5.299782106337    -0.014520649976     0.385690081118     1.007825032230

  Basis Set: AUG-CC-PVTZ
    Blend: AUG-CC-PVTZ
  Basis Set: (AUG-CC-PVTZ AUX)
    Blend: AUG-CC-PVTZ-JKFIT
	 Reference Energy          =    -811.4347201704467807 [Eh]
	 Singles Energy            =      -0.0000000000000000 [Eh]
	 Same-Spin Energy          =      -0.8286857052170602 [Eh]
	 Opposite-Spin Energy      =      -2.5226252840255770 [Eh]
	 Correlation Energy        =      -3.3513109892426369 [Eh]
	 Total Energy              =    -814.7860311596894007 [Eh]

	 ================> DF-SCS-MP2 Energies <==================
	-----------------------------------------------------------
	 SCS Same-Spin Scale       =       0.3333333333333333 [-]
	 SCS Opposite-Spin Scale   =       1.2000000000000000 [-]
	 SCS Same-Spin Energy      =      -0.2762285684056867 [Eh]
	 SCS Opposite-Spin Energy  =      -3.0271503408306923 [Eh]
	 SCS Correlation Energy    =      -3.3033789092363790 [Eh]
	 SCS Total Energy          =    -814.7380990796831384 [Eh]
	-----------------------------------------------------------

  Dipole Moment: [D]
     X:     1.1938      Y:    -4.5440      Z:     2.5396     Total:     5.3406

*** Psi4 exiting successfully. Buy a developer a beer!
