                               Psi4 1.3.2 release

  ==> Input File <==

--------------------------------------------------------------------------
#psi4
#
memory 32 gb

molecule  {
0 1
  O        1.3620710    -0.3800110    -0.9318440
  O        3.2020570     1.9012130    -0.2995130
  O        2.7994070    -2.7489470    -0.4002010
  O       -1.3621860     2.3740050     0.1547830
  N       -0.8021777     0.1875869    -0.3050255
  N       -3.0541720     0.8052390     0.2400120
  N       -4.6734100    -0.8124350     0.4126370
  C        2.7015950     0.8755540     0.5594740
  C        1.3021672     1.1257477     0.8461455
  C        2.6518190    -0.3922910    -0.2854700
  C        0.5739580     0.6830040    -0.4149160
  C        2.8020980    -1.6600160     0.5224700
  C       -1.1273370    -1.1158190    -0.3082760
  C       -1.7446880     1.2038920     0.0820450
  C       -2.4173070    -1.5045610    -0.1045420
  C       -3.3619920    -0.4731600     0.1685110
  H        3.3343810     0.7567850     1.4508530
  H        0.9047070     0.4438290     1.6934890
  H        0.9853290     2.1340670     1.1581470
  H        0.5274540     1.5132540    -1.1249130
  H        3.4174920    -0.3642830    -1.0666260
  H        1.9707490    -1.7331840     1.2432230
  H        3.7460890    -1.6095150     1.0882890
  H        3.1038510     2.7463240     0.1779830
  H       -0.3107400    -1.7892010    -0.5436980
  H        2.9100300    -3.5650720     0.1192120
  H       -2.7034680    -2.5490840    -0.1532500
  H       -5.0287110    -1.6377420    -0.0567190
  H       -5.2994710    -0.0137980     0.3861010
units angstrom
no_reorient  #important for SAPT in psi4, default
symmetry c1  #important for SAPT in psi4, default
}

set PROPERTIES_ORIGIN ["COM"]
properties('MP2/aug-cc-pvtz', properties = ['dipole'])
--------------------------------------------------------------------------

    Molecular point group: c1
  Charge       = 0
  Multiplicity = 1
  Basis Set: AUG-CC-PVTZ
    Blend: AUG-CC-PVTZ
  Basis Set: (AUG-CC-PVTZ AUX)
    Blend: AUG-CC-PVTZ-JKFIT

    Orbital Energies [Eh]
    ---------------------

    Doubly Occupied:

       1A    -20.577472     2A    -20.573214     3A    -20.571440
       4A    -20.507842     5A    -15.623432     6A    -15.588705
       7A    -15.541431     8A    -11.373908     9A    -11.345571
      10A    -11.330895    11A    -11.316954    12A    -11.298699
      13A    -11.296615    14A    -11.293295    15A    -11.241782
      16A    -11.235494    17A     -1.417539    18A     -1.382926
      19A     -1.374055    20A     -1.366132    21A     -1.294043
      22A     -1.262899    23A     -1.169784    24A     -1.085343
      25A     -1.070557    26A     -1.028271    27A     -0.929746
      28A     -0.895167    29A     -0.868557    30A     -0.829063
      31A     -0.808788    32A     -0.753200    33A     -0.741099
      34A     -0.721491    35A     -0.707615    36A     -0.692743
      37A     -0.687945    38A     -0.675175    39A     -0.657276
      40A     -0.641011    41A     -0.624817    42A     -0.619967
      43A     -0.603350    44A     -0.594031    45A     -0.589086
      46A     -0.579716    47A     -0.569603    48A     -0.541894
      49A     -0.529846    50A     -0.521730    51A     -0.501453
      52A     -0.489408    53A     -0.485461    54A     -0.469315
      55A     -0.464696    56A     -0.446778    57A     -0.436012
      58A     -0.416789    59A     -0.384720    60A     -0.334579

  @DF-RHF Final Energy:  -811.46878308427574

   => Energetics <=

    Nuclear Repulsion Energy =           1170.0697904641658624
    One-Electron Energy =               -3435.1162913742978162
    Two-Electron Energy =                1453.5777178258558706
    Total Energy =                       -811.4687830842758558
  Basis Set: (AUG-CC-PVTZ AUX)
    Blend: AUG-CC-PVTZ-RI
    Molecular point group: c1

    Geometry (in Angstrom), charge = 0, multiplicity = 1:

       Center              X                  Y                   Z               Mass
    ------------   -----------------  -----------------  -----------------  -----------------
         O            1.358861716557    -0.380260226712    -0.924967926541    15.994914619570
         O            3.198847716557     1.900963773288    -0.292636926541    15.994914619570
         O            2.796197716557    -2.749196226712    -0.393324926541    15.994914619570
         O           -1.365395283443     2.373755773288     0.161659073459    15.994914619570
         N           -0.805386983443     0.187337673288    -0.298149426541    14.003074004430
         N           -3.057381283443     0.804989773288     0.246888073459    14.003074004430
         N           -4.676619283443    -0.812684226712     0.419513073459    14.003074004430
         C            2.698385716557     0.875304773288     0.566350073459    12.000000000000
         C            1.298957916557     1.125498473288     0.853021573459    12.000000000000
         C            2.648609716557    -0.392540226712    -0.278593926541    12.000000000000
         C            0.570748716557     0.682754773288    -0.408039926541    12.000000000000
         C            2.798888716557    -1.660265226712     0.529346073459    12.000000000000
         C           -1.130546283443    -1.116068226712    -0.301399926541    12.000000000000
         C           -1.747897283443     1.203642773288     0.088921073459    12.000000000000
         C           -2.420516283443    -1.504810226712    -0.097665926541    12.000000000000
         C           -3.365201283443    -0.473409226712     0.175387073459    12.000000000000
         H            3.331171716557     0.756535773288     1.457729073459     1.007825032230
         H            0.901497716557     0.443579773288     1.700365073459     1.007825032230
         H            0.982119716557     2.133817773288     1.165023073459     1.007825032230
         H            0.524244716557     1.513004773288    -1.118036926541     1.007825032230
         H            3.414282716557    -0.364532226712    -1.059749926541     1.007825032230
         H            1.967539716557    -1.733433226712     1.250099073459     1.007825032230
         H            3.742879716557    -1.609764226712     1.095165073459     1.007825032230
         H            3.100641716557     2.746074773288     0.184859073459     1.007825032230
         H           -0.313949283443    -1.789450226712    -0.536821926541     1.007825032230
         H            2.906820716557    -3.565321226712     0.126088073459     1.007825032230
         H           -2.706677283443    -2.549333226712    -0.146373926541     1.007825032230
         H           -5.031920283443    -1.637991226712    -0.049842926541     1.007825032230
         H           -5.302680283443    -0.014047226712     0.392977073459     1.007825032230

  Basis Set: AUG-CC-PVTZ
    Blend: AUG-CC-PVTZ
  Basis Set: (AUG-CC-PVTZ AUX)
    Blend: AUG-CC-PVTZ-JKFIT
	 Reference Energy          =    -811.4687830842757421 [Eh]
	 Singles Energy            =      -0.0000000000000000 [Eh]
	 Same-Spin Energy          =      -0.8303672009125028 [Eh]
	 Opposite-Spin Energy      =      -2.5259799495456843 [Eh]
	 Correlation Energy        =      -3.3563471504581872 [Eh]
	 Total Energy              =    -814.8251302347339333 [Eh]

	 ================> DF-SCS-MP2 Energies <==================
	-----------------------------------------------------------
	 SCS Same-Spin Scale       =       0.3333333333333333 [-]
	 SCS Opposite-Spin Scale   =       1.2000000000000000 [-]
	 SCS Same-Spin Energy      =      -0.2767890669708343 [Eh]
	 SCS Opposite-Spin Energy  =      -3.0311759394548212 [Eh]
	 SCS Correlation Energy    =      -3.3079650064256554 [Eh]
	 SCS Total Energy          =    -814.7767480907014033 [Eh]
	-----------------------------------------------------------

  Dipole Moment: [D]
     X:     0.9916      Y:    -4.5814      Z:     2.5323     Total:     5.3277

*** Psi4 exiting successfully. Buy a developer a beer!
