                               Psi4 1.3.2 release

  ==> Input File <==

--------------------------------------------------------------------------
#psi4
#
memory 32 gb

molecule  {
0 1
  O        1.3620710    -0.3800110    -0.9318440
  O        3.2020570     1.9012130    -0.2995130
  O        2.7994070    -2.7489470    -0.4002010
  O       -1.3420475     2.3674638     0.1509239
  N       -0.7982440     0.1994180    -0.2292560
  N       -3.0474450     0.7824351     0.2363966
  N       -4.6734100    -0.8124350     0.4126370
  C        2.7015950     0.8755540     0.5594740
  C        1.2368440     1.1072260     0.8878520
  C        2.6518190    -0.3922910    -0.2854700
  C        0.5739580     0.6830040    -0.4149160
  C        2.8020980    -1.6600160     0.5224700
  C       -1.1273370    -1.1158190    -0.3082760
  C       -1.7446880     1.2038920     0.0820450
  C       -2.4173070    -1.5045610    -0.1045420
  C       -3.3619920    -0.4731600     0.1685110
  H        3.3343810     0.7567850     1.4508530
  H        0.9047070     0.4438290     1.6934890
  H        0.9853290     2.1340670     1.1581470
  H        0.5274540     1.5132540    -1.1249130
  H        3.4174920    -0.3642830    -1.0666260
  H        1.9707490    -1.7331840     1.2432230
  H        3.7460890    -1.6095150     1.0882890
  H        3.1038510     2.7463240     0.1779830
  H       -0.3107400    -1.7892010    -0.5436980
  H        2.9100300    -3.5650720     0.1192120
  H       -2.7034680    -2.5490840    -0.1532500
  H       -5.0287110    -1.6377420    -0.0567190
  H       -5.2994710    -0.0137980     0.3861010
units angstrom
no_reorient  #important for SAPT in psi4, default
symmetry c1  #important for SAPT in psi4, default
}

set PROPERTIES_ORIGIN ["COM"]
properties('MP2/aug-cc-pvtz', properties = ['dipole'])
--------------------------------------------------------------------------

    Molecular point group: c1
  Charge       = 0
  Multiplicity = 1
  Basis Set: AUG-CC-PVTZ
    Blend: AUG-CC-PVTZ
  Basis Set: (AUG-CC-PVTZ AUX)
    Blend: AUG-CC-PVTZ-JKFIT

    Orbital Energies [Eh]
    ---------------------

    Doubly Occupied:

       1A    -20.577370     2A    -20.574059     3A    -20.572211
       4A    -20.505764     5A    -15.620307     6A    -15.587027
       7A    -15.539620     8A    -11.372453     9A    -11.342521
      10A    -11.329930    11A    -11.316556    12A    -11.300469
      13A    -11.296465    14A    -11.292624    15A    -11.236357
      16A    -11.235601    17A     -1.416338    18A     -1.384050
      19A     -1.373221    20A     -1.365607    21A     -1.295424
      22A     -1.261322    23A     -1.172360    24A     -1.078284
      25A     -1.068167    26A     -1.027592    27A     -0.926823
      28A     -0.896467    29A     -0.871651    30A     -0.830819
      31A     -0.805866    32A     -0.754539    33A     -0.738128
      34A     -0.720658    35A     -0.707346    36A     -0.692442
      37A     -0.689238    38A     -0.676017    39A     -0.656517
      40A     -0.636681    41A     -0.628356    42A     -0.618835
      43A     -0.605306    44A     -0.595007    45A     -0.589732
      46A     -0.572716    47A     -0.568541    48A     -0.544663
      49A     -0.533121    50A     -0.523357    51A     -0.510268
      52A     -0.485494    53A     -0.482022    54A     -0.468113
      55A     -0.460888    56A     -0.446087    57A     -0.437461
      58A     -0.414795    59A     -0.386357    60A     -0.334568

  @DF-RHF Final Energy:  -811.47947782136578

   => Energetics <=

    Nuclear Repulsion Energy =           1170.8403617237745493
    One-Electron Energy =               -3436.7385203143312538
    Two-Electron Energy =                1454.4186807691908143
    Total Energy =                       -811.4794778213658901
  Basis Set: (AUG-CC-PVTZ AUX)
    Blend: AUG-CC-PVTZ-RI
    Molecular point group: c1

    Geometry (in Angstrom), charge = 0, multiplicity = 1:

       Center              X                  Y                   Z               Mass
    ------------   -----------------  -----------------  -----------------  -----------------
         O            1.360237741072    -0.378144158264    -0.931349217485    15.994914619570
         O            3.200223741072     1.903079841736    -0.299018217485    15.994914619570
         O            2.797573741072    -2.747080158264    -0.399706217485    15.994914619570
         O           -1.343880758928     2.369330641736     0.151418682515    15.994914619570
         N           -0.800077258928     0.201284841736    -0.228761217485    14.003074004430
         N           -3.049278258928     0.784301941736     0.236891382515    14.003074004430
         N           -4.675243258928    -0.810568158264     0.413131782515    14.003074004430
         C            2.699761741072     0.877420841736     0.559968782515    12.000000000000
         C            1.235010741072     1.109092841736     0.888346782515    12.000000000000
         C            2.649985741072    -0.390424158264    -0.284975217485    12.000000000000
         C            0.572124741072     0.684870841736    -0.414421217485    12.000000000000
         C            2.800264741072    -1.658149158264     0.522964782515    12.000000000000
         C           -1.129170258928    -1.113952158264    -0.307781217485    12.000000000000
         C           -1.746521258928     1.205758841736     0.082539782515    12.000000000000
         C           -2.419140258928    -1.502694158264    -0.104047217485    12.000000000000
         C           -3.363825258928    -0.471293158264     0.169005782515    12.000000000000
         H            3.332547741072     0.758651841736     1.451347782515     1.007825032230
         H            0.902873741072     0.445695841736     1.693983782515     1.007825032230
         H            0.983495741072     2.135933841736     1.158641782515     1.007825032230
         H            0.525620741072     1.515120841736    -1.124418217485     1.007825032230
         H            3.415658741072    -0.362416158264    -1.066131217485     1.007825032230
         H            1.968915741072    -1.731317158264     1.243717782515     1.007825032230
         H            3.744255741072    -1.607648158264     1.088783782515     1.007825032230
         H            3.102017741072     2.748190841736     0.178477782515     1.007825032230
         H           -0.312573258928    -1.787334158264    -0.543203217485     1.007825032230
         H            2.908196741072    -3.563205158264     0.119706782515     1.007825032230
         H           -2.705301258928    -2.547217158264    -0.152755217485     1.007825032230
         H           -5.030544258928    -1.635875158264    -0.056224217485     1.007825032230
         H           -5.301304258928    -0.011931158264     0.386595782515     1.007825032230

  Basis Set: AUG-CC-PVTZ
    Blend: AUG-CC-PVTZ
  Basis Set: (AUG-CC-PVTZ AUX)
    Blend: AUG-CC-PVTZ-JKFIT
	 Reference Energy          =    -811.4794778213657764 [Eh]
	 Singles Energy            =      -0.0000000000000000 [Eh]
	 Same-Spin Energy          =      -0.8296229583686811 [Eh]
	 Opposite-Spin Energy      =      -2.5248019137153945 [Eh]
	 Correlation Energy        =      -3.3544248720840755 [Eh]
	 Total Energy              =    -814.8339026934498861 [Eh]

	 ================> DF-SCS-MP2 Energies <==================
	-----------------------------------------------------------
	 SCS Same-Spin Scale       =       0.3333333333333333 [-]
	 SCS Opposite-Spin Scale   =       1.2000000000000000 [-]
	 SCS Same-Spin Energy      =      -0.2765409861228937 [Eh]
	 SCS Opposite-Spin Energy  =      -3.0297622964584732 [Eh]
	 SCS Correlation Energy    =      -3.3063032825813670 [Eh]
	 SCS Total Energy          =    -814.7857811039471017 [Eh]
	-----------------------------------------------------------

  Dipole Moment: [D]
     X:     1.0363      Y:    -4.5681      Z:     2.5010     Total:     5.3100

*** Psi4 exiting successfully. Buy a developer a beer!
