                               Psi4 1.3.2 release

  ==> Input File <==

--------------------------------------------------------------------------
#psi4
#
memory 32 gb

molecule  {
0 1
  O        1.3620710    -0.3800110    -0.9318440
  O        3.2020570     1.9012130    -0.2995130
  O        2.7994070    -2.7489470    -0.4002010
  O       -1.3621860     2.3740050     0.1547830
  N       -0.7982440     0.1994180    -0.2292560
  N       -3.0541720     0.8052390     0.2400120
  N       -4.6734100    -0.8124350     0.4126370
  C        2.7015950     0.8755540     0.5594740
  C        1.2368440     1.1072260     0.8878520
  C        2.6518190    -0.3922910    -0.2854700
  C        0.5739580     0.6830040    -0.4149160
  C        2.7610117    -1.6450159     0.5519277
  C       -1.1273370    -1.1158190    -0.3082760
  C       -1.7446880     1.2038920     0.0820450
  C       -2.4173070    -1.5045610    -0.1045420
  C       -3.3619920    -0.4731600     0.1685110
  H        3.3343810     0.7567850     1.4508530
  H        0.9047070     0.4438290     1.6934890
  H        0.9853290     2.1340670     1.1581470
  H        0.5274540     1.5132540    -1.1249130
  H        3.4035383    -0.3306552    -1.0781638
  H        1.9707490    -1.7331840     1.2432230
  H        3.7460890    -1.6095150     1.0882890
  H        3.1038510     2.7463240     0.1779830
  H       -0.3107400    -1.7892010    -0.5436980
  H        2.9100300    -3.5650720     0.1192120
  H       -2.7034680    -2.5490840    -0.1532500
  H       -5.0287110    -1.6377420    -0.0567190
  H       -5.2994710    -0.0137980     0.3861010
units angstrom
no_reorient  #important for SAPT in psi4, default
symmetry c1  #important for SAPT in psi4, default
}

set PROPERTIES_ORIGIN ["COM"]
properties('MP2/aug-cc-pvtz', properties = ['dipole'])
--------------------------------------------------------------------------

    Molecular point group: c1
  Charge       = 0
  Multiplicity = 1
  Basis Set: AUG-CC-PVTZ
    Blend: AUG-CC-PVTZ
  Basis Set: (AUG-CC-PVTZ AUX)
    Blend: AUG-CC-PVTZ-JKFIT

    Orbital Energies [Eh]
    ---------------------

    Doubly Occupied:

       1A    -20.574913     2A    -20.574742     3A    -20.572232
       4A    -20.503287     5A    -15.621972     6A    -15.588567
       7A    -15.541049     8A    -11.370125     9A    -11.345283
      10A    -11.330797    11A    -11.318575    12A    -11.300492
      13A    -11.296827    14A    -11.293864    15A    -11.237328
      16A    -11.237248    17A     -1.416661    18A     -1.382287
      19A     -1.369736    20A     -1.358838    21A     -1.292470
      22A     -1.261675    23A     -1.169348    24A     -1.079533
      25A     -1.069786    26A     -1.028303    27A     -0.928164
      28A     -0.898538    29A     -0.869900    30A     -0.831043
      31A     -0.808205    32A     -0.754578    33A     -0.738889
      34A     -0.718917    35A     -0.706827    36A     -0.690950
      37A     -0.686298    38A     -0.676290    39A     -0.657776
      40A     -0.636380    41A     -0.627877    42A     -0.618517
      43A     -0.603351    44A     -0.595732    45A     -0.586434
      46A     -0.572968    47A     -0.567803    48A     -0.544261
      49A     -0.532629    50A     -0.523376    51A     -0.511516
      52A     -0.485138    53A     -0.482438    54A     -0.471601
      55A     -0.462698    56A     -0.444700    57A     -0.438075
      58A     -0.416636    59A     -0.383958    60A     -0.335200

  @DF-RHF Final Energy:  -811.47533568708081

   => Energetics <=

    Nuclear Repulsion Energy =           1170.1545786014637542
    One-Electron Energy =               -3435.3726268494515352
    Two-Electron Energy =                1453.7427125609071936
    Total Energy =                       -811.4753356870808148
  Basis Set: (AUG-CC-PVTZ AUX)
    Blend: AUG-CC-PVTZ-RI
    Molecular point group: c1

    Geometry (in Angstrom), charge = 0, multiplicity = 1:

       Center              X                  Y                   Z               Mass
    ------------   -----------------  -----------------  -----------------  -----------------
         O            1.364304006831    -0.380952917222    -0.933349375102    15.994914619570
         O            3.204290006831     1.900271082778    -0.301018375102    15.994914619570
         O            2.801640006831    -2.749888917222    -0.401706375102    15.994914619570
         O           -1.359952993169     2.373063082778     0.153277624898    15.994914619570
         N           -0.796010993169     0.198476082778    -0.230761375102    14.003074004430
         N           -3.051938993169     0.804297082778     0.238506624898    14.003074004430
         N           -4.671176993169    -0.813376917222     0.411131624898    14.003074004430
         C            2.703828006831     0.874612082778     0.557968624898    12.000000000000
         C            1.239077006831     1.106284082778     0.886346624898    12.000000000000
         C            2.654052006831    -0.393232917222    -0.286975375102    12.000000000000
         C            0.576191006831     0.682062082778    -0.416421375102    12.000000000000
         C            2.763244706831    -1.645957817222     0.550422324898    12.000000000000
         C           -1.125103993169    -1.116760917222    -0.309781375102    12.000000000000
         C           -1.742454993169     1.202950082778     0.080539624898    12.000000000000
         C           -2.415073993169    -1.505502917222    -0.106047375102    12.000000000000
         C           -3.359758993169    -0.474101917222     0.167005624898    12.000000000000
         H            3.336614006831     0.755843082778     1.449347624898     1.007825032230
         H            0.906940006831     0.442887082778     1.691983624898     1.007825032230
         H            0.987562006831     2.133125082778     1.156641624898     1.007825032230
         H            0.529687006831     1.512312082778    -1.126418375102     1.007825032230
         H            3.405771306831    -0.331597117222    -1.079669175102     1.007825032230
         H            1.972982006831    -1.734125917222     1.241717624898     1.007825032230
         H            3.748322006831    -1.610456917222     1.086783624898     1.007825032230
         H            3.106084006831     2.745382082778     0.176477624898     1.007825032230
         H           -0.308506993169    -1.790142917222    -0.545203375102     1.007825032230
         H            2.912263006831    -3.566013917222     0.117706624898     1.007825032230
         H           -2.701234993169    -2.550025917222    -0.154755375102     1.007825032230
         H           -5.026477993169    -1.638683917222    -0.058224375102     1.007825032230
         H           -5.297237993169    -0.014739917222     0.384595624898     1.007825032230

  Basis Set: AUG-CC-PVTZ
    Blend: AUG-CC-PVTZ
  Basis Set: (AUG-CC-PVTZ AUX)
    Blend: AUG-CC-PVTZ-JKFIT
	 Reference Energy          =    -811.4753356870808148 [Eh]
	 Singles Energy            =      -0.0000000000000000 [Eh]
	 Same-Spin Energy          =      -0.8298183332871436 [Eh]
	 Opposite-Spin Energy      =      -2.5259524807790674 [Eh]
	 Correlation Energy        =      -3.3557708140662110 [Eh]
	 Total Energy              =    -814.8311065011470191 [Eh]

	 ================> DF-SCS-MP2 Energies <==================
	-----------------------------------------------------------
	 SCS Same-Spin Scale       =       0.3333333333333333 [-]
	 SCS Opposite-Spin Scale   =       1.2000000000000000 [-]
	 SCS Same-Spin Energy      =      -0.2766061110957145 [Eh]
	 SCS Opposite-Spin Energy  =      -3.0311429769348810 [Eh]
	 SCS Correlation Energy    =      -3.3077490880305955 [Eh]
	 SCS Total Energy          =    -814.7830847751114334 [Eh]
	-----------------------------------------------------------

  Dipole Moment: [D]
     X:     1.0089      Y:    -4.5797      Z:     2.5455     Total:     5.3359

*** Psi4 exiting successfully. Buy a developer a beer!
