                               Psi4 1.3.2 release

  ==> Input File <==

--------------------------------------------------------------------------
#psi4
#
memory 32 gb

molecule  {
0 1
  O        1.3620710    -0.3800110    -0.9318440
  O        3.2020570     1.9012130    -0.2995130
  O        2.8020144    -2.7647993    -0.3811635
  O       -1.3621860     2.3740050     0.1547830
  N       -0.7982440     0.1994180    -0.2292560
  N       -3.0541720     0.8052390     0.2400120
  N       -4.6734100    -0.8124350     0.4126370
  C        2.7015950     0.8755540     0.5594740
  C        1.2368440     1.1072260     0.8878520
  C        2.6527015    -0.3782484    -0.2631699
  C        0.5739580     0.6830040    -0.4149160
  C        2.8020980    -1.6600160     0.5224700
  C       -1.1273370    -1.1158190    -0.3082760
  C       -1.7446880     1.2038920     0.0820450
  C       -2.4173070    -1.5045610    -0.1045420
  C       -3.3619920    -0.4731600     0.1685110
  H        3.3343810     0.7567850     1.4508530
  H        0.9047070     0.4438290     1.6934890
  H        0.9853290     2.1340670     1.1581470
  H        0.5274540     1.5132540    -1.1249130
  H        3.4174920    -0.3642830    -1.0666260
  H        1.9707490    -1.7331840     1.2432230
  H        3.7460890    -1.6095150     1.0882890
  H        3.1038510     2.7463240     0.1779830
  H       -0.3107400    -1.7892010    -0.5436980
  H        2.9100300    -3.5650720     0.1192120
  H       -2.7034680    -2.5490840    -0.1532500
  H       -5.0287110    -1.6377420    -0.0567190
  H       -5.2994710    -0.0137980     0.3861010
units angstrom
no_reorient  #important for SAPT in psi4, default
symmetry c1  #important for SAPT in psi4, default
}

set PROPERTIES_ORIGIN ["COM"]
properties('MP2/aug-cc-pvtz', properties = ['dipole'])
--------------------------------------------------------------------------

    Molecular point group: c1
  Charge       = 0
  Multiplicity = 1
  Basis Set: AUG-CC-PVTZ
    Blend: AUG-CC-PVTZ
  Basis Set: (AUG-CC-PVTZ AUX)
    Blend: AUG-CC-PVTZ-JKFIT

    Orbital Energies [Eh]
    ---------------------

    Doubly Occupied:

       1A    -20.575375     2A    -20.575315     3A    -20.572693
       4A    -20.502990     5A    -15.621547     6A    -15.588284
       7A    -15.540703     8A    -11.369776     9A    -11.344948
      10A    -11.330266    11A    -11.318161    12A    -11.301261
      13A    -11.298067    14A    -11.294552    15A    -11.237480
      16A    -11.236916    17A     -1.415531    18A     -1.382904
      19A     -1.376899    20A     -1.366617    21A     -1.292086
      22A     -1.261146    23A     -1.168973    24A     -1.081214
      25A     -1.071138    26A     -1.028492    27A     -0.928878
      28A     -0.897668    29A     -0.870469    30A     -0.830963
      31A     -0.804727    32A     -0.754096    33A     -0.738721
      34A     -0.724340    35A     -0.707911    36A     -0.694539
      37A     -0.690259    38A     -0.675296    39A     -0.656426
      40A     -0.637807    41A     -0.627765    42A     -0.618865
      43A     -0.604586    44A     -0.595357    45A     -0.588443
      46A     -0.573038    47A     -0.566995    48A     -0.543793
      49A     -0.533321    50A     -0.523908    51A     -0.509967
      52A     -0.491426    53A     -0.482178    54A     -0.468390
      55A     -0.461531    56A     -0.444245    57A     -0.437871
      58A     -0.416238    59A     -0.383674    60A     -0.334855

  @DF-RHF Final Energy:  -811.47929340653457

   => Energetics <=

    Nuclear Repulsion Energy =           1169.9097315097860701
    One-Electron Energy =               -3434.8342892981386285
    Two-Electron Energy =                1453.4452643818178785
    Total Energy =                       -811.4792934065346799
  Basis Set: (AUG-CC-PVTZ AUX)
    Blend: AUG-CC-PVTZ-RI
    Molecular point group: c1

    Geometry (in Angstrom), charge = 0, multiplicity = 1:

       Center              X                  Y                   Z               Mass
    ------------   -----------------  -----------------  -----------------  -----------------
         O            1.361840700935    -0.379636539019    -0.934363243860    15.994914619570
         O            3.201826700935     1.901587460981    -0.302032243860    15.994914619570
         O            2.801784100935    -2.764424839019    -0.383682743860    15.994914619570
         O           -1.362416299065     2.374379460981     0.152263756140    15.994914619570
         N           -0.798474299065     0.199792460981    -0.231775243860    14.003074004430
         N           -3.054402299065     0.805613460981     0.237492756140    14.003074004430
         N           -4.673640299065    -0.812060539019     0.410117756140    14.003074004430
         C            2.701364700935     0.875928460981     0.556954756140    12.000000000000
         C            1.236613700935     1.107600460981     0.885332756140    12.000000000000
         C            2.652471200935    -0.377873939019    -0.265689143860    12.000000000000
         C            0.573727700935     0.683378460981    -0.417435243860    12.000000000000
         C            2.801867700935    -1.659641539019     0.519950756140    12.000000000000
         C           -1.127567299065    -1.115444539019    -0.310795243860    12.000000000000
         C           -1.744918299065     1.204266460981     0.079525756140    12.000000000000
         C           -2.417537299065    -1.504186539019    -0.107061243860    12.000000000000
         C           -3.362222299065    -0.472785539019     0.165991756140    12.000000000000
         H            3.334150700935     0.757159460981     1.448333756140     1.007825032230
         H            0.904476700935     0.444203460981     1.690969756140     1.007825032230
         H            0.985098700935     2.134441460981     1.155627756140     1.007825032230
         H            0.527223700935     1.513628460981    -1.127432243860     1.007825032230
         H            3.417261700935    -0.363908539019    -1.069145243860     1.007825032230
         H            1.970518700935    -1.732809539019     1.240703756140     1.007825032230
         H            3.745858700935    -1.609140539019     1.085769756140     1.007825032230
         H            3.103620700935     2.746698460981     0.175463756140     1.007825032230
         H           -0.310970299065    -1.788826539019    -0.546217243860     1.007825032230
         H            2.909799700935    -3.564697539019     0.116692756140     1.007825032230
         H           -2.703698299065    -2.548709539019    -0.155769243860     1.007825032230
         H           -5.028941299065    -1.637367539019    -0.059238243860     1.007825032230
         H           -5.299701299065    -0.013423539019     0.383581756140     1.007825032230

  Basis Set: AUG-CC-PVTZ
    Blend: AUG-CC-PVTZ
  Basis Set: (AUG-CC-PVTZ AUX)
    Blend: AUG-CC-PVTZ-JKFIT
	 Reference Energy          =    -811.4792934065345662 [Eh]
	 Singles Energy            =      -0.0000000000000000 [Eh]
	 Same-Spin Energy          =      -0.8295466171180151 [Eh]
	 Opposite-Spin Energy      =      -2.5246515068240925 [Eh]
	 Correlation Energy        =      -3.3541981239421075 [Eh]
	 Total Energy              =    -814.8334915304766355 [Eh]

	 ================> DF-SCS-MP2 Energies <==================
	-----------------------------------------------------------
	 SCS Same-Spin Scale       =       0.3333333333333333 [-]
	 SCS Opposite-Spin Scale   =       1.2000000000000000 [-]
	 SCS Same-Spin Energy      =      -0.2765155390393383 [Eh]
	 SCS Opposite-Spin Energy  =      -3.0295818081889108 [Eh]
	 SCS Correlation Energy    =      -3.3060973472282491 [Eh]
	 SCS Total Energy          =    -814.7853907537628402 [Eh]
	-----------------------------------------------------------

  Dipole Moment: [D]
     X:     1.0897      Y:    -4.6345      Z:     2.4973     Total:     5.3761

*** Psi4 exiting successfully. Buy a developer a beer!
