                               Psi4 1.3.2 release

  ==> Input File <==

--------------------------------------------------------------------------
#psi4
#
memory 32 gb

molecule  {
0 1
  O        1.3620710    -0.3800110    -0.9318440
  O        3.2020570     1.9012130    -0.2995130
  O        2.7994070    -2.7489470    -0.4002010
  O       -1.3621860     2.3740050     0.1547830
  N       -0.7982440     0.1994180    -0.2292560
  N       -3.0541720     0.8052390     0.2400120
  N       -4.6734100    -0.8124350     0.4126370
  C        2.7015950     0.8755540     0.5594740
  C        1.2368440     1.1072260     0.8878520
  C        2.6550843    -0.3091217    -0.2300425
  C        0.5739580     0.6830040    -0.4149160
  C        2.8020980    -1.6600160     0.5224700
  C       -1.1273370    -1.1158190    -0.3082760
  C       -1.7446880     1.2038920     0.0820450
  C       -2.4173070    -1.5045610    -0.1045420
  C       -3.3619920    -0.4731600     0.1685110
  H        3.3343810     0.7567850     1.4508530
  H        0.9047070     0.4438290     1.6934890
  H        0.9853290     2.1340670     1.1581470
  H        0.5274540     1.5132540    -1.1249130
  H        3.4174920    -0.3642830    -1.0666260
  H        1.9707490    -1.7331840     1.2432230
  H        3.7460890    -1.6095150     1.0882890
  H        3.1038510     2.7463240     0.1779830
  H       -0.3107400    -1.7892010    -0.5436980
  H        2.9100300    -3.5650720     0.1192120
  H       -2.7034680    -2.5490840    -0.1532500
  H       -5.0287110    -1.6377420    -0.0567190
  H       -5.2994710    -0.0137980     0.3861010
units angstrom
no_reorient  #important for SAPT in psi4, default
symmetry c1  #important for SAPT in psi4, default
}

set PROPERTIES_ORIGIN ["COM"]
properties('MP2/aug-cc-pvtz', properties = ['dipole'])
--------------------------------------------------------------------------

    Molecular point group: c1
  Charge       = 0
  Multiplicity = 1
  Basis Set: AUG-CC-PVTZ
    Blend: AUG-CC-PVTZ
  Basis Set: (AUG-CC-PVTZ AUX)
    Blend: AUG-CC-PVTZ-JKFIT

    Orbital Energies [Eh]
    ---------------------

    Doubly Occupied:

       1A    -20.579278     2A    -20.576006     3A    -20.572379
       4A    -20.502862     5A    -15.621222     6A    -15.588157
       7A    -15.540518     8A    -11.369527     9A    -11.344789
      10A    -11.329125    11A    -11.317937    12A    -11.300062
      13A    -11.298566    14A    -11.295235    15A    -11.239044
      16A    -11.236724    17A     -1.414317    18A     -1.383003
      19A     -1.374264    20A     -1.365154    21A     -1.291811
      22A     -1.260590    23A     -1.168684    24A     -1.090418
      25A     -1.071482    26A     -1.024108    27A     -0.927509
      28A     -0.897867    29A     -0.874094    30A     -0.831724
      31A     -0.801787    32A     -0.753789    33A     -0.739361
      34A     -0.721721    35A     -0.708874    36A     -0.692143
      37A     -0.691118    38A     -0.673566    39A     -0.654994
      40A     -0.638011    41A     -0.628537    42A     -0.618802
      43A     -0.601430    44A     -0.593764    45A     -0.586181
      46A     -0.574381    47A     -0.562721    48A     -0.545134
      49A     -0.535195    50A     -0.521582    51A     -0.508498
      52A     -0.503519    53A     -0.482021    54A     -0.467797
      55A     -0.460707    56A     -0.443281    57A     -0.433387
      58A     -0.415890    59A     -0.383487    60A     -0.334709

  @DF-RHF Final Energy:  -811.46596180605536

   => Energetics <=

    Nuclear Repulsion Energy =           1170.5491327906950119
    One-Electron Energy =               -3436.1045012990439318
    Two-Electron Energy =                1454.0894067022932177
    Total Energy =                       -811.4659618060554749
  Basis Set: (AUG-CC-PVTZ AUX)
    Blend: AUG-CC-PVTZ-RI
    Molecular point group: c1

    Geometry (in Angstrom), charge = 0, multiplicity = 1:

       Center              X                  Y                   Z               Mass
    ------------   -----------------  -----------------  -----------------  -----------------
         O            1.361898437979    -0.384405897842    -0.934772884817    15.994914619570
         O            3.201884437979     1.896818102158    -0.302441884817    15.994914619570
         O            2.799234437979    -2.753341897842    -0.403129884817    15.994914619570
         O           -1.362358562021     2.369610102158     0.151854115183    15.994914619570
         N           -0.798416562021     0.195023102158    -0.232184884817    14.003074004430
         N           -3.054344562021     0.800844102158     0.237083115183    14.003074004430
         N           -4.673582562021    -0.816829897842     0.409708115183    14.003074004430
         C            2.701422437979     0.871159102158     0.556545115183    12.000000000000
         C            1.236671437979     1.102831102158     0.884923115183    12.000000000000
         C            2.654911737979    -0.313516597842    -0.232971384817    12.000000000000
         C            0.573785437979     0.678609102158    -0.417844884817    12.000000000000
         C            2.801925437979    -1.664410897842     0.519541115183    12.000000000000
         C           -1.127509562021    -1.120213897842    -0.311204884817    12.000000000000
         C           -1.744860562021     1.199497102158     0.079116115183    12.000000000000
         C           -2.417479562021    -1.508955897842    -0.107470884817    12.000000000000
         C           -3.362164562021    -0.477554897842     0.165582115183    12.000000000000
         H            3.334208437979     0.752390102158     1.447924115183     1.007825032230
         H            0.904534437979     0.439434102158     1.690560115183     1.007825032230
         H            0.985156437979     2.129672102158     1.155218115183     1.007825032230
         H            0.527281437979     1.508859102158    -1.127841884817     1.007825032230
         H            3.417319437979    -0.368677897842    -1.069554884817     1.007825032230
         H            1.970576437979    -1.737578897842     1.240294115183     1.007825032230
         H            3.745916437979    -1.613909897842     1.085360115183     1.007825032230
         H            3.103678437979     2.741929102158     0.175054115183     1.007825032230
         H           -0.310912562021    -1.793595897842    -0.546626884817     1.007825032230
         H            2.909857437979    -3.569466897842     0.116283115183     1.007825032230
         H           -2.703640562021    -2.553478897842    -0.156178884817     1.007825032230
         H           -5.028883562021    -1.642136897842    -0.059647884817     1.007825032230
         H           -5.299643562021    -0.018192897842     0.383172115183     1.007825032230

  Basis Set: AUG-CC-PVTZ
    Blend: AUG-CC-PVTZ
  Basis Set: (AUG-CC-PVTZ AUX)
    Blend: AUG-CC-PVTZ-JKFIT
	 Reference Energy          =    -811.4659618060553612 [Eh]
	 Singles Energy            =      -0.0000000000000000 [Eh]
	 Same-Spin Energy          =      -0.8308302484269523 [Eh]
	 Opposite-Spin Energy      =      -2.5271346778924340 [Eh]
	 Correlation Energy        =      -3.3579649263193865 [Eh]
	 Total Energy              =    -814.8239267323747299 [Eh]

	 ================> DF-SCS-MP2 Energies <==================
	-----------------------------------------------------------
	 SCS Same-Spin Scale       =       0.3333333333333333 [-]
	 SCS Opposite-Spin Scale   =       1.2000000000000000 [-]
	 SCS Same-Spin Energy      =      -0.2769434161423174 [Eh]
	 SCS Opposite-Spin Energy  =      -3.0325616134709206 [Eh]
	 SCS Correlation Energy    =      -3.3095050296132378 [Eh]
	 SCS Total Energy          =    -814.7754668356685670 [Eh]
	-----------------------------------------------------------

  Dipole Moment: [D]
     X:     1.1008      Y:    -4.6213      Z:     2.5413     Total:     5.3876

*** Psi4 exiting successfully. Buy a developer a beer!
