                               Psi4 1.3.2 release

  ==> Input File <==

--------------------------------------------------------------------------
#psi4
#
memory 32 gb

molecule  {
0 1
  O        1.3620710    -0.3800110    -0.9318440
  O        3.2020570     1.9012130    -0.2995130
  O        2.7994070    -2.7489470    -0.4002010
  O       -1.3621860     2.3740050     0.1547830
  N       -0.7982440     0.1994180    -0.2292560
  N       -3.0541720     0.8052390     0.2400120
  N       -4.6734100    -0.8124350     0.4126370
  C        2.7025944     0.8568292     0.5782121
  C        1.2368440     1.1072260     0.8878520
  C        2.6518190    -0.3922910    -0.2854700
  C        0.5739580     0.6830040    -0.4149160
  C        2.8020980    -1.6600160     0.5224700
  C       -1.1273370    -1.1158190    -0.3082760
  C       -1.7446880     1.2038920     0.0820450
  C       -2.4173070    -1.5045610    -0.1045420
  C       -3.3619920    -0.4731600     0.1685110
  H        3.3343810     0.7567850     1.4508530
  H        0.9222773     0.4363515     1.6943486
  H        0.9853290     2.1340670     1.1581470
  H        0.5274540     1.5132540    -1.1249130
  H        3.4174920    -0.3642830    -1.0666260
  H        1.9707490    -1.7331840     1.2432230
  H        3.7460890    -1.6095150     1.0882890
  H        3.1038510     2.7463240     0.1779830
  H       -0.3107400    -1.7892010    -0.5436980
  H        2.9100300    -3.5650720     0.1192120
  H       -2.7034680    -2.5490840    -0.1532500
  H       -5.0287110    -1.6377420    -0.0567190
  H       -5.2994710    -0.0137980     0.3861010
units angstrom
no_reorient  #important for SAPT in psi4, default
symmetry c1  #important for SAPT in psi4, default
}

set PROPERTIES_ORIGIN ["COM"]
properties('MP2/aug-cc-pvtz', properties = ['dipole'])
--------------------------------------------------------------------------

    Molecular point group: c1
  Charge       = 0
  Multiplicity = 1
  Basis Set: AUG-CC-PVTZ
    Blend: AUG-CC-PVTZ
  Basis Set: (AUG-CC-PVTZ AUX)
    Blend: AUG-CC-PVTZ-JKFIT

    Orbital Energies [Eh]
    ---------------------

    Doubly Occupied:

       1A    -20.577948     2A    -20.573577     3A    -20.571290
       4A    -20.503213     5A    -15.621949     6A    -15.588475
       7A    -15.540934     8A    -11.370064     9A    -11.345182
      10A    -11.331324    11A    -11.318479    12A    -11.300398
      13A    -11.297134    14A    -11.293730    15A    -11.237667
      16A    -11.237197    17A     -1.416381    18A     -1.381881
      19A     -1.371417    20A     -1.359709    21A     -1.292379
      22A     -1.261604    23A     -1.169252    24A     -1.080007
      25A     -1.070288    26A     -1.028364    27A     -0.927180
      28A     -0.897578    29A     -0.869050    30A     -0.830827
      31A     -0.808297    32A     -0.754395    33A     -0.739465
      34A     -0.721358    35A     -0.705943    36A     -0.692822
      37A     -0.685199    38A     -0.675719    39A     -0.656479
      40A     -0.636572    41A     -0.627900    42A     -0.617613
      43A     -0.604808    44A     -0.594184    45A     -0.588684
      46A     -0.572815    47A     -0.568092    48A     -0.544702
      49A     -0.530924    50A     -0.524277    51A     -0.509332
      52A     -0.489261    53A     -0.482166    54A     -0.468536
      55A     -0.462038    56A     -0.445243    57A     -0.438222
      58A     -0.416552    59A     -0.383981    60A     -0.335144

  @DF-RHF Final Energy:  -811.47820027882562

   => Energetics <=

    Nuclear Repulsion Energy =           1169.7557533984172551
    One-Electron Energy =               -3434.5775065788311622
    Two-Electron Energy =                1453.3435529015882821
    Total Energy =                       -811.4782002788256250
  Basis Set: (AUG-CC-PVTZ AUX)
    Blend: AUG-CC-PVTZ-RI
    Molecular point group: c1

    Geometry (in Angstrom), charge = 0, multiplicity = 1:

       Center              X                  Y                   Z               Mass
    ------------   -----------------  -----------------  -----------------  -----------------
         O            1.361940196694    -0.378988389678    -0.932837945800    15.994914619570
         O            3.201926196694     1.902235610322    -0.300506945800    15.994914619570
         O            2.799276196694    -2.747924389678    -0.401194945800    15.994914619570
         O           -1.362316803306     2.375027610322     0.153789054200    15.994914619570
         N           -0.798374803306     0.200440610322    -0.230249945800    14.003074004430
         N           -3.054302803306     0.806261610322     0.239018054200    14.003074004430
         N           -4.673540803306    -0.811412389678     0.411643054200    14.003074004430
         C            2.702463596694     0.857851810322     0.577218154200    12.000000000000
         C            1.236713196694     1.108248610322     0.886858054200    12.000000000000
         C            2.651688196694    -0.391268389678    -0.286463945800    12.000000000000
         C            0.573827196694     0.684026610322    -0.415909945800    12.000000000000
         C            2.801967196694    -1.658993389678     0.521476054200    12.000000000000
         C           -1.127467803306    -1.114796389678    -0.309269945800    12.000000000000
         C           -1.744818803306     1.204914610322     0.081051054200    12.000000000000
         C           -2.417437803306    -1.503538389678    -0.105535945800    12.000000000000
         C           -3.362122803306    -0.472137389678     0.167517054200    12.000000000000
         H            3.334250196694     0.757807610322     1.449859054200     1.007825032230
         H            0.922146496694     0.437374110322     1.693354654200     1.007825032230
         H            0.985198196694     2.135089610322     1.157153054200     1.007825032230
         H            0.527323196694     1.514276610322    -1.125906945800     1.007825032230
         H            3.417361196694    -0.363260389678    -1.067619945800     1.007825032230
         H            1.970618196694    -1.732161389678     1.242229054200     1.007825032230
         H            3.745958196694    -1.608492389678     1.087295054200     1.007825032230
         H            3.103720196694     2.747346610322     0.176989054200     1.007825032230
         H           -0.310870803306    -1.788178389678    -0.544691945800     1.007825032230
         H            2.909899196694    -3.564049389678     0.118218054200     1.007825032230
         H           -2.703598803306    -2.548061389678    -0.154243945800     1.007825032230
         H           -5.028841803306    -1.636719389678    -0.057712945800     1.007825032230
         H           -5.299601803306    -0.012775389678     0.385107054200     1.007825032230

  Basis Set: AUG-CC-PVTZ
    Blend: AUG-CC-PVTZ
  Basis Set: (AUG-CC-PVTZ AUX)
    Blend: AUG-CC-PVTZ-JKFIT
	 Reference Energy          =    -811.4782002788256250 [Eh]
	 Singles Energy            =      -0.0000000000000000 [Eh]
	 Same-Spin Energy          =      -0.8296921799810233 [Eh]
	 Opposite-Spin Energy      =      -2.5255473295389406 [Eh]
	 Correlation Energy        =      -3.3552395095199641 [Eh]
	 Total Energy              =    -814.8334397883455722 [Eh]

	 ================> DF-SCS-MP2 Energies <==================
	-----------------------------------------------------------
	 SCS Same-Spin Scale       =       0.3333333333333333 [-]
	 SCS Opposite-Spin Scale   =       1.2000000000000000 [-]
	 SCS Same-Spin Energy      =      -0.2765640599936744 [Eh]
	 SCS Opposite-Spin Energy  =      -3.0306567954467285 [Eh]
	 SCS Correlation Energy    =      -3.3072208554404030 [Eh]
	 SCS Total Energy          =    -814.7854211342660165 [Eh]
	-----------------------------------------------------------

  Dipole Moment: [D]
     X:     1.0453      Y:    -4.7513      Z:     2.5353     Total:     5.4859

*** Psi4 exiting successfully. Buy a developer a beer!
