                               Psi4 1.3.2 release

  ==> Input File <==

--------------------------------------------------------------------------
#psi4
#
memory 32 gb

molecule  {
0 1
  O        1.3620710    -0.3800110    -0.9318440
  O        3.2020570     1.9012130    -0.2995130
  O        2.7994070    -2.7489470    -0.4002010
  O       -1.3621860     2.3740050     0.1547830
  N       -0.7982440     0.1994180    -0.2292560
  N       -3.0541720     0.8052390     0.2400120
  N       -4.6734100    -0.8124350     0.4126370
  C        2.7015950     0.8755540     0.5594740
  C        1.2368440     1.1072260     0.8878520
  C        2.6518190    -0.3922910    -0.2854700
  C        0.5304054     0.6551319    -0.5005099
  C        2.8020980    -1.6600160     0.5224700
  C       -1.1273370    -1.1158190    -0.3082760
  C       -1.7446880     1.2038920     0.0820450
  C       -2.4173070    -1.5045610    -0.1045420
  C       -3.3619920    -0.4731600     0.1685110
  H        3.3343810     0.7567850     1.4508530
  H        0.9047070     0.4438290     1.6934890
  H        0.9853290     2.1340670     1.1581470
  H        0.5274540     1.5132540    -1.1249130
  H        3.4174920    -0.3642830    -1.0666260
  H        1.9707490    -1.7331840     1.2432230
  H        3.7460890    -1.6095150     1.0882890
  H        3.1038510     2.7463240     0.1779830
  H       -0.3107400    -1.7892010    -0.5436980
  H        2.9100300    -3.5650720     0.1192120
  H       -2.7034680    -2.5490840    -0.1532500
  H       -5.0287110    -1.6377420    -0.0567190
  H       -5.2994710    -0.0137980     0.3861010
units angstrom
no_reorient  #important for SAPT in psi4, default
symmetry c1  #important for SAPT in psi4, default
}

set PROPERTIES_ORIGIN ["COM"]
properties('MP2/aug-cc-pvtz', properties = ['dipole'])
--------------------------------------------------------------------------

    Molecular point group: c1
  Charge       = 0
  Multiplicity = 1
  Basis Set: AUG-CC-PVTZ
    Blend: AUG-CC-PVTZ
  Basis Set: (AUG-CC-PVTZ AUX)
    Blend: AUG-CC-PVTZ-JKFIT

    Orbital Energies [Eh]
    ---------------------

    Doubly Occupied:

       1A    -20.577648     2A    -20.572584     3A    -20.571913
       4A    -20.504541     5A    -15.624226     6A    -15.589443
       7A    -15.542476     8A    -11.372009     9A    -11.346337
      10A    -11.329679    11A    -11.319569    12A    -11.297443
      13A    -11.296924    14A    -11.294307    15A    -11.238550
      16A    -11.234786    17A     -1.420584    18A     -1.384151
      19A     -1.372608    20A     -1.366019    21A     -1.294722
      22A     -1.266352    23A     -1.171280    24A     -1.074059
      25A     -1.068851    26A     -1.019356    27A     -0.928914
      28A     -0.900066    29A     -0.869319    30A     -0.834024
      31A     -0.804751    32A     -0.757259    33A     -0.739984
      34A     -0.720230    35A     -0.707242    36A     -0.693466
      37A     -0.687020    38A     -0.678836    39A     -0.660145
      40A     -0.637451    41A     -0.628181    42A     -0.620546
      43A     -0.605633    44A     -0.596478    45A     -0.590074
      46A     -0.575076    47A     -0.571131    48A     -0.543512
      49A     -0.531602    50A     -0.523645    51A     -0.502701
      52A     -0.482437    53A     -0.478389    54A     -0.467825
      55A     -0.459606    56A     -0.443082    57A     -0.434068
      58A     -0.418677    59A     -0.382512    60A     -0.334394

  @DF-RHF Final Energy:  -811.47207450457427

   => Energetics <=

    Nuclear Repulsion Energy =           1169.5424812929772997
    One-Electron Energy =               -3434.1117277195999122
    Two-Electron Energy =                1453.0971719220483465
    Total Energy =                       -811.4720745045742660
  Basis Set: (AUG-CC-PVTZ AUX)
    Blend: AUG-CC-PVTZ-RI
    Molecular point group: c1

    Geometry (in Angstrom), charge = 0, multiplicity = 1:

       Center              X                  Y                   Z               Mass
    ------------   -----------------  -----------------  -----------------  -----------------
         O            1.364372405574    -0.378538209945    -0.927320983435    15.994914619570
         O            3.204358405574     1.902685790055    -0.294989983435    15.994914619570
         O            2.801708405574    -2.747474209945    -0.395677983435    15.994914619570
         O           -1.359884594426     2.375477790055     0.159306016565    15.994914619570
         N           -0.795942594426     0.200890790055    -0.224732983435    14.003074004430
         N           -3.051870594426     0.806711790055     0.244535016565    14.003074004430
         N           -4.671108594426    -0.810962209945     0.417160016565    14.003074004430
         C            2.703896405574     0.877026790055     0.563997016565    12.000000000000
         C            1.239145405574     1.108698790055     0.892375016565    12.000000000000
         C            2.654120405574    -0.390818209945    -0.280946983435    12.000000000000
         C            0.532706805574     0.656604690055    -0.495986883435    12.000000000000
         C            2.804399405574    -1.658543209945     0.526993016565    12.000000000000
         C           -1.125035594426    -1.114346209945    -0.303752983435    12.000000000000
         C           -1.742386594426     1.205364790055     0.086568016565    12.000000000000
         C           -2.415005594426    -1.503088209945    -0.100018983435    12.000000000000
         C           -3.359690594426    -0.471687209945     0.173034016565    12.000000000000
         H            3.336682405574     0.758257790055     1.455376016565     1.007825032230
         H            0.907008405574     0.445301790055     1.698012016565     1.007825032230
         H            0.987630405574     2.135539790055     1.162670016565     1.007825032230
         H            0.529755405574     1.514726790055    -1.120389983435     1.007825032230
         H            3.419793405574    -0.362810209945    -1.062102983435     1.007825032230
         H            1.973050405574    -1.731711209945     1.247746016565     1.007825032230
         H            3.748390405574    -1.608042209945     1.092812016565     1.007825032230
         H            3.106152405574     2.747796790055     0.182506016565     1.007825032230
         H           -0.308438594426    -1.787728209945    -0.539174983435     1.007825032230
         H            2.912331405574    -3.563599209945     0.123735016565     1.007825032230
         H           -2.701166594426    -2.547611209945    -0.148726983435     1.007825032230
         H           -5.026409594426    -1.636269209945    -0.052195983435     1.007825032230
         H           -5.297169594426    -0.012325209945     0.390624016565     1.007825032230

  Basis Set: AUG-CC-PVTZ
    Blend: AUG-CC-PVTZ
  Basis Set: (AUG-CC-PVTZ AUX)
    Blend: AUG-CC-PVTZ-JKFIT
	 Reference Energy          =    -811.4720745045742660 [Eh]
	 Singles Energy            =      -0.0000000000000000 [Eh]
	 Same-Spin Energy          =      -0.8295485244702432 [Eh]
	 Opposite-Spin Energy      =      -2.5248276313487765 [Eh]
	 Correlation Energy        =      -3.3543761558190197 [Eh]
	 Total Energy              =    -814.8264506603933341 [Eh]

	 ================> DF-SCS-MP2 Energies <==================
	-----------------------------------------------------------
	 SCS Same-Spin Scale       =       0.3333333333333333 [-]
	 SCS Opposite-Spin Scale   =       1.2000000000000000 [-]
	 SCS Same-Spin Energy      =      -0.2765161748234144 [Eh]
	 SCS Opposite-Spin Energy  =      -3.0297931576185317 [Eh]
	 SCS Correlation Energy    =      -3.3063093324419461 [Eh]
	 SCS Total Energy          =    -814.7783838370162357 [Eh]
	-----------------------------------------------------------

  Dipole Moment: [D]
     X:     0.9070      Y:    -4.7755      Z:     2.3343     Total:     5.3923

*** Psi4 exiting successfully. Buy a developer a beer!
