                               Psi4 1.3.2 release

  ==> Input File <==

--------------------------------------------------------------------------
#psi4
#
memory 32 gb

molecule  {
0 1
  O        1.3218958    -0.4090665    -0.9309670
  O        3.2020570     1.9012130    -0.2995130
  O        2.7994070    -2.7489470    -0.4002010
  O       -1.3621860     2.3740050     0.1547830
  N       -0.7835360     0.1536420    -0.2468405
  N       -3.0541720     0.8052390     0.2400120
  N       -4.6734100    -0.8124350     0.4126370
  C        2.7015950     0.8755540     0.5594740
  C        1.2368440     1.1072260     0.8878520
  C        2.6518190    -0.3922910    -0.2854700
  C        0.5739580     0.6830040    -0.4149160
  C        2.8020980    -1.6600160     0.5224700
  C       -1.1273370    -1.1158190    -0.3082760
  C       -1.7446880     1.2038920     0.0820450
  C       -2.4173070    -1.5045610    -0.1045420
  C       -3.3619920    -0.4731600     0.1685110
  H        3.3343810     0.7567850     1.4508530
  H        0.9047070     0.4438290     1.6934890
  H        0.9853290     2.1340670     1.1581470
  H        0.5274540     1.5132540    -1.1249130
  H        3.4174920    -0.3642830    -1.0666260
  H        1.9707490    -1.7331840     1.2432230
  H        3.7460890    -1.6095150     1.0882890
  H        3.1038510     2.7463240     0.1779830
  H       -0.3107400    -1.7892010    -0.5436980
  H        2.9100300    -3.5650720     0.1192120
  H       -2.7034680    -2.5490840    -0.1532500
  H       -5.0287110    -1.6377420    -0.0567190
  H       -5.2994710    -0.0137980     0.3861010
units angstrom
no_reorient  #important for SAPT in psi4, default
symmetry c1  #important for SAPT in psi4, default
}

set PROPERTIES_ORIGIN ["COM"]
properties('MP2/aug-cc-pvtz', properties = ['dipole'])
--------------------------------------------------------------------------

    Molecular point group: c1
  Charge       = 0
  Multiplicity = 1
  Basis Set: AUG-CC-PVTZ
    Blend: AUG-CC-PVTZ
  Basis Set: (AUG-CC-PVTZ AUX)
    Blend: AUG-CC-PVTZ-JKFIT

    Orbital Energies [Eh]
    ---------------------

    Doubly Occupied:

       1A    -20.578189     2A    -20.576635     3A    -20.573203
       4A    -20.509674     5A    -15.621014     6A    -15.585809
       7A    -15.539193     8A    -11.374759     9A    -11.342276
      10A    -11.331571    11A    -11.311784    12A    -11.304229
      13A    -11.298428    14A    -11.296704    15A    -11.239426
      16A    -11.229341    17A     -1.412280    18A     -1.381601
      19A     -1.374773    20A     -1.365380    21A     -1.294120
      22A     -1.262810    23A     -1.167776    24A     -1.080869
      25A     -1.068495    26A     -1.024443    27A     -0.927793
      28A     -0.892538    29A     -0.868456    30A     -0.830383
      31A     -0.806755    32A     -0.751580    33A     -0.740357
      34A     -0.720829    35A     -0.705350    36A     -0.693028
      37A     -0.689909    38A     -0.674094    39A     -0.652424
      40A     -0.635991    41A     -0.626839    42A     -0.618263
      43A     -0.602252    44A     -0.591587    45A     -0.587524
      46A     -0.577208    47A     -0.567765    48A     -0.544559
      49A     -0.531676    50A     -0.523171    51A     -0.511526
      52A     -0.491783    53A     -0.487762    54A     -0.469375
      55A     -0.464469    56A     -0.446830    57A     -0.438855
      58A     -0.413891    59A     -0.383200    60A     -0.329577

  @DF-RHF Final Energy:  -811.47244589773425

   => Energetics <=

    Nuclear Repulsion Energy =           1169.5916820887225640
    One-Electron Energy =               -3434.2435013555323167
    Two-Electron Energy =                1453.1793733690756198
    Total Energy =                       -811.4724458977343602
  Basis Set: (AUG-CC-PVTZ AUX)
    Blend: AUG-CC-PVTZ-RI
    Molecular point group: c1

    Geometry (in Angstrom), charge = 0, multiplicity = 1:

       Center              X                  Y                   Z               Mass
    ------------   -----------------  -----------------  -----------------  -----------------
         O            1.323818548261    -0.404197357399    -0.929944424512    15.994914619570
         O            3.203979748261     1.906082142601    -0.298490424512    15.994914619570
         O            2.801329748261    -2.744077857399    -0.399178424512    15.994914619570
         O           -1.360263251739     2.378874142601     0.155805575488    15.994914619570
         N           -0.781613251739     0.158511142601    -0.245817924512    14.003074004430
         N           -3.052249251739     0.810108142601     0.241034575488    14.003074004430
         N           -4.671487251739    -0.807565857399     0.413659575488    14.003074004430
         C            2.703517748261     0.880423142601     0.560496575488    12.000000000000
         C            1.238766748261     1.112095142601     0.888874575488    12.000000000000
         C            2.653741748261    -0.387421857399    -0.284447424512    12.000000000000
         C            0.575880748261     0.687873142601    -0.413893424512    12.000000000000
         C            2.804020748261    -1.655146857399     0.523492575488    12.000000000000
         C           -1.125414251739    -1.110949857399    -0.307253424512    12.000000000000
         C           -1.742765251739     1.208761142601     0.083067575488    12.000000000000
         C           -2.415384251739    -1.499691857399    -0.103519424512    12.000000000000
         C           -3.360069251739    -0.468290857399     0.169533575488    12.000000000000
         H            3.336303748261     0.761654142601     1.451875575488     1.007825032230
         H            0.906629748261     0.448698142601     1.694511575488     1.007825032230
         H            0.987251748261     2.138936142601     1.159169575488     1.007825032230
         H            0.529376748261     1.518123142601    -1.123890424512     1.007825032230
         H            3.419414748261    -0.359413857399    -1.065603424512     1.007825032230
         H            1.972671748261    -1.728314857399     1.244245575488     1.007825032230
         H            3.748011748261    -1.604645857399     1.089311575488     1.007825032230
         H            3.105773748261     2.751193142601     0.179005575488     1.007825032230
         H           -0.308817251739    -1.784331857399    -0.542675424512     1.007825032230
         H            2.911952748261    -3.560202857399     0.120234575488     1.007825032230
         H           -2.701545251739    -2.544214857399    -0.152227424512     1.007825032230
         H           -5.026788251739    -1.632872857399    -0.055696424512     1.007825032230
         H           -5.297548251739    -0.008928857399     0.387123575488     1.007825032230

  Basis Set: AUG-CC-PVTZ
    Blend: AUG-CC-PVTZ
  Basis Set: (AUG-CC-PVTZ AUX)
    Blend: AUG-CC-PVTZ-JKFIT
	 Reference Energy          =    -811.4724458977342465 [Eh]
	 Singles Energy            =      -0.0000000000000000 [Eh]
	 Same-Spin Energy          =      -0.8304590382980295 [Eh]
	 Opposite-Spin Energy      =      -2.5267380725998683 [Eh]
	 Correlation Energy        =      -3.3571971108978977 [Eh]
	 Total Energy              =    -814.8296430086321607 [Eh]

	 ================> DF-SCS-MP2 Energies <==================
	-----------------------------------------------------------
	 SCS Same-Spin Scale       =       0.3333333333333333 [-]
	 SCS Opposite-Spin Scale   =       1.2000000000000000 [-]
	 SCS Same-Spin Energy      =      -0.2768196794326765 [Eh]
	 SCS Opposite-Spin Energy  =      -3.0320856871198418 [Eh]
	 SCS Correlation Energy    =      -3.3089053665525183 [Eh]
	 SCS Total Energy          =    -814.7813512642867408 [Eh]
	-----------------------------------------------------------

  Dipole Moment: [D]
     X:     1.3704      Y:    -4.3839      Z:     2.5313     Total:     5.2444

*** Psi4 exiting successfully. Buy a developer a beer!
