                               Psi4 1.3.2 release

  ==> Input File <==

--------------------------------------------------------------------------
#psi4
#
memory 32 gb

molecule  {
0 1
  O        1.3620710    -0.3800110    -0.9318440
  O        3.2020570     1.9012130    -0.2995130
  O        2.7994070    -2.7489470    -0.4002010
  O       -1.3621860     2.3740050     0.1547830
  N       -0.7982440     0.1994180    -0.2292560
  N       -3.0541720     0.8052390     0.2400120
  N       -4.6734100    -0.8124350     0.4126370
  C        2.7015950     0.8755540     0.5594740
  C        1.2368440     1.1072260     0.8878520
  C        2.6298696    -0.3324473    -0.2449493
  C        0.6308226     0.7009399    -0.3704542
  C        2.8020980    -1.6600160     0.5224700
  C       -1.1273370    -1.1158190    -0.3082760
  C       -1.7446880     1.2038920     0.0820450
  C       -2.4173070    -1.5045610    -0.1045420
  C       -3.3619920    -0.4731600     0.1685110
  H        3.3343810     0.7567850     1.4508530
  H        0.9047070     0.4438290     1.6934890
  H        0.9853290     2.1340670     1.1581470
  H        0.5274540     1.5132540    -1.1249130
  H        3.4174920    -0.3642830    -1.0666260
  H        1.9707490    -1.7331840     1.2432230
  H        3.7460890    -1.6095150     1.0882890
  H        3.1038510     2.7463240     0.1779830
  H       -0.3107400    -1.7892010    -0.5436980
  H        2.9100300    -3.5650720     0.1192120
  H       -2.7034680    -2.5490840    -0.1532500
  H       -5.0287110    -1.6377420    -0.0567190
  H       -5.2994710    -0.0137980     0.3861010
units angstrom
no_reorient  #important for SAPT in psi4, default
symmetry c1  #important for SAPT in psi4, default
}

set PROPERTIES_ORIGIN ["COM"]
properties('MP2/aug-cc-pvtz', properties = ['dipole'])
--------------------------------------------------------------------------

    Molecular point group: c1
  Charge       = 0
  Multiplicity = 1
  Basis Set: AUG-CC-PVTZ
    Blend: AUG-CC-PVTZ
  Basis Set: (AUG-CC-PVTZ AUX)
    Blend: AUG-CC-PVTZ-JKFIT

    Orbital Energies [Eh]
    ---------------------

    Doubly Occupied:

       1A    -20.579397     2A    -20.578770     3A    -20.578099
       4A    -20.500532     5A    -15.617689     6A    -15.586581
       7A    -15.538425     8A    -11.366822     9A    -11.342847
      10A    -11.334231    11A    -11.315798    12A    -11.302563
      13A    -11.299527    14A    -11.295602    15A    -11.239293
      16A    -11.234566    17A     -1.423598    18A     -1.380541
      19A     -1.375474    20A     -1.368266    21A     -1.289059
      22A     -1.254665    23A     -1.165773    24A     -1.097582
      25A     -1.068162    26A     -1.030539    27A     -0.926153
      28A     -0.894857    29A     -0.869769    30A     -0.830906
      31A     -0.805697    32A     -0.751306    33A     -0.739090
      34A     -0.724274    35A     -0.707782    36A     -0.694614
      37A     -0.690878    38A     -0.672858    39A     -0.654106
      40A     -0.637821    41A     -0.628597    42A     -0.617024
      43A     -0.601624    44A     -0.596554    45A     -0.588418
      46A     -0.569781    47A     -0.562904    48A     -0.547693
      49A     -0.538614    50A     -0.527067    51A     -0.512910
      52A     -0.500418    53A     -0.481659    54A     -0.469309
      55A     -0.462273    56A     -0.442018    57A     -0.435114
      58A     -0.412469    59A     -0.382722    60A     -0.333127

  @DF-RHF Final Energy:  -811.46337517468032

   => Energetics <=

    Nuclear Repulsion Energy =           1171.0256117596029526
    One-Electron Energy =               -3437.0283495173348456
    Two-Electron Energy =                1454.5393625830513429
    Total Energy =                       -811.4633751746803227
  Basis Set: (AUG-CC-PVTZ AUX)
    Blend: AUG-CC-PVTZ-RI
    Molecular point group: c1

    Geometry (in Angstrom), charge = 0, multiplicity = 1:

       Center              X                  Y                   Z               Mass
    ------------   -----------------  -----------------  -----------------  -----------------
         O            1.360225983064    -0.384121093459    -0.936334640304    15.994914619570
         O            3.200211983064     1.897102906541    -0.304003640304    15.994914619570
         O            2.797561983064    -2.753057093459    -0.404691640304    15.994914619570
         O           -1.364031016936     2.369894906541     0.150292359696    15.994914619570
         N           -0.800089016936     0.195307906541    -0.233746640304    14.003074004430
         N           -3.056017016936     0.801128906541     0.235521359696    14.003074004430
         N           -4.675255016936    -0.816545093459     0.408146359696    14.003074004430
         C            2.699749983064     0.871443906541     0.554983359696    12.000000000000
         C            1.234998983064     1.103115906541     0.883361359696    12.000000000000
         C            2.628024583064    -0.336557393459    -0.249439940304    12.000000000000
         C            0.628977583064     0.696829806541    -0.374944840304    12.000000000000
         C            2.800252983064    -1.664126093459     0.517979359696    12.000000000000
         C           -1.129182016936    -1.119929093459    -0.312766640304    12.000000000000
         C           -1.746533016936     1.199781906541     0.077554359696    12.000000000000
         C           -2.419152016936    -1.508671093459    -0.109032640304    12.000000000000
         C           -3.363837016936    -0.477270093459     0.164020359696    12.000000000000
         H            3.332535983064     0.752674906541     1.446362359696     1.007825032230
         H            0.902861983064     0.439718906541     1.688998359696     1.007825032230
         H            0.983483983064     2.129956906541     1.153656359696     1.007825032230
         H            0.525608983064     1.509143906541    -1.129403640304     1.007825032230
         H            3.415646983064    -0.368393093459    -1.071116640304     1.007825032230
         H            1.968903983064    -1.737294093459     1.238732359696     1.007825032230
         H            3.744243983064    -1.613625093459     1.083798359696     1.007825032230
         H            3.102005983064     2.742213906541     0.173492359696     1.007825032230
         H           -0.312585016936    -1.793311093459    -0.548188640304     1.007825032230
         H            2.908184983064    -3.569182093459     0.114721359696     1.007825032230
         H           -2.705313016936    -2.553194093459    -0.157740640304     1.007825032230
         H           -5.030556016936    -1.641852093459    -0.061209640304     1.007825032230
         H           -5.301316016936    -0.017908093459     0.381610359696     1.007825032230

  Basis Set: AUG-CC-PVTZ
    Blend: AUG-CC-PVTZ
  Basis Set: (AUG-CC-PVTZ AUX)
    Blend: AUG-CC-PVTZ-JKFIT
	 Reference Energy          =    -811.4633751746803227 [Eh]
	 Singles Energy            =      -0.0000000000000000 [Eh]
	 Same-Spin Energy          =      -0.8312205276211697 [Eh]
	 Opposite-Spin Energy      =      -2.5274200782950746 [Eh]
	 Correlation Energy        =      -3.3586406059162446 [Eh]
	 Total Energy              =    -814.8220157805965300 [Eh]

	 ================> DF-SCS-MP2 Energies <==================
	-----------------------------------------------------------
	 SCS Same-Spin Scale       =       0.3333333333333333 [-]
	 SCS Opposite-Spin Scale   =       1.2000000000000000 [-]
	 SCS Same-Spin Energy      =      -0.2770735092070565 [Eh]
	 SCS Opposite-Spin Energy  =      -3.0329040939540897 [Eh]
	 SCS Correlation Energy    =      -3.3099776031611463 [Eh]
	 SCS Total Energy          =    -814.7733527778415237 [Eh]
	-----------------------------------------------------------

  Dipole Moment: [D]
     X:     1.3340      Y:    -4.5615      Z:     2.5965     Total:     5.4156

*** Psi4 exiting successfully. Buy a developer a beer!
