                               Psi4 1.3.2 release

  ==> Input File <==

--------------------------------------------------------------------------
#psi4
#
memory 32 gb

molecule  {
0 1
  O        1.3620710    -0.3800110    -0.9318440
  O        3.2020570     1.9012130    -0.2995130
  O        2.7994070    -2.7489470    -0.4002010
  O       -1.3621860     2.3740050     0.1547830
  N       -0.7982440     0.1994180    -0.2292560
  N       -3.0541720     0.8052390     0.2400120
  N       -4.6734100    -0.8124350     0.4126370
  C        2.7015950     0.8755540     0.5594740
  C        1.2368440     1.1072260     0.8878520
  C        2.6518190    -0.3922910    -0.2854700
  C        0.5739580     0.6830040    -0.4149160
  C        2.8020980    -1.6600160     0.5224700
  C       -1.1212197    -1.1385648    -0.3115562
  C       -1.7446880     1.2038920     0.0820450
  C       -2.4173070    -1.5045610    -0.1045420
  C       -3.3799078    -0.4903254     0.1702333
  H        3.3343810     0.7567850     1.4508530
  H        0.9047070     0.4438290     1.6934890
  H        0.9853290     2.1340670     1.1581470
  H        0.5274540     1.5132540    -1.1249130
  H        3.4174920    -0.3642830    -1.0666260
  H        1.9707490    -1.7331840     1.2432230
  H        3.7460890    -1.6095150     1.0882890
  H        3.1038510     2.7463240     0.1779830
  H       -0.3107400    -1.7892010    -0.5436980
  H        2.9100300    -3.5650720     0.1192120
  H       -2.7034680    -2.5490840    -0.1532500
  H       -5.0287110    -1.6377420    -0.0567190
  H       -5.2994710    -0.0137980     0.3861010
units angstrom
no_reorient  #important for SAPT in psi4, default
symmetry c1  #important for SAPT in psi4, default
}

set PROPERTIES_ORIGIN ["COM"]
properties('MP2/aug-cc-pvtz', properties = ['dipole'])
--------------------------------------------------------------------------

    Molecular point group: c1
  Charge       = 0
  Multiplicity = 1
  Basis Set: AUG-CC-PVTZ
    Blend: AUG-CC-PVTZ
  Basis Set: (AUG-CC-PVTZ AUX)
    Blend: AUG-CC-PVTZ-JKFIT

    Orbital Energies [Eh]
    ---------------------

    Doubly Occupied:

       1A    -20.577363     2A    -20.573285     3A    -20.571638
       4A    -20.499967     5A    -15.619013     6A    -15.593691
       7A    -15.539438     8A    -11.367202     9A    -11.347776
      10A    -11.328385    11A    -11.319506    12A    -11.299681
      13A    -11.296277    14A    -11.292122    15A    -11.239168
      16A    -11.235090    17A     -1.414789    18A     -1.378972
      19A     -1.372921    20A     -1.364411    21A     -1.291609
      22A     -1.260058    23A     -1.166771    24A     -1.077799
      25A     -1.068234    26A     -1.026854    27A     -0.925725
      28A     -0.897664    29A     -0.866673    30A     -0.829240
      31A     -0.805707    32A     -0.754959    33A     -0.736534
      34A     -0.720400    35A     -0.712231    36A     -0.692516
      37A     -0.688896    38A     -0.677152    39A     -0.655732
      40A     -0.635189    41A     -0.625192    42A     -0.619831
      43A     -0.604823    44A     -0.597752    45A     -0.587215
      46A     -0.570122    47A     -0.567863    48A     -0.544424
      49A     -0.534134    50A     -0.521905    51A     -0.510194
      52A     -0.484679    53A     -0.479037    54A     -0.467840
      55A     -0.459740    56A     -0.441932    57A     -0.435798
      58A     -0.413953    59A     -0.380356    60A     -0.335226

  @DF-RHF Final Energy:  -811.47656685545599

   => Energetics <=

    Nuclear Repulsion Energy =           1169.1282270482422518
    One-Electron Energy =               -3433.4042853569089857
    Two-Electron Energy =                1452.7994914532105213
    Total Energy =                       -811.4765668554559852
  Basis Set: (AUG-CC-PVTZ AUX)
    Blend: AUG-CC-PVTZ-RI
    Molecular point group: c1

    Geometry (in Angstrom), charge = 0, multiplicity = 1:

       Center              X                  Y                   Z               Mass
    ------------   -----------------  -----------------  -----------------  -----------------
         O            1.362694444486    -0.377902035677    -0.931761642686    15.994914619570
         O            3.202680444486     1.903321964323    -0.299430642686    15.994914619570
         O            2.800030444486    -2.746838035677    -0.400118642686    15.994914619570
         O           -1.361562555514     2.376113964323     0.154865357314    15.994914619570
         N           -0.797620555514     0.201526964323    -0.229173642686    14.003074004430
         N           -3.053548555514     0.807347964323     0.240094357314    14.003074004430
         N           -4.672786555514    -0.810326035677     0.412719357314    14.003074004430
         C            2.702218444486     0.877662964323     0.559556357314    12.000000000000
         C            1.237467444486     1.109334964323     0.887934357314    12.000000000000
         C            2.652442444486    -0.390182035677    -0.285387642686    12.000000000000
         C            0.574581444486     0.685112964323    -0.414833642686    12.000000000000
         C            2.802721444486    -1.657907035677     0.522552357314    12.000000000000
         C           -1.120596255514    -1.136455835677    -0.311473842686    12.000000000000
         C           -1.744064555514     1.206000964323     0.082127357314    12.000000000000
         C           -2.416683555514    -1.502452035677    -0.104459642686    12.000000000000
         C           -3.379284355514    -0.488216435677     0.170315657314    12.000000000000
         H            3.335004444486     0.758893964323     1.450935357314     1.007825032230
         H            0.905330444486     0.445937964323     1.693571357314     1.007825032230
         H            0.985952444486     2.136175964323     1.158229357314     1.007825032230
         H            0.528077444486     1.515362964323    -1.124830642686     1.007825032230
         H            3.418115444486    -0.362174035677    -1.066543642686     1.007825032230
         H            1.971372444486    -1.731075035677     1.243305357314     1.007825032230
         H            3.746712444486    -1.607406035677     1.088371357314     1.007825032230
         H            3.104474444486     2.748432964323     0.178065357314     1.007825032230
         H           -0.310116555514    -1.787092035677    -0.543615642686     1.007825032230
         H            2.910653444486    -3.562963035677     0.119294357314     1.007825032230
         H           -2.702844555514    -2.546975035677    -0.153167642686     1.007825032230
         H           -5.028087555514    -1.635633035677    -0.056636642686     1.007825032230
         H           -5.298847555514    -0.011689035677     0.386183357314     1.007825032230

  Basis Set: AUG-CC-PVTZ
    Blend: AUG-CC-PVTZ
  Basis Set: (AUG-CC-PVTZ AUX)
    Blend: AUG-CC-PVTZ-JKFIT
	 Reference Energy          =    -811.4765668554559852 [Eh]
	 Singles Energy            =      -0.0000000000000000 [Eh]
	 Same-Spin Energy          =      -0.8298961049363107 [Eh]
	 Opposite-Spin Energy      =      -2.5257867629216788 [Eh]
	 Correlation Energy        =      -3.3556828678579897 [Eh]
	 Total Energy              =    -814.8322497233140211 [Eh]

	 ================> DF-SCS-MP2 Energies <==================
	-----------------------------------------------------------
	 SCS Same-Spin Scale       =       0.3333333333333333 [-]
	 SCS Opposite-Spin Scale   =       1.2000000000000000 [-]
	 SCS Same-Spin Energy      =      -0.2766320349787702 [Eh]
	 SCS Opposite-Spin Energy  =      -3.0309441155060144 [Eh]
	 SCS Correlation Energy    =      -3.3075761504847847 [Eh]
	 SCS Total Energy          =    -814.7841430059407912 [Eh]
	-----------------------------------------------------------

  Dipole Moment: [D]
     X:     0.8038      Y:    -4.8407      Z:     2.5142     Total:     5.5136

*** Psi4 exiting successfully. Buy a developer a beer!
