                               Psi4 1.3.2 release

  ==> Input File <==

--------------------------------------------------------------------------
#psi4
#
memory 32 gb

molecule  {
0 1
  O        1.3620710    -0.3800110    -0.9318440
  O        3.2020570     1.9012130    -0.2995130
  O        2.7994070    -2.7489470    -0.4002010
  O       -1.3621860     2.3740050     0.1547830
  N       -0.7982440     0.1994180    -0.2292560
  N       -3.0541720     0.8052390     0.2400120
  N       -4.6734100    -0.8124350     0.4126370
  C        2.7113092     0.8296402     0.6240266
  C        1.2368440     1.1072260     0.8878520
  C        2.6518190    -0.3922910    -0.2854700
  C        0.5739580     0.6830040    -0.4149160
  C        2.8081211    -1.6153918     0.5874971
  C       -1.1273370    -1.1158190    -0.3082760
  C       -1.7446880     1.2038920     0.0820450
  C       -2.4173070    -1.5045610    -0.1045420
  C       -3.3619920    -0.4731600     0.1685110
  H        3.3343810     0.7567850     1.4508530
  H        0.9047070     0.4438290     1.6934890
  H        0.9853290     2.1340670     1.1581470
  H        0.5274540     1.5132540    -1.1249130
  H        3.4174920    -0.3642830    -1.0666260
  H        1.9707490    -1.7331840     1.2432230
  H        3.7460890    -1.6095150     1.0882890
  H        3.1038510     2.7463240     0.1779830
  H       -0.3107400    -1.7892010    -0.5436980
  H        2.9100300    -3.5650720     0.1192120
  H       -2.7034680    -2.5490840    -0.1532500
  H       -5.0287110    -1.6377420    -0.0567190
  H       -5.2994710    -0.0137980     0.3861010
units angstrom
no_reorient  #important for SAPT in psi4, default
symmetry c1  #important for SAPT in psi4, default
}

set PROPERTIES_ORIGIN ["COM"]
properties('MP2/aug-cc-pvtz', properties = ['dipole'])
--------------------------------------------------------------------------

    Molecular point group: c1
  Charge       = 0
  Multiplicity = 1
  Basis Set: AUG-CC-PVTZ
    Blend: AUG-CC-PVTZ
  Basis Set: (AUG-CC-PVTZ AUX)
    Blend: AUG-CC-PVTZ-JKFIT

    Orbital Energies [Eh]
    ---------------------

    Doubly Occupied:

       1A    -20.576688     2A    -20.570544     3A    -20.567151
       4A    -20.504025     5A    -15.622965     6A    -15.589038
       7A    -15.541625     8A    -11.370895     9A    -11.345874
      10A    -11.333023    11A    -11.319172    12A    -11.300627
      13A    -11.297767    14A    -11.295815    15A    -11.240577
      16A    -11.237928    17A     -1.416197    18A     -1.380982
      19A     -1.347246    20A     -1.344264    21A     -1.293107
      22A     -1.262413    23A     -1.169945    24A     -1.083334
      25A     -1.073351    26A     -1.029977    27A     -0.930883
      28A     -0.899065    29A     -0.870199    30A     -0.832489
      31A     -0.815940    32A     -0.755581    33A     -0.741525
      34A     -0.718003    35A     -0.705122    36A     -0.683095
      37A     -0.678113    38A     -0.675222    39A     -0.657664
      40A     -0.637334    41A     -0.629471    42A     -0.616803
      43A     -0.603207    44A     -0.592799    45A     -0.584916
      46A     -0.573793    47A     -0.566636    48A     -0.539560
      49A     -0.527502    50A     -0.523118    51A     -0.507538
      52A     -0.492183    53A     -0.482981    54A     -0.474397
      55A     -0.464392    56A     -0.448584    57A     -0.439961
      58A     -0.417441    59A     -0.384909    60A     -0.336044

  @DF-RHF Final Energy:  -811.46395287798612

   => Energetics <=

    Nuclear Repulsion Energy =           1168.6002999433660534
    One-Electron Energy =               -3432.2865063956073755
    Two-Electron Energy =                1452.2222535742548644
    Total Energy =                       -811.4639528779862303
  Basis Set: (AUG-CC-PVTZ AUX)
    Blend: AUG-CC-PVTZ-RI
    Molecular point group: c1

    Geometry (in Angstrom), charge = 0, multiplicity = 1:

       Center              X                  Y                   Z               Mass
    ------------   -----------------  -----------------  -----------------  -----------------
         O            1.361239388260    -0.379942891564    -0.938691260904    15.994914619570
         O            3.201225388260     1.901281108436    -0.306360260904    15.994914619570
         O            2.798575388260    -2.748878891564    -0.407048260904    15.994914619570
         O           -1.363017611740     2.374073108436     0.147935739096    15.994914619570
         N           -0.799075611740     0.199486108436    -0.236103260904    14.003074004430
         N           -3.055003611740     0.805307108436     0.233164739096    14.003074004430
         N           -4.674241611740    -0.812366891564     0.405789739096    14.003074004430
         C            2.710477588260     0.829708308436     0.617179339096    12.000000000000
         C            1.236012388260     1.107294108436     0.881004739096    12.000000000000
         C            2.650987388260    -0.392222891564    -0.292317260904    12.000000000000
         C            0.573126388260     0.683072108436    -0.421763260904    12.000000000000
         C            2.807289488260    -1.615323691564     0.580649839096    12.000000000000
         C           -1.128168611740    -1.115750891564    -0.315123260904    12.000000000000
         C           -1.745519611740     1.203960108436     0.075197739096    12.000000000000
         C           -2.418138611740    -1.504492891564    -0.111389260904    12.000000000000
         C           -3.362823611740    -0.473091891564     0.161663739096    12.000000000000
         H            3.333549388260     0.756853108436     1.444005739096     1.007825032230
         H            0.903875388260     0.443897108436     1.686641739096     1.007825032230
         H            0.984497388260     2.134135108436     1.151299739096     1.007825032230
         H            0.526622388260     1.513322108436    -1.131760260904     1.007825032230
         H            3.416660388260    -0.364214891564    -1.073473260904     1.007825032230
         H            1.969917388260    -1.733115891564     1.236375739096     1.007825032230
         H            3.745257388260    -1.609446891564     1.081441739096     1.007825032230
         H            3.103019388260     2.746392108436     0.171135739096     1.007825032230
         H           -0.311571611740    -1.789132891564    -0.550545260904     1.007825032230
         H            2.909198388260    -3.565003891564     0.112364739096     1.007825032230
         H           -2.704299611740    -2.549015891564    -0.160097260904     1.007825032230
         H           -5.029542611740    -1.637673891564    -0.063566260904     1.007825032230
         H           -5.300302611740    -0.013729891564     0.379253739096     1.007825032230

  Basis Set: AUG-CC-PVTZ
    Blend: AUG-CC-PVTZ
  Basis Set: (AUG-CC-PVTZ AUX)
    Blend: AUG-CC-PVTZ-JKFIT
	 Reference Energy          =    -811.4639528779861166 [Eh]
	 Singles Energy            =      -0.0000000000000000 [Eh]
	 Same-Spin Energy          =      -0.8301895191599469 [Eh]
	 Opposite-Spin Energy      =      -2.5282931341126664 [Eh]
	 Correlation Energy        =      -3.3584826532726133 [Eh]
	 Total Energy              =    -814.8224355312587477 [Eh]

	 ================> DF-SCS-MP2 Energies <==================
	-----------------------------------------------------------
	 SCS Same-Spin Scale       =       0.3333333333333333 [-]
	 SCS Opposite-Spin Scale   =       1.2000000000000000 [-]
	 SCS Same-Spin Energy      =      -0.2767298397199823 [Eh]
	 SCS Opposite-Spin Energy  =      -3.0339517609351998 [Eh]
	 SCS Correlation Energy    =      -3.3106816006551822 [Eh]
	 SCS Total Energy          =    -814.7746344786412465 [Eh]
	-----------------------------------------------------------

  Dipole Moment: [D]
     X:     0.9566      Y:    -4.6427      Z:     2.7609     Total:     5.4856

*** Psi4 exiting successfully. Buy a developer a beer!
