                               Psi4 1.3.2 release

  ==> Input File <==

--------------------------------------------------------------------------
#psi4
#
memory 32 gb

molecule  {
0 1
  O        1.3620710    -0.3800110    -0.9318440
  O        3.2020570     1.9012130    -0.2995130
  O        2.7994070    -2.7489470    -0.4002010
  O       -1.3621860     2.3740050     0.1547830
  N       -0.7982440     0.1994180    -0.2292560
  N       -3.0541720     0.8052390     0.2400120
  N       -4.6734100    -0.8124350     0.4126370
  C        2.7015950     0.8755540     0.5594740
  C        1.2368440     1.1072260     0.8878520
  C        2.6518190    -0.3922910    -0.2854700
  C        0.7610698     0.7489452    -0.4402324
  C        2.8020980    -1.6600160     0.5224700
  C       -1.1273370    -1.1158190    -0.3082760
  C       -1.7446880     1.2038920     0.0820450
  C       -2.4173070    -1.5045610    -0.1045420
  C       -3.3619920    -0.4731600     0.1685110
  H        3.3343810     0.7567850     1.4508530
  H        0.9047070     0.4438290     1.6934890
  H        0.9853290     2.1340670     1.1581470
  H        0.5274540     1.5132540    -1.1249130
  H        3.4174920    -0.3642830    -1.0666260
  H        1.9707490    -1.7331840     1.2432230
  H        3.7460890    -1.6095150     1.0882890
  H        3.1038510     2.7463240     0.1779830
  H       -0.3107400    -1.7892010    -0.5436980
  H        2.9100300    -3.5650720     0.1192120
  H       -2.7034680    -2.5490840    -0.1532500
  H       -5.0287110    -1.6377420    -0.0567190
  H       -5.2994710    -0.0137980     0.3861010
units angstrom
no_reorient  #important for SAPT in psi4, default
symmetry c1  #important for SAPT in psi4, default
}

set PROPERTIES_ORIGIN ["COM"]
properties('MP2/aug-cc-pvtz', properties = ['dipole'])
--------------------------------------------------------------------------

    Molecular point group: c1
  Charge       = 0
  Multiplicity = 1
  Basis Set: AUG-CC-PVTZ
    Blend: AUG-CC-PVTZ
  Basis Set: (AUG-CC-PVTZ AUX)
    Blend: AUG-CC-PVTZ-JKFIT

    Orbital Energies [Eh]
    ---------------------

    Doubly Occupied:

       1A    -20.592206     2A    -20.583997     3A    -20.582857
       4A    -20.491644     5A    -15.599596     6A    -15.579818
       7A    -15.530077     8A    -11.356489     9A    -11.345829
      10A    -11.334400    11A    -11.310049    12A    -11.306086
      13A    -11.303406    14A    -11.302192    15A    -11.243493
      16A    -11.225308    17A     -1.444831    18A     -1.382700
      19A     -1.377600    20A     -1.366041    21A     -1.279441
      22A     -1.235749    23A     -1.154748    24A     -1.098663
      25A     -1.063850    26A     -1.031596    27A     -0.924850
      28A     -0.883908    29A     -0.858582    30A     -0.836639
      31A     -0.817812    32A     -0.745565    33A     -0.737357
      34A     -0.723423    35A     -0.707533    36A     -0.703147
      37A     -0.690407    38A     -0.678997    39A     -0.652079
      40A     -0.637441    41A     -0.623706    42A     -0.616058
      43A     -0.601756    44A     -0.595911    45A     -0.585713
      46A     -0.580106    47A     -0.561516    48A     -0.551132
      49A     -0.544972    50A     -0.518177    51A     -0.514269
      52A     -0.498518    53A     -0.476873    54A     -0.471892
      55A     -0.461530    56A     -0.452871    57A     -0.432549
      58A     -0.400087    59A     -0.376334    60A     -0.323259

  @DF-RHF Final Energy:  -811.44677950373512

   => Energetics <=

    Nuclear Repulsion Energy =           1169.1304368729424823
    One-Electron Energy =               -3433.3391571574688896
    Two-Electron Energy =                1452.7619407807912921
    Total Energy =                       -811.4467795037351152
  Basis Set: (AUG-CC-PVTZ AUX)
    Blend: AUG-CC-PVTZ-RI
    Molecular point group: c1

    Geometry (in Angstrom), charge = 0, multiplicity = 1:

       Center              X                  Y                   Z               Mass
    ------------   -----------------  -----------------  -----------------  -----------------
         O            1.352183557916    -0.383495524649    -0.930506187847    15.994914619570
         O            3.192169557916     1.897728475351    -0.298175187847    15.994914619570
         O            2.789519557916    -2.752431524649    -0.398863187847    15.994914619570
         O           -1.372073442084     2.370520475351     0.156120812153    15.994914619570
         N           -0.808131442084     0.195933475351    -0.227918187847    14.003074004430
         N           -3.064059442084     0.801754475351     0.241349812153    14.003074004430
         N           -4.683297442084    -0.815919524649     0.413974812153    14.003074004430
         C            2.691707557916     0.872069475351     0.560811812153    12.000000000000
         C            1.226956557916     1.103741475351     0.889189812153    12.000000000000
         C            2.641931557916    -0.395775524649    -0.284132187847    12.000000000000
         C            0.751182357916     0.745460675351    -0.438894587847    12.000000000000
         C            2.792210557916    -1.663500524649     0.523807812153    12.000000000000
         C           -1.137224442084    -1.119303524649    -0.306938187847    12.000000000000
         C           -1.754575442084     1.200407475351     0.083382812153    12.000000000000
         C           -2.427194442084    -1.508045524649    -0.103204187847    12.000000000000
         C           -3.371879442084    -0.476644524649     0.169848812153    12.000000000000
         H            3.324493557916     0.753300475351     1.452190812153     1.007825032230
         H            0.894819557916     0.440344475351     1.694826812153     1.007825032230
         H            0.975441557916     2.130582475351     1.159484812153     1.007825032230
         H            0.517566557916     1.509769475351    -1.123575187847     1.007825032230
         H            3.407604557916    -0.367767524649    -1.065288187847     1.007825032230
         H            1.960861557916    -1.736668524649     1.244560812153     1.007825032230
         H            3.736201557916    -1.612999524649     1.089626812153     1.007825032230
         H            3.093963557916     2.742839475351     0.179320812153     1.007825032230
         H           -0.320627442084    -1.792685524649    -0.542360187847     1.007825032230
         H            2.900142557916    -3.568556524649     0.120549812153     1.007825032230
         H           -2.713355442084    -2.552568524649    -0.151912187847     1.007825032230
         H           -5.038598442084    -1.641226524649    -0.055381187847     1.007825032230
         H           -5.309358442084    -0.017282524649     0.387438812153     1.007825032230

  Basis Set: AUG-CC-PVTZ
    Blend: AUG-CC-PVTZ
  Basis Set: (AUG-CC-PVTZ AUX)
    Blend: AUG-CC-PVTZ-JKFIT
	 Reference Energy          =    -811.4467795037351152 [Eh]
	 Singles Energy            =      -0.0000000000000000 [Eh]
	 Same-Spin Energy          =      -0.8315166326458223 [Eh]
	 Opposite-Spin Energy      =      -2.5275429564409668 [Eh]
	 Correlation Energy        =      -3.3590595890867894 [Eh]
	 Total Energy              =    -814.8058390928218842 [Eh]

	 ================> DF-SCS-MP2 Energies <==================
	-----------------------------------------------------------
	 SCS Same-Spin Scale       =       0.3333333333333333 [-]
	 SCS Opposite-Spin Scale   =       1.2000000000000000 [-]
	 SCS Same-Spin Energy      =      -0.2771722108819408 [Eh]
	 SCS Opposite-Spin Energy  =      -3.0330515477291602 [Eh]
	 SCS Correlation Energy    =      -3.3102237586111007 [Eh]
	 SCS Total Energy          =    -814.7570032623461884 [Eh]
	-----------------------------------------------------------

  Dipole Moment: [D]
     X:     2.3786      Y:    -4.5498      Z:     2.4377     Total:     5.6833

*** Psi4 exiting successfully. Buy a developer a beer!
