                               Psi4 1.3.2 release

  ==> Input File <==

--------------------------------------------------------------------------
#psi4
#
memory 32 gb

molecule  {
0 1
  O        1.3620710    -0.3800110    -0.9318440
  O        3.2020570     1.9012130    -0.2995130
  O        2.7994070    -2.7489470    -0.4002010
  O       -1.3621860     2.3740050     0.1547830
  N       -0.7982440     0.1994180    -0.2292560
  N       -3.0982997     0.8145407     0.2489025
  N       -4.6734100    -0.8124350     0.4126370
  C        2.7015950     0.8755540     0.5594740
  C        1.2368440     1.1072260     0.8878520
  C        2.6518190    -0.3922910    -0.2854700
  C        0.5739580     0.6830040    -0.4149160
  C        2.8020980    -1.6600160     0.5224700
  C       -1.1273370    -1.1158190    -0.3082760
  C       -1.7446880     1.2038920     0.0820450
  C       -2.4540648    -1.5379081    -0.1012211
  C       -3.3619920    -0.4731600     0.1685110
  H        3.3343810     0.7567850     1.4508530
  H        0.9047070     0.4438290     1.6934890
  H        0.9853290     2.1340670     1.1581470
  H        0.5274540     1.5132540    -1.1249130
  H        3.4174920    -0.3642830    -1.0666260
  H        1.9707490    -1.7331840     1.2432230
  H        3.7460890    -1.6095150     1.0882890
  H        3.1038510     2.7463240     0.1779830
  H       -0.3107400    -1.7892010    -0.5436980
  H        2.9100300    -3.5650720     0.1192120
  H       -2.7034680    -2.5490840    -0.1532500
  H       -5.0287110    -1.6377420    -0.0567190
  H       -5.2994710    -0.0137980     0.3861010
units angstrom
no_reorient  #important for SAPT in psi4, default
symmetry c1  #important for SAPT in psi4, default
}

set PROPERTIES_ORIGIN ["COM"]
properties('MP2/aug-cc-pvtz', properties = ['dipole'])
--------------------------------------------------------------------------

    Molecular point group: c1
  Charge       = 0
  Multiplicity = 1
  Basis Set: AUG-CC-PVTZ
    Blend: AUG-CC-PVTZ
  Basis Set: (AUG-CC-PVTZ AUX)
    Blend: AUG-CC-PVTZ-JKFIT

    Orbital Energies [Eh]
    ---------------------

    Doubly Occupied:

       1A    -20.578789     2A    -20.575861     3A    -20.575124
       4A    -20.508630     5A    -15.628113     6A    -15.581204
       7A    -15.544795     8A    -11.375205     9A    -11.340339
      10A    -11.334007    11A    -11.326890    12A    -11.302579
      13A    -11.298103    14A    -11.294719    15A    -11.239032
      16A    -11.237928    17A     -1.418807    18A     -1.383555
      19A     -1.374821    20A     -1.367238    21A     -1.290814
      22A     -1.262316    23A     -1.159842    24A     -1.079039
      25A     -1.065968    26A     -1.027897    27A     -0.927378
      28A     -0.901406    29A     -0.865218    30A     -0.828527
      31A     -0.807493    32A     -0.748970    33A     -0.741700
      34A     -0.722517    35A     -0.704018    36A     -0.693815
      37A     -0.689776    38A     -0.674275    39A     -0.660081
      40A     -0.642701    41A     -0.627271    42A     -0.620969
      43A     -0.604527    44A     -0.590654    45A     -0.588308
      46A     -0.572112    47A     -0.569778    48A     -0.546039
      49A     -0.532626    50A     -0.526208    51A     -0.511398
      52A     -0.487594    53A     -0.481763    54A     -0.469628
      55A     -0.462363    56A     -0.450938    57A     -0.440225
      58A     -0.417523    59A     -0.381417    60A     -0.331799

  @DF-RHF Final Energy:  -811.47119255193684

   => Energetics <=

    Nuclear Repulsion Energy =           1167.6831485115553733
    One-Electron Energy =               -3430.3234214343306121
    Two-Electron Energy =                1451.1690803708384010
    Total Energy =                       -811.4711925519368378
  Basis Set: (AUG-CC-PVTZ AUX)
    Blend: AUG-CC-PVTZ-RI
    Molecular point group: c1

    Geometry (in Angstrom), charge = 0, multiplicity = 1:

       Center              X                  Y                   Z               Mass
    ------------   -----------------  -----------------  -----------------  -----------------
         O            1.366734396051    -0.378822468262    -0.932567664268    15.994914619570
         O            3.206720396051     1.902401531738    -0.300236664268    15.994914619570
         O            2.804070396051    -2.747758468262    -0.400924664268    15.994914619570
         O           -1.357522603949     2.375193531738     0.154059335732    15.994914619570
         N           -0.793580603949     0.200606531738    -0.229979664268    14.003074004430
         N           -3.093636303949     0.815729231738     0.248178835732    14.003074004430
         N           -4.668746603949    -0.811246468262     0.411913335732    14.003074004430
         C            2.706258396051     0.876742531738     0.558750335732    12.000000000000
         C            1.241507396051     1.108414531738     0.887128335732    12.000000000000
         C            2.656482396051    -0.391102468262    -0.286193664268    12.000000000000
         C            0.578621396051     0.684192531738    -0.415639664268    12.000000000000
         C            2.806761396051    -1.658827468262     0.521746335732    12.000000000000
         C           -1.122673603949    -1.114630468262    -0.308999664268    12.000000000000
         C           -1.740024603949     1.205080531738     0.081321335732    12.000000000000
         C           -2.449401403949    -1.536719568262    -0.101944764268    12.000000000000
         C           -3.357328603949    -0.471971468262     0.167787335732    12.000000000000
         H            3.339044396051     0.757973531738     1.450129335732     1.007825032230
         H            0.909370396051     0.445017531738     1.692765335732     1.007825032230
         H            0.989992396051     2.135255531738     1.157423335732     1.007825032230
         H            0.532117396051     1.514442531738    -1.125636664268     1.007825032230
         H            3.422155396051    -0.363094468262    -1.067349664268     1.007825032230
         H            1.975412396051    -1.731995468262     1.242499335732     1.007825032230
         H            3.750752396051    -1.608326468262     1.087565335732     1.007825032230
         H            3.108514396051     2.747512531738     0.177259335732     1.007825032230
         H           -0.306076603949    -1.788012468262    -0.544421664268     1.007825032230
         H            2.914693396051    -3.563883468262     0.118488335732     1.007825032230
         H           -2.698804603949    -2.547895468262    -0.153973664268     1.007825032230
         H           -5.024047603949    -1.636553468262    -0.057442664268     1.007825032230
         H           -5.294807603949    -0.012609468262     0.385377335732     1.007825032230

  Basis Set: AUG-CC-PVTZ
    Blend: AUG-CC-PVTZ
  Basis Set: (AUG-CC-PVTZ AUX)
    Blend: AUG-CC-PVTZ-JKFIT
	 Reference Energy          =    -811.4711925519368378 [Eh]
	 Singles Energy            =      -0.0000000000000000 [Eh]
	 Same-Spin Energy          =      -0.8298885886176505 [Eh]
	 Opposite-Spin Energy      =      -2.5267188553080446 [Eh]
	 Correlation Energy        =      -3.3566074439256952 [Eh]
	 Total Energy              =    -814.8277999958625060 [Eh]

	 ================> DF-SCS-MP2 Energies <==================
	-----------------------------------------------------------
	 SCS Same-Spin Scale       =       0.3333333333333333 [-]
	 SCS Opposite-Spin Scale   =       1.2000000000000000 [-]
	 SCS Same-Spin Energy      =      -0.2766295295392168 [Eh]
	 SCS Opposite-Spin Energy  =      -3.0320626263696533 [Eh]
	 SCS Correlation Energy    =      -3.3086921559088700 [Eh]
	 SCS Total Energy          =    -814.7798847078456674 [Eh]
	-----------------------------------------------------------

  Dipole Moment: [D]
     X:     1.4032      Y:    -4.5522      Z:     2.4620     Total:     5.3622

*** Psi4 exiting successfully. Buy a developer a beer!
