                               Psi4 1.3.2 release

  ==> Input File <==

--------------------------------------------------------------------------
#psi4
#
memory 32 gb

molecule  {
0 1
  O        1.3620710    -0.3800110    -0.9318440
  O        3.2020570     1.9012130    -0.2995130
  O        2.7994070    -2.7489470    -0.4002010
  O       -1.3621860     2.3740050     0.1547830
  N       -0.7982440     0.1994180    -0.2292560
  N       -3.0541720     0.8052390     0.2400120
  N       -4.6734100    -0.8124350     0.4126370
  C        2.7015950     0.8755540     0.5594740
  C        1.2368440     1.1072260     0.8878520
  C        2.6518190    -0.3922910    -0.2854700
  C        0.5739580     0.6830040    -0.4149160
  C        2.8020980    -1.6600160     0.5224700
  C       -1.1407485    -1.0706895    -0.3015305
  C       -1.7446880     1.2038920     0.0820450
  C       -2.4173070    -1.5045610    -0.1045420
  C       -3.3253026    -0.4397769     0.1648174
  H        3.3343810     0.7567850     1.4508530
  H        0.9047070     0.4438290     1.6934890
  H        0.9853290     2.1340670     1.1581470
  H        0.5274540     1.5132540    -1.1249130
  H        3.4174920    -0.3642830    -1.0666260
  H        1.9707490    -1.7331840     1.2432230
  H        3.7460890    -1.6095150     1.0882890
  H        3.1038510     2.7463240     0.1779830
  H       -0.3107400    -1.7892010    -0.5436980
  H        2.9100300    -3.5650720     0.1192120
  H       -2.7034680    -2.5490840    -0.1532500
  H       -5.0287110    -1.6377420    -0.0567190
  H       -5.2994710    -0.0137980     0.3861010
units angstrom
no_reorient  #important for SAPT in psi4, default
symmetry c1  #important for SAPT in psi4, default
}

set PROPERTIES_ORIGIN ["COM"]
properties('MP2/aug-cc-pvtz', properties = ['dipole'])
--------------------------------------------------------------------------

    Molecular point group: c1
  Charge       = 0
  Multiplicity = 1
  Basis Set: AUG-CC-PVTZ
    Blend: AUG-CC-PVTZ
  Basis Set: (AUG-CC-PVTZ AUX)
    Blend: AUG-CC-PVTZ-JKFIT

    Orbital Energies [Eh]
    ---------------------

    Doubly Occupied:

       1A    -20.578484     2A    -20.576441     3A    -20.575331
       4A    -20.509285     5A    -15.626923     6A    -15.577646
       7A    -15.543351     8A    -11.375267     9A    -11.339629
      10A    -11.335445    11A    -11.316149    12A    -11.303190
      13A    -11.297998    14A    -11.294943    15A    -11.240174
      16A    -11.233323    17A     -1.420848    18A     -1.389851
      19A     -1.374885    20A     -1.368003    21A     -1.300782
      22A     -1.264422    23A     -1.168236    24A     -1.081644
      25A     -1.070578    26A     -1.030014    27A     -0.929575
      28A     -0.899518    29A     -0.872943    30A     -0.833906
      31A     -0.807467    32A     -0.753822    33A     -0.743839
      34A     -0.722957    35A     -0.700780    36A     -0.692937
      37A     -0.685998    38A     -0.673330    39A     -0.654865
      40A     -0.641207    41A     -0.633950    42A     -0.619173
      43A     -0.605601    44A     -0.594120    45A     -0.586170
      46A     -0.572927    47A     -0.570659    48A     -0.546130
      49A     -0.530800    50A     -0.527081    51A     -0.509802
      52A     -0.489442    53A     -0.487359    54A     -0.469888
      55A     -0.463619    56A     -0.450950    57A     -0.439956
      58A     -0.419946    59A     -0.389097    60A     -0.334258

  @DF-RHF Final Energy:  -811.47442796846917

   => Energetics <=

    Nuclear Repulsion Energy =           1171.6198095630149965
    One-Electron Energy =               -3438.0946468756465038
    Two-Electron Energy =                1455.0004093441621080
    Total Energy =                       -811.4744279684691719
  Basis Set: (AUG-CC-PVTZ AUX)
    Blend: AUG-CC-PVTZ-RI
    Molecular point group: c1

    Geometry (in Angstrom), charge = 0, multiplicity = 1:

       Center              X                  Y                   Z               Mass
    ------------   -----------------  -----------------  -----------------  -----------------
         O            1.360840925278    -0.384159826897    -0.932005235325    15.994914619570
         O            3.200826925278     1.897064173103    -0.299674235325    15.994914619570
         O            2.798176925278    -2.753095826897    -0.400362235325    15.994914619570
         O           -1.363416074722     2.369856173103     0.154621764675    15.994914619570
         N           -0.799474074722     0.195269173103    -0.229417235325    14.003074004430
         N           -3.055402074722     0.801090173103     0.239850764675    14.003074004430
         N           -4.674640074722    -0.816583826897     0.412475764675    14.003074004430
         C            2.700364925278     0.871405173103     0.559312764675    12.000000000000
         C            1.235613925278     1.103077173103     0.887690764675    12.000000000000
         C            2.650588925278    -0.396439826897    -0.285631235325    12.000000000000
         C            0.572727925278     0.678855173103    -0.415077235325    12.000000000000
         C            2.800867925278    -1.664164826897     0.522308764675    12.000000000000
         C           -1.141978574722    -1.074838326897    -0.301691735325    12.000000000000
         C           -1.745918074722     1.199743173103     0.081883764675    12.000000000000
         C           -2.418537074722    -1.508709826897    -0.104703235325    12.000000000000
         C           -3.326532674722    -0.443925726897     0.164656164675    12.000000000000
         H            3.333150925278     0.752636173103     1.450691764675     1.007825032230
         H            0.903476925278     0.439680173103     1.693327764675     1.007825032230
         H            0.984098925278     2.129918173103     1.157985764675     1.007825032230
         H            0.526223925278     1.509105173103    -1.125074235325     1.007825032230
         H            3.416261925278    -0.368431826897    -1.066787235325     1.007825032230
         H            1.969518925278    -1.737332826897     1.243061764675     1.007825032230
         H            3.744858925278    -1.613663826897     1.088127764675     1.007825032230
         H            3.102620925278     2.742175173103     0.177821764675     1.007825032230
         H           -0.311970074722    -1.793349826897    -0.543859235325     1.007825032230
         H            2.908799925278    -3.569220826897     0.119050764675     1.007825032230
         H           -2.704698074722    -2.553232826897    -0.153411235325     1.007825032230
         H           -5.029941074722    -1.641890826897    -0.056880235325     1.007825032230
         H           -5.300701074722    -0.017946826897     0.385939764675     1.007825032230

  Basis Set: AUG-CC-PVTZ
    Blend: AUG-CC-PVTZ
  Basis Set: (AUG-CC-PVTZ AUX)
    Blend: AUG-CC-PVTZ-JKFIT
	 Reference Energy          =    -811.4744279684691719 [Eh]
	 Singles Energy            =      -0.0000000000000000 [Eh]
	 Same-Spin Energy          =      -0.8294265227313442 [Eh]
	 Opposite-Spin Energy      =      -2.5244324309973694 [Eh]
	 Correlation Energy        =      -3.3538589537287136 [Eh]
	 Total Energy              =    -814.8282869221978899 [Eh]

	 ================> DF-SCS-MP2 Energies <==================
	-----------------------------------------------------------
	 SCS Same-Spin Scale       =       0.3333333333333333 [-]
	 SCS Opposite-Spin Scale   =       1.2000000000000000 [-]
	 SCS Same-Spin Energy      =      -0.2764755075771147 [Eh]
	 SCS Opposite-Spin Energy  =      -3.0293189171968433 [Eh]
	 SCS Correlation Energy    =      -3.3057944247739579 [Eh]
	 SCS Total Energy          =    -814.7802223932430934 [Eh]
	-----------------------------------------------------------

  Dipole Moment: [D]
     X:     1.6202      Y:    -4.3442      Z:     2.4413     Total:     5.2399

*** Psi4 exiting successfully. Buy a developer a beer!
