                               Psi4 1.3.2 release

  ==> Input File <==

--------------------------------------------------------------------------
#psi4
#
memory 32 gb

molecule  {
0 1
  O        1.3677365    -0.4018246    -0.9430728
  O        3.2020570     1.9012130    -0.2995130
  O        2.7994070    -2.7489470    -0.4002010
  O       -1.3621860     2.3740050     0.1547830
  N       -0.7982440     0.1994180    -0.2292560
  N       -3.0541720     0.8052390     0.2400120
  N       -4.6734100    -0.8124350     0.4126370
  C        2.7260480     0.8689100     0.5675840
  C        1.2368440     1.1072260     0.8878520
  C        2.6518190    -0.3922910    -0.2854700
  C        0.5739580     0.6830040    -0.4149160
  C        2.8020980    -1.6600160     0.5224700
  C       -1.1273370    -1.1158190    -0.3082760
  C       -1.7446880     1.2038920     0.0820450
  C       -2.4173070    -1.5045610    -0.1045420
  C       -3.3619920    -0.4731600     0.1685110
  H        3.3343810     0.7567850     1.4508530
  H        0.9047070     0.4438290     1.6934890
  H        0.9853290     2.1340670     1.1581470
  H        0.5274540     1.5132540    -1.1249130
  H        3.4174920    -0.3642830    -1.0666260
  H        1.9707490    -1.7331840     1.2432230
  H        3.7460890    -1.6095150     1.0882890
  H        3.1038510     2.7463240     0.1779830
  H       -0.3107400    -1.7892010    -0.5436980
  H        2.9100300    -3.5650720     0.1192120
  H       -2.7034680    -2.5490840    -0.1532500
  H       -5.0287110    -1.6377420    -0.0567190
  H       -5.2994710    -0.0137980     0.3861010
units angstrom
no_reorient  #important for SAPT in psi4, default
symmetry c1  #important for SAPT in psi4, default
}

set PROPERTIES_ORIGIN ["COM"]
properties('MP2/aug-cc-pvtz', properties = ['dipole'])
--------------------------------------------------------------------------

    Molecular point group: c1
  Charge       = 0
  Multiplicity = 1
  Basis Set: AUG-CC-PVTZ
    Blend: AUG-CC-PVTZ
  Basis Set: (AUG-CC-PVTZ AUX)
    Blend: AUG-CC-PVTZ-JKFIT

    Orbital Energies [Eh]
    ---------------------

    Doubly Occupied:

       1A    -20.576830     2A    -20.574404     3A    -20.573961
       4A    -20.503446     5A    -15.622410     6A    -15.588511
       7A    -15.541026     8A    -11.370284     9A    -11.345235
      10A    -11.332743    11A    -11.318307    12A    -11.301013
      13A    -11.295868    14A    -11.292017    15A    -11.238488
      16A    -11.237121    17A     -1.411107    18A     -1.382420
      19A     -1.372831    20A     -1.363605    21A     -1.292467
      22A     -1.261733    23A     -1.169366    24A     -1.077999
      25A     -1.067559    26A     -1.026070    27A     -0.926140
      28A     -0.897269    29A     -0.869666    30A     -0.830284
      31A     -0.807414    32A     -0.754346    33A     -0.738332
      34A     -0.719428    35A     -0.707195    36A     -0.691848
      37A     -0.688498    38A     -0.674754    39A     -0.655356
      40A     -0.636245    41A     -0.628149    42A     -0.617851
      43A     -0.604653    44A     -0.594309    45A     -0.587986
      46A     -0.572984    47A     -0.565847    48A     -0.544580
      49A     -0.533516    50A     -0.523269    51A     -0.510736
      52A     -0.487571    53A     -0.481031    54A     -0.467391
      55A     -0.460174    56A     -0.444399    57A     -0.438378
      58A     -0.416750    59A     -0.384112    60A     -0.335262

  @DF-RHF Final Energy:  -811.47709445652663

   => Energetics <=

    Nuclear Repulsion Energy =           1168.8432288271437756
    One-Electron Energy =               -3432.7755565672155171
    Two-Electron Energy =                1452.4552332835451125
    Total Energy =                       -811.4770944565266291
  Basis Set: (AUG-CC-PVTZ AUX)
    Blend: AUG-CC-PVTZ-RI
    Molecular point group: c1

    Geometry (in Angstrom), charge = 0, multiplicity = 1:

       Center              X                  Y                   Z               Mass
    ------------   -----------------  -----------------  -----------------  -----------------
         O            1.366045286041    -0.399937131983    -0.942710427152    15.994914619570
         O            3.200365786041     1.903100468017    -0.299150627152    15.994914619570
         O            2.797715786041    -2.747059531983    -0.399838627152    15.994914619570
         O           -1.363877213959     2.375892468017     0.155145372848    15.994914619570
         N           -0.799935213959     0.201305468017    -0.228893627152    14.003074004430
         N           -3.055863213959     0.807126468017     0.240374372848    14.003074004430
         N           -4.675101213959    -0.810547531983     0.412999372848    14.003074004430
         C            2.724356786041     0.870797468017     0.567946372848    12.000000000000
         C            1.235152786041     1.109113468017     0.888214372848    12.000000000000
         C            2.650127786041    -0.390403531983    -0.285107627152    12.000000000000
         C            0.572266786041     0.684891468017    -0.414553627152    12.000000000000
         C            2.800406786041    -1.658128531983     0.522832372848    12.000000000000
         C           -1.129028213959    -1.113931531983    -0.307913627152    12.000000000000
         C           -1.746379213959     1.205779468017     0.082407372848    12.000000000000
         C           -2.418998213959    -1.502673531983    -0.104179627152    12.000000000000
         C           -3.363683213959    -0.471272531983     0.168873372848    12.000000000000
         H            3.332689786041     0.758672468017     1.451215372848     1.007825032230
         H            0.903015786041     0.445716468017     1.693851372848     1.007825032230
         H            0.983637786041     2.135954468017     1.158509372848     1.007825032230
         H            0.525762786041     1.515141468017    -1.124550627152     1.007825032230
         H            3.415800786041    -0.362395531983    -1.066263627152     1.007825032230
         H            1.969057786041    -1.731296531983     1.243585372848     1.007825032230
         H            3.744397786041    -1.607627531983     1.088651372848     1.007825032230
         H            3.102159786041     2.748211468017     0.178345372848     1.007825032230
         H           -0.312431213959    -1.787313531983    -0.543335627152     1.007825032230
         H            2.908338786041    -3.563184531983     0.119574372848     1.007825032230
         H           -2.705159213959    -2.547196531983    -0.152887627152     1.007825032230
         H           -5.030402213959    -1.635854531983    -0.056356627152     1.007825032230
         H           -5.301162213959    -0.011910531983     0.386463372848     1.007825032230

  Basis Set: AUG-CC-PVTZ
    Blend: AUG-CC-PVTZ
  Basis Set: (AUG-CC-PVTZ AUX)
    Blend: AUG-CC-PVTZ-JKFIT
	 Reference Energy          =    -811.4770944565266291 [Eh]
	 Singles Energy            =      -0.0000000000000000 [Eh]
	 Same-Spin Energy          =      -0.8297171293796826 [Eh]
	 Opposite-Spin Energy      =      -2.5258779854336120 [Eh]
	 Correlation Energy        =      -3.3555951148132945 [Eh]
	 Total Energy              =    -814.8326895713398699 [Eh]

	 ================> DF-SCS-MP2 Energies <==================
	-----------------------------------------------------------
	 SCS Same-Spin Scale       =       0.3333333333333333 [-]
	 SCS Opposite-Spin Scale   =       1.2000000000000000 [-]
	 SCS Same-Spin Energy      =      -0.2765723764598942 [Eh]
	 SCS Opposite-Spin Energy  =      -3.0310535825203342 [Eh]
	 SCS Correlation Energy    =      -3.3076259589802284 [Eh]
	 SCS Total Energy          =    -814.7847204155068539 [Eh]
	-----------------------------------------------------------

  Dipole Moment: [D]
     X:     1.0504      Y:    -4.6151      Z:     2.5316     Total:     5.3676

*** Psi4 exiting successfully. Buy a developer a beer!
