                               Psi4 1.3.2 release

  ==> Input File <==

--------------------------------------------------------------------------
#psi4
#
memory 32 gb

molecule  {
0 1
  O        1.3620710    -0.3800110    -0.9318440
  O        3.2020570     1.9012130    -0.2995130
  O        2.7994070    -2.7489470    -0.4002010
  O       -1.3621860     2.3740050     0.1547830
  N       -0.7982440     0.1994180    -0.2292560
  N       -3.0541720     0.8052390     0.2400120
  N       -4.6734100    -0.8124350     0.4126370
  C        2.7015950     0.8755540     0.5594740
  C        1.2368440     1.1072260     0.8878520
  C        2.6518190    -0.3922910    -0.2854700
  C        0.5739580     0.6830040    -0.4149160
  C        2.7931709    -1.6135524     0.4646342
  C       -1.1273370    -1.1158190    -0.3082760
  C       -1.7446880     1.2038920     0.0820450
  C       -2.4173070    -1.5045610    -0.1045420
  C       -3.3619920    -0.4731600     0.1685110
  H        3.3343810     0.7567850     1.4508530
  H        0.9047070     0.4438290     1.6934890
  H        0.9853290     2.1340670     1.1581470
  H        0.5274540     1.5132540    -1.1249130
  H        3.4174920    -0.3642830    -1.0666260
  H        1.9707490    -1.7331840     1.2432230
  H        3.7460890    -1.6095150     1.0882890
  H        3.1038510     2.7463240     0.1779830
  H       -0.3107400    -1.7892010    -0.5436980
  H        2.9079943    -3.5914775     0.0756546
  H       -2.7034680    -2.5490840    -0.1532500
  H       -5.0287110    -1.6377420    -0.0567190
  H       -5.2994710    -0.0137980     0.3861010
units angstrom
no_reorient  #important for SAPT in psi4, default
symmetry c1  #important for SAPT in psi4, default
}

set PROPERTIES_ORIGIN ["COM"]
properties('MP2/aug-cc-pvtz', properties = ['dipole'])
--------------------------------------------------------------------------

    Molecular point group: c1
  Charge       = 0
  Multiplicity = 1
  Basis Set: AUG-CC-PVTZ
    Blend: AUG-CC-PVTZ
  Basis Set: (AUG-CC-PVTZ AUX)
    Blend: AUG-CC-PVTZ-JKFIT

    Orbital Energies [Eh]
    ---------------------

    Doubly Occupied:

       1A    -20.575480     2A    -20.574307     3A    -20.573004
       4A    -20.503129     5A    -15.621817     6A    -15.588340
       7A    -15.540792     8A    -11.369963     9A    -11.345023
      10A    -11.331133    11A    -11.318232    12A    -11.303039
      13A    -11.300838    14A    -11.291019    15A    -11.237191
      16A    -11.236954    17A     -1.418252    18A     -1.382657
      19A     -1.372381    20A     -1.364411    21A     -1.292294
      22A     -1.261618    23A     -1.169208    24A     -1.081190
      25A     -1.074878    26A     -1.034215    27A     -0.927475
      28A     -0.896760    29A     -0.869100    30A     -0.831571
      31A     -0.806102    32A     -0.754315    33A     -0.738651
      34A     -0.725060    35A     -0.708626    36A     -0.694096
      37A     -0.688404    38A     -0.675448    39A     -0.655600
      40A     -0.635910    41A     -0.627826    42A     -0.618035
      43A     -0.610343    44A     -0.596363    45A     -0.587884
      46A     -0.573213    47A     -0.566480    48A     -0.539086
      49A     -0.532989    50A     -0.524976    51A     -0.511662
      52A     -0.487901    53A     -0.482067    54A     -0.465039
      55A     -0.456950    56A     -0.444606    57A     -0.439615
      58A     -0.416550    59A     -0.383791    60A     -0.334961

  @DF-RHF Final Energy:  -811.47242725024626

   => Energetics <=

    Nuclear Repulsion Energy =           1171.2467684455723429
    One-Electron Energy =               -3437.5007454110768776
    Two-Electron Energy =                1454.7815497152582793
    Total Energy =                       -811.4724272502462554
  Basis Set: (AUG-CC-PVTZ AUX)
    Blend: AUG-CC-PVTZ-RI
    Molecular point group: c1

    Geometry (in Angstrom), charge = 0, multiplicity = 1:

       Center              X                  Y                   Z               Mass
    ------------   -----------------  -----------------  -----------------  -----------------
         O            1.362551747388    -0.382349095352    -0.928594479363    15.994914619570
         O            3.202537747388     1.898874904648    -0.296263479363    15.994914619570
         O            2.799887747388    -2.751285095352    -0.396951479363    15.994914619570
         O           -1.361705252612     2.371666904648     0.158032520637    15.994914619570
         N           -0.797763252612     0.197079904648    -0.226006479363    14.003074004430
         N           -3.053691252612     0.802900904648     0.243261520637    14.003074004430
         N           -4.672929252612    -0.814773095352     0.415886520637    14.003074004430
         C            2.702075747388     0.873215904648     0.562723520637    12.000000000000
         C            1.237324747388     1.104887904648     0.891101520637    12.000000000000
         C            2.652299747388    -0.394629095352    -0.282220479363    12.000000000000
         C            0.574438747388     0.680665904648    -0.411666479363    12.000000000000
         C            2.793651647388    -1.615890495352     0.467883720637    12.000000000000
         C           -1.126856252612    -1.118157095352    -0.305026479363    12.000000000000
         C           -1.744207252612     1.201553904648     0.085294520637    12.000000000000
         C           -2.416826252612    -1.506899095352    -0.101292479363    12.000000000000
         C           -3.361511252612    -0.475498095352     0.171760520637    12.000000000000
         H            3.334861747388     0.754446904648     1.454102520637     1.007825032230
         H            0.905187747388     0.441490904648     1.696738520637     1.007825032230
         H            0.985809747388     2.131728904648     1.161396520637     1.007825032230
         H            0.527934747388     1.510915904648    -1.121663479363     1.007825032230
         H            3.417972747388    -0.366621095352    -1.063376479363     1.007825032230
         H            1.971229747388    -1.735522095352     1.246472520637     1.007825032230
         H            3.746569747388    -1.611853095352     1.091538520637     1.007825032230
         H            3.104331747388     2.743985904648     0.181232520637     1.007825032230
         H           -0.310259252612    -1.791539095352    -0.540448479363     1.007825032230
         H            2.908475047388    -3.593815595352     0.078904120637     1.007825032230
         H           -2.702987252612    -2.551422095352    -0.150000479363     1.007825032230
         H           -5.028230252612    -1.640080095352    -0.053469479363     1.007825032230
         H           -5.298990252612    -0.016136095352     0.389350520637     1.007825032230

  Basis Set: AUG-CC-PVTZ
    Blend: AUG-CC-PVTZ
  Basis Set: (AUG-CC-PVTZ AUX)
    Blend: AUG-CC-PVTZ-JKFIT
	 Reference Energy          =    -811.4724272502462554 [Eh]
	 Singles Energy            =      -0.0000000000000000 [Eh]
	 Same-Spin Energy          =      -0.8301088324338537 [Eh]
	 Opposite-Spin Energy      =      -2.5253175586990397 [Eh]
	 Correlation Energy        =      -3.3554263911328936 [Eh]
	 Total Energy              =    -814.8278536413791926 [Eh]

	 ================> DF-SCS-MP2 Energies <==================
	-----------------------------------------------------------
	 SCS Same-Spin Scale       =       0.3333333333333333 [-]
	 SCS Opposite-Spin Scale   =       1.2000000000000000 [-]
	 SCS Same-Spin Energy      =      -0.2767029441446179 [Eh]
	 SCS Opposite-Spin Energy  =      -3.0303810704388474 [Eh]
	 SCS Correlation Energy    =      -3.3070840145834652 [Eh]
	 SCS Total Energy          =    -814.7795112648296936 [Eh]
	-----------------------------------------------------------

  Dipole Moment: [D]
     X:     1.0677      Y:    -4.6576      Z:     2.4184     Total:     5.3555

*** Psi4 exiting successfully. Buy a developer a beer!
