                               Psi4 1.3.2 release

  ==> Input File <==

--------------------------------------------------------------------------
#psi4
#
memory 32 gb

molecule  {
0 1
  O        1.3620710    -0.3800110    -0.9318440
  O        3.2020570     1.9012130    -0.2995130
  O        2.7994070    -2.7489470    -0.4002010
  O       -1.3621860     2.3740050     0.1547830
  N       -0.7982440     0.1994180    -0.2292560
  N       -3.0541720     0.8052390     0.2400120
  N       -4.6734100    -0.8124350     0.4126370
  C        2.6793406     0.8509157     0.4872174
  C        1.2368440     1.1072260     0.8878520
  C        2.6518190    -0.3922910    -0.2854700
  C        0.6463444     0.6668501    -0.4440511
  C        2.8020980    -1.6600160     0.5224700
  C       -1.1273370    -1.1158190    -0.3082760
  C       -1.7446880     1.2038920     0.0820450
  C       -2.4173070    -1.5045610    -0.1045420
  C       -3.3619920    -0.4731600     0.1685110
  H        3.3343810     0.7567850     1.4508530
  H        0.9047070     0.4438290     1.6934890
  H        0.9853290     2.1340670     1.1581470
  H        0.5274540     1.5132540    -1.1249130
  H        3.4174920    -0.3642830    -1.0666260
  H        1.9707490    -1.7331840     1.2432230
  H        3.7460890    -1.6095150     1.0882890
  H        3.1038510     2.7463240     0.1779830
  H       -0.3107400    -1.7892010    -0.5436980
  H        2.9100300    -3.5650720     0.1192120
  H       -2.7034680    -2.5490840    -0.1532500
  H       -5.0287110    -1.6377420    -0.0567190
  H       -5.2994710    -0.0137980     0.3861010
units angstrom
no_reorient  #important for SAPT in psi4, default
symmetry c1  #important for SAPT in psi4, default
}

set PROPERTIES_ORIGIN ["COM"]
properties('MP2/aug-cc-pvtz', properties = ['dipole'])
--------------------------------------------------------------------------

    Molecular point group: c1
  Charge       = 0
  Multiplicity = 1
  Basis Set: AUG-CC-PVTZ
    Blend: AUG-CC-PVTZ
  Basis Set: (AUG-CC-PVTZ AUX)
    Blend: AUG-CC-PVTZ-JKFIT

    Orbital Energies [Eh]
    ---------------------

    Doubly Occupied:

       1A    -20.582819     2A    -20.581947     3A    -20.577131
       4A    -20.498384     5A    -15.614445     6A    -15.585149
       7A    -15.537123     8A    -11.365346     9A    -11.341068
      10A    -11.333487    11A    -11.313529    12A    -11.305681
      13A    -11.302509    14A    -11.297532    15A    -11.237806
      16A    -11.232547    17A     -1.442180    18A     -1.380959
      19A     -1.378321    20A     -1.372570    21A     -1.287255
      22A     -1.252236    23A     -1.163842    24A     -1.088233
      25A     -1.068952    26A     -1.031446    27A     -0.926930
      28A     -0.893847    29A     -0.867514    30A     -0.835104
      31A     -0.805702    32A     -0.749915    33A     -0.737408
      34A     -0.728149    35A     -0.706513    36A     -0.700605
      37A     -0.692657    38A     -0.679407    39A     -0.657334
      40A     -0.638381    41A     -0.623669    42A     -0.616969
      43A     -0.605151    44A     -0.597543    45A     -0.588653
      46A     -0.577567    47A     -0.565646    48A     -0.550154
      49A     -0.532666    50A     -0.529492    51A     -0.514339
      52A     -0.494364    53A     -0.479220    54A     -0.472519
      55A     -0.457350    56A     -0.439243    57A     -0.437175
      58A     -0.410803    59A     -0.380221    60A     -0.330003

  @DF-RHF Final Energy:  -811.46674558882273

   => Energetics <=

    Nuclear Repulsion Energy =           1171.4608590024524801
    One-Electron Energy =               -3437.8657920624768849
    Two-Electron Energy =                1454.9381874712018998
    Total Energy =                       -811.4667455888227323
  Basis Set: (AUG-CC-PVTZ AUX)
    Blend: AUG-CC-PVTZ-RI
    Molecular point group: c1

    Geometry (in Angstrom), charge = 0, multiplicity = 1:

       Center              X                  Y                   Z               Mass
    ------------   -----------------  -----------------  -----------------  -----------------
         O            1.359421891679    -0.377855481571    -0.926486190647    15.994914619570
         O            3.199407891679     1.903368518429    -0.294155190647    15.994914619570
         O            2.796757891679    -2.746791481571    -0.394843190647    15.994914619570
         O           -1.364835108321     2.376160518429     0.160140809353    15.994914619570
         N           -0.800893108321     0.201573518429    -0.223898190647    14.003074004430
         N           -3.056821108321     0.807394518429     0.245369809353    14.003074004430
         N           -4.676059108321    -0.810279481571     0.417994809353    14.003074004430
         C            2.676691491679     0.853071218429     0.492575209353    12.000000000000
         C            1.234194891679     1.109381518429     0.893209809353    12.000000000000
         C            2.649169891679    -0.390135481571    -0.280112190647    12.000000000000
         C            0.643695291679     0.669005618429    -0.438693290647    12.000000000000
         C            2.799448891679    -1.657860481571     0.527827809353    12.000000000000
         C           -1.129986108321    -1.113663481571    -0.302918190647    12.000000000000
         C           -1.747337108321     1.206047518429     0.087402809353    12.000000000000
         C           -2.419956108321    -1.502405481571    -0.099184190647    12.000000000000
         C           -3.364641108321    -0.471004481571     0.173868809353    12.000000000000
         H            3.331731891679     0.758940518429     1.456210809353     1.007825032230
         H            0.902057891679     0.445984518429     1.698846809353     1.007825032230
         H            0.982679891679     2.136222518429     1.163504809353     1.007825032230
         H            0.524804891679     1.515409518429    -1.119555190647     1.007825032230
         H            3.414842891679    -0.362127481571    -1.061268190647     1.007825032230
         H            1.968099891679    -1.731028481571     1.248580809353     1.007825032230
         H            3.743439891679    -1.607359481571     1.093646809353     1.007825032230
         H            3.101201891679     2.748479518429     0.183340809353     1.007825032230
         H           -0.313389108321    -1.787045481571    -0.538340190647     1.007825032230
         H            2.907380891679    -3.562916481571     0.124569809353     1.007825032230
         H           -2.706117108321    -2.546928481571    -0.147892190647     1.007825032230
         H           -5.031360108321    -1.635586481571    -0.051361190647     1.007825032230
         H           -5.302120108321    -0.011642481571     0.391458809353     1.007825032230

  Basis Set: AUG-CC-PVTZ
    Blend: AUG-CC-PVTZ
  Basis Set: (AUG-CC-PVTZ AUX)
    Blend: AUG-CC-PVTZ-JKFIT
	 Reference Energy          =    -811.4667455888227323 [Eh]
	 Singles Energy            =      -0.0000000000000000 [Eh]
	 Same-Spin Energy          =      -0.8303989831704492 [Eh]
	 Opposite-Spin Energy      =      -2.5250574089522284 [Eh]
	 Correlation Energy        =      -3.3554563921226777 [Eh]
	 Total Energy              =    -814.8222019809454650 [Eh]

	 ================> DF-SCS-MP2 Energies <==================
	-----------------------------------------------------------
	 SCS Same-Spin Scale       =       0.3333333333333333 [-]
	 SCS Opposite-Spin Scale   =       1.2000000000000000 [-]
	 SCS Same-Spin Energy      =      -0.2767996610568164 [Eh]
	 SCS Opposite-Spin Energy  =      -3.0300688907426738 [Eh]
	 SCS Correlation Energy    =      -3.3068685517994902 [Eh]
	 SCS Total Energy          =    -814.7736141406222714 [Eh]
	-----------------------------------------------------------

  Dipole Moment: [D]
     X:     1.6095      Y:    -4.7593      Z:     2.3286     Total:     5.5375

*** Psi4 exiting successfully. Buy a developer a beer!
