                               Psi4 1.3.2 release

  ==> Input File <==

--------------------------------------------------------------------------
#psi4
#
memory 32 gb

molecule  {
0 1
  O        1.3620710    -0.3800110    -0.9318440
  O        3.2020570     1.9012130    -0.2995130
  O        2.7994070    -2.7489470    -0.4002010
  O       -1.3621860     2.3740050     0.1547830
  N       -0.7982440     0.1994180    -0.2292560
  N       -3.0541720     0.8052390     0.2400120
  N       -4.6734100    -0.8124350     0.4126370
  C        2.7015950     0.8755540     0.5594740
  C        1.2368440     1.1072260     0.8878520
  C        2.6518190    -0.3922910    -0.2854700
  C        0.5739580     0.6830040    -0.4149160
  C        2.8020980    -1.6600160     0.5224700
  C       -1.1273370    -1.1158190    -0.3082760
  C       -1.7446880     1.2038920     0.0820450
  C       -2.4173070    -1.5045610    -0.1045420
  C       -3.3619920    -0.4731600     0.1685110
  H        3.3343810     0.7567850     1.4508530
  H        0.9047070     0.4438290     1.6934890
  H        0.9853290     2.1340670     1.1581470
  H        0.5274540     1.5132540    -1.1249130
  H        3.4174920    -0.3642830    -1.0666260
  H        1.9707490    -1.7331840     1.2432230
  H        3.7460890    -1.6095150     1.0882890
  H        3.1038510     2.7463240     0.1779830
  H       -0.2354287    -1.8513042    -0.5654100
  H        2.9100300    -3.5650720     0.1192120
  H       -2.7034680    -2.5490840    -0.1532500
  H       -5.0287110    -1.6377420    -0.0567190
  H       -5.2994710    -0.0137980     0.3861010
units angstrom
no_reorient  #important for SAPT in psi4, default
symmetry c1  #important for SAPT in psi4, default
}

set PROPERTIES_ORIGIN ["COM"]
properties('MP2/aug-cc-pvtz', properties = ['dipole'])
--------------------------------------------------------------------------

    Molecular point group: c1
  Charge       = 0
  Multiplicity = 1
  Basis Set: AUG-CC-PVTZ
    Blend: AUG-CC-PVTZ
  Basis Set: (AUG-CC-PVTZ AUX)
    Blend: AUG-CC-PVTZ-JKFIT

    Orbital Energies [Eh]
    ---------------------

    Doubly Occupied:

       1A    -20.578374     2A    -20.574430     3A    -20.572950
       4A    -20.503164     5A    -15.622129     6A    -15.588193
       7A    -15.540515     8A    -11.370098     9A    -11.344911
      10A    -11.330839    11A    -11.326735    12A    -11.300971
      13A    -11.297161    14A    -11.293270    15A    -11.236830
      16A    -11.236675    17A     -1.416786    18A     -1.382532
      19A     -1.373998    20A     -1.365950    21A     -1.291990
      22A     -1.261011    23A     -1.168875    24A     -1.078179
      25A     -1.068106    26A     -1.027861    27A     -0.926521
      28A     -0.891201    29A     -0.868815    30A     -0.830437
      31A     -0.805838    32A     -0.754058    33A     -0.736138
      34A     -0.720885    35A     -0.703090    36A     -0.692322
      37A     -0.689318    38A     -0.672857    39A     -0.653569
      40A     -0.637186    41A     -0.627553    42A     -0.617330
      43A     -0.603835    44A     -0.592306    45A     -0.581956
      46A     -0.572247    47A     -0.568925    48A     -0.544900
      49A     -0.532287    50A     -0.523609    51A     -0.510291
      52A     -0.485745    53A     -0.482020    54A     -0.468914
      55A     -0.461035    56A     -0.444324    57A     -0.437427
      58A     -0.415993    59A     -0.383655    60A     -0.334725

  @DF-RHF Final Energy:  -811.47146918178839

   => Energetics <=

    Nuclear Repulsion Energy =           1169.5191461824647376
    One-Electron Energy =               -3434.1335400429861693
    Two-Electron Energy =                1453.1429246787331522
    Total Energy =                       -811.4714691817882795
  Basis Set: (AUG-CC-PVTZ AUX)
    Blend: AUG-CC-PVTZ-RI
    Molecular point group: c1

    Geometry (in Angstrom), charge = 0, multiplicity = 1:

       Center              X                  Y                   Z               Mass
    ------------   -----------------  -----------------  -----------------  -----------------
         O            1.361736753557    -0.379735423891    -0.931747608212    15.994914619570
         O            3.201722753557     1.901488576109    -0.299416608212    15.994914619570
         O            2.799072753557    -2.748671423891    -0.400104608212    15.994914619570
         O           -1.362520246443     2.374280576109     0.154879391788    15.994914619570
         N           -0.798578246443     0.199693576109    -0.229159608212    14.003074004430
         N           -3.054506246443     0.805514576109     0.240108391788    14.003074004430
         N           -4.673744246443    -0.812159423891     0.412733391788    14.003074004430
         C            2.701260753557     0.875829576109     0.559570391788    12.000000000000
         C            1.236509753557     1.107501576109     0.887948391788    12.000000000000
         C            2.651484753557    -0.392015423891    -0.285373608212    12.000000000000
         C            0.573623753557     0.683279576109    -0.414819608212    12.000000000000
         C            2.801763753557    -1.659740423891     0.522566391788    12.000000000000
         C           -1.127671246443    -1.115543423891    -0.308179608212    12.000000000000
         C           -1.745022246443     1.204167576109     0.082141391788    12.000000000000
         C           -2.417641246443    -1.504285423891    -0.104445608212    12.000000000000
         C           -3.362326246443    -0.472884423891     0.168607391788    12.000000000000
         H            3.334046753557     0.757060576109     1.450949391788     1.007825032230
         H            0.904372753557     0.444104576109     1.693585391788     1.007825032230
         H            0.984994753557     2.134342576109     1.158243391788     1.007825032230
         H            0.527119753557     1.513529576109    -1.124816608212     1.007825032230
         H            3.417157753557    -0.364007423891    -1.066529608212     1.007825032230
         H            1.970414753557    -1.732908423891     1.243319391788     1.007825032230
         H            3.745754753557    -1.609239423891     1.088385391788     1.007825032230
         H            3.103516753557     2.746599576109     0.178079391788     1.007825032230
         H           -0.235762946443    -1.851028623891    -0.565313608212     1.007825032230
         H            2.909695753557    -3.564796423891     0.119308391788     1.007825032230
         H           -2.703802246443    -2.548808423891    -0.153153608212     1.007825032230
         H           -5.029045246443    -1.637466423891    -0.056622608212     1.007825032230
         H           -5.299805246443    -0.013522423891     0.386197391788     1.007825032230

  Basis Set: AUG-CC-PVTZ
    Blend: AUG-CC-PVTZ
  Basis Set: (AUG-CC-PVTZ AUX)
    Blend: AUG-CC-PVTZ-JKFIT
	 Reference Energy          =    -811.4714691817883931 [Eh]
	 Singles Energy            =      -0.0000000000000000 [Eh]
	 Same-Spin Energy          =      -0.8302152977708129 [Eh]
	 Opposite-Spin Energy      =      -2.5263195061362409 [Eh]
	 Correlation Energy        =      -3.3565348039070537 [Eh]
	 Total Energy              =    -814.8280039856954318 [Eh]

	 ================> DF-SCS-MP2 Energies <==================
	-----------------------------------------------------------
	 SCS Same-Spin Scale       =       0.3333333333333333 [-]
	 SCS Opposite-Spin Scale   =       1.2000000000000000 [-]
	 SCS Same-Spin Energy      =      -0.2767384325902710 [Eh]
	 SCS Opposite-Spin Energy  =      -3.0315834073634891 [Eh]
	 SCS Correlation Energy    =      -3.3083218399537602 [Eh]
	 SCS Total Energy          =    -814.7797910217421986 [Eh]
	-----------------------------------------------------------

  Dipole Moment: [D]
     X:     1.1267      Y:    -4.6792      Z:     2.4816     Total:     5.4151

*** Psi4 exiting successfully. Buy a developer a beer!
