                               Psi4 1.3.2 release

  ==> Input File <==

--------------------------------------------------------------------------
#psi4
#
memory 32 gb

molecule  {
0 1
  O        1.3620710    -0.3800110    -0.9318440
  O        3.2020570     1.9012130    -0.2995130
  O        2.7994070    -2.7489470    -0.4002010
  O       -1.3621860     2.3740050     0.1547830
  N       -0.7982440     0.1994180    -0.2292560
  N       -3.0650983     0.8076729     0.2426112
  N       -4.6760168    -0.8008492     0.4144396
  C        2.7015950     0.8755540     0.5594740
  C        1.2368440     1.1072260     0.8878520
  C        2.6518190    -0.3922910    -0.2854700
  C        0.5739580     0.6830040    -0.4149160
  C        2.8020980    -1.6600160     0.5224700
  C       -1.1273370    -1.1158190    -0.3082760
  C       -1.7446880     1.2038920     0.0820450
  C       -2.4173070    -1.5045610    -0.1045420
  C       -3.3619920    -0.4731600     0.1685110
  H        3.3343810     0.7567850     1.4508530
  H        0.9047070     0.4438290     1.6934890
  H        0.9853290     2.1340670     1.1581470
  H        0.5274540     1.5132540    -1.1249130
  H        3.4174920    -0.3642830    -1.0666260
  H        1.9707490    -1.7331840     1.2432230
  H        3.7460890    -1.6095150     1.0882890
  H        3.1038510     2.7463240     0.1779830
  H       -0.3107400    -1.7892010    -0.5436980
  H        2.9100300    -3.5650720     0.1192120
  H       -2.7034680    -2.5490840    -0.1532500
  H       -5.0287110    -1.6377420    -0.0567190
  H       -5.2994710    -0.0137980     0.3861010
units angstrom
no_reorient  #important for SAPT in psi4, default
symmetry c1  #important for SAPT in psi4, default
}

set PROPERTIES_ORIGIN ["COM"]
properties('MP2/aug-cc-pvtz', properties = ['dipole'])
--------------------------------------------------------------------------

    Molecular point group: c1
  Charge       = 0
  Multiplicity = 1
  Basis Set: AUG-CC-PVTZ
    Blend: AUG-CC-PVTZ
  Basis Set: (AUG-CC-PVTZ AUX)
    Blend: AUG-CC-PVTZ-JKFIT

    Orbital Energies [Eh]
    ---------------------

    Doubly Occupied:

       1A    -20.577903     2A    -20.574530     3A    -20.573183
       4A    -20.504034     5A    -15.622268     6A    -15.587206
       7A    -15.541539     8A    -11.370779     9A    -11.344068
      10A    -11.331124    11A    -11.318693    12A    -11.301068
      13A    -11.297038    14A    -11.293294    15A    -11.237562
      16A    -11.237043    17A     -1.416907    18A     -1.382385
      19A     -1.373742    20A     -1.365882    21A     -1.292140
      22A     -1.261737    23A     -1.166585    24A     -1.079247
      25A     -1.069166    26A     -1.028117    27A     -0.926689
      28A     -0.898070    29A     -0.867755    30A     -0.830124
      31A     -0.806691    32A     -0.754046    33A     -0.738955
      34A     -0.721027    35A     -0.706332    36A     -0.693189
      37A     -0.688988    38A     -0.674592    39A     -0.656576
      40A     -0.637126    41A     -0.627451    42A     -0.619402
      43A     -0.604590    44A     -0.595547    45A     -0.588332
      46A     -0.572897    47A     -0.568874    48A     -0.545011
      49A     -0.532516    50A     -0.523973    51A     -0.510466
      52A     -0.486115    53A     -0.482197    54A     -0.468676
      55A     -0.461333    56A     -0.445531    57A     -0.438549
      58A     -0.416404    59A     -0.383013    60A     -0.335114

  @DF-RHF Final Energy:  -811.47873222971111

   => Energetics <=

    Nuclear Repulsion Energy =           1169.6386677814373343
    One-Electron Energy =               -3434.3280228256230657
    Two-Electron Energy =                1453.2106228144743909
    Total Energy =                       -811.4787322297111132
  Basis Set: (AUG-CC-PVTZ AUX)
    Blend: AUG-CC-PVTZ-RI
    Molecular point group: c1

    Geometry (in Angstrom), charge = 0, multiplicity = 1:

       Center              X                  Y                   Z               Mass
    ------------   -----------------  -----------------  -----------------  -----------------
         O            1.362905474796    -0.380875532946    -0.932115393696    15.994914619570
         O            3.202891474796     1.900348467054    -0.299784393696    15.994914619570
         O            2.800241474796    -2.749811532946    -0.400472393696    15.994914619570
         O           -1.361351525204     2.373140467054     0.154511606304    15.994914619570
         N           -0.797409525204     0.198553467054    -0.229527393696    14.003074004430
         N           -3.064263825204     0.806808367054     0.242339806304    14.003074004430
         N           -4.675182325204    -0.801713732946     0.414168206304    14.003074004430
         C            2.702429474796     0.874689467054     0.559202606304    12.000000000000
         C            1.237678474796     1.106361467054     0.887580606304    12.000000000000
         C            2.652653474796    -0.393155532946    -0.285741393696    12.000000000000
         C            0.574792474796     0.682139467054    -0.415187393696    12.000000000000
         C            2.802932474796    -1.660880532946     0.522198606304    12.000000000000
         C           -1.126502525204    -1.116683532946    -0.308547393696    12.000000000000
         C           -1.743853525204     1.203027467054     0.081773606304    12.000000000000
         C           -2.416472525204    -1.505425532946    -0.104813393696    12.000000000000
         C           -3.361157525204    -0.474024532946     0.168239606304    12.000000000000
         H            3.335215474796     0.755920467054     1.450581606304     1.007825032230
         H            0.905541474796     0.442964467054     1.693217606304     1.007825032230
         H            0.986163474796     2.133202467054     1.157875606304     1.007825032230
         H            0.528288474796     1.512389467054    -1.125184393696     1.007825032230
         H            3.418326474796    -0.365147532946    -1.066897393696     1.007825032230
         H            1.971583474796    -1.734048532946     1.242951606304     1.007825032230
         H            3.746923474796    -1.610379532946     1.088017606304     1.007825032230
         H            3.104685474796     2.745459467054     0.177711606304     1.007825032230
         H           -0.309905525204    -1.790065532946    -0.543969393696     1.007825032230
         H            2.910864474796    -3.565936532946     0.118940606304     1.007825032230
         H           -2.702633525204    -2.549948532946    -0.153521393696     1.007825032230
         H           -5.027876525204    -1.638606532946    -0.056990393696     1.007825032230
         H           -5.298636525204    -0.014662532946     0.385829606304     1.007825032230

  Basis Set: AUG-CC-PVTZ
    Blend: AUG-CC-PVTZ
  Basis Set: (AUG-CC-PVTZ AUX)
    Blend: AUG-CC-PVTZ-JKFIT
	 Reference Energy          =    -811.4787322297111132 [Eh]
	 Singles Energy            =      -0.0000000000000000 [Eh]
	 Same-Spin Energy          =      -0.8296103523111973 [Eh]
	 Opposite-Spin Energy      =      -2.5253282521076628 [Eh]
	 Correlation Energy        =      -3.3549386044188600 [Eh]
	 Total Energy              =    -814.8336708341299754 [Eh]

	 ================> DF-SCS-MP2 Energies <==================
	-----------------------------------------------------------
	 SCS Same-Spin Scale       =       0.3333333333333333 [-]
	 SCS Opposite-Spin Scale   =       1.2000000000000000 [-]
	 SCS Same-Spin Energy      =      -0.2765367841037324 [Eh]
	 SCS Opposite-Spin Energy  =      -3.0303939025291950 [Eh]
	 SCS Correlation Energy    =      -3.3069306866329273 [Eh]
	 SCS Total Energy          =    -814.7856629163439948 [Eh]
	-----------------------------------------------------------

  Dipole Moment: [D]
     X:     1.1308      Y:    -4.6704      Z:     2.4838     Total:     5.4093

*** Psi4 exiting successfully. Buy a developer a beer!
