                               Psi4 1.3.2 release

  ==> Input File <==

--------------------------------------------------------------------------
#psi4
#
memory 32 gb

molecule  {
0 1
  O        1.3620710    -0.3800110    -0.9318440
  O        3.2020570     1.9012130    -0.2995130
  O        2.7994070    -2.7489470    -0.4002010
  O       -1.3621860     2.3740050     0.1547830
  N       -0.7982440     0.1994180    -0.2292560
  N       -3.0541720     0.8052390     0.2400120
  N       -4.6734100    -0.8124350     0.4126370
  C        2.7015950     0.8755540     0.5594740
  C        1.2368440     1.1072260     0.8878520
  C        2.6518190    -0.3922910    -0.2854700
  C        0.5739580     0.6830040    -0.4149160
  C        2.8020980    -1.6600160     0.5224700
  C       -1.1273370    -1.1158190    -0.3082760
  C       -1.7446880     1.2038920     0.0820450
  C       -2.4141490    -1.5158633    -0.1064595
  C       -3.3619920    -0.4731600     0.1685110
  H        3.3343810     0.7567850     1.4508530
  H        0.9047070     0.4438290     1.6934890
  H        0.9853290     2.1340670     1.1581470
  H        0.5274540     1.5132540    -1.1249130
  H        3.4174920    -0.3642830    -1.0666260
  H        1.9707490    -1.7331840     1.2432230
  H        3.7460890    -1.6095150     1.0882890
  H        3.1038510     2.7463240     0.1779830
  H       -0.3167362    -1.7965142    -0.5433885
  H        2.9100300    -3.5650720     0.1192120
  H       -2.7034680    -2.5490840    -0.1532500
  H       -5.0287110    -1.6377420    -0.0567190
  H       -5.2994710    -0.0137980     0.3861010
units angstrom
no_reorient  #important for SAPT in psi4, default
symmetry c1  #important for SAPT in psi4, default
}

set PROPERTIES_ORIGIN ["COM"]
properties('MP2/aug-cc-pvtz', properties = ['dipole'])
--------------------------------------------------------------------------

    Molecular point group: c1
  Charge       = 0
  Multiplicity = 1
  Basis Set: AUG-CC-PVTZ
    Blend: AUG-CC-PVTZ
  Basis Set: (AUG-CC-PVTZ AUX)
    Blend: AUG-CC-PVTZ-JKFIT

    Orbital Energies [Eh]
    ---------------------

    Doubly Occupied:

       1A    -20.577554     2A    -20.574220     3A    -20.572547
       4A    -20.503443     5A    -15.621538     6A    -15.588696
       7A    -15.541224     8A    -11.370209     9A    -11.346154
      10A    -11.330607    11A    -11.317726    12A    -11.300701
      13A    -11.296657    14A    -11.292855    15A    -11.237092
      16A    -11.236637    17A     -1.416374    18A     -1.382464
      19A     -1.373400    20A     -1.365565    21A     -1.291896
      22A     -1.261275    23A     -1.169260    24A     -1.078727
      25A     -1.068623    26A     -1.027656    27A     -0.926257
      28A     -0.896355    29A     -0.869065    30A     -0.831025
      31A     -0.806118    32A     -0.753804    33A     -0.738963
      34A     -0.720814    35A     -0.706501    36A     -0.692657
      37A     -0.689196    38A     -0.675842    39A     -0.657380
      40A     -0.638393    41A     -0.627399    42A     -0.617949
      43A     -0.604247    44A     -0.594320    45A     -0.588336
      46A     -0.573505    47A     -0.568524    48A     -0.544657
      49A     -0.532360    50A     -0.523684    51A     -0.510274
      52A     -0.485693    53A     -0.482061    54A     -0.468309
      55A     -0.460994    56A     -0.444636    57A     -0.437742
      58A     -0.416334    59A     -0.383707    60A     -0.335084

  @DF-RHF Final Energy:  -811.47949942748176

   => Energetics <=

    Nuclear Repulsion Energy =           1169.7005145093098690
    One-Electron Energy =               -3434.4694633748345041
    Two-Electron Energy =                1453.2894494380429933
    Total Energy =                       -811.4794994274816418
  Basis Set: (AUG-CC-PVTZ AUX)
    Blend: AUG-CC-PVTZ-RI
    Molecular point group: c1

    Geometry (in Angstrom), charge = 0, multiplicity = 1:

       Center              X                  Y                   Z               Mass
    ------------   -----------------  -----------------  -----------------  -----------------
         O            1.361930719017    -0.379381341140    -0.931744014136    15.994914619570
         O            3.201916719017     1.901842658860    -0.299413014136    15.994914619570
         O            2.799266719017    -2.748317341140    -0.400101014136    15.994914619570
         O           -1.362326280983     2.374634658860     0.154882985864    15.994914619570
         N           -0.798384280983     0.200047658860    -0.229156014136    14.003074004430
         N           -3.054312280983     0.805868658860     0.240111985864    14.003074004430
         N           -4.673550280983    -0.811805341140     0.412736985864    14.003074004430
         C            2.701454719017     0.876183658860     0.559573985864    12.000000000000
         C            1.236703719017     1.107855658860     0.887951985864    12.000000000000
         C            2.651678719017    -0.391661341140    -0.285370014136    12.000000000000
         C            0.573817719017     0.683633658860    -0.414816014136    12.000000000000
         C            2.801957719017    -1.659386341140     0.522569985864    12.000000000000
         C           -1.127477280983    -1.115189341140    -0.308176014136    12.000000000000
         C           -1.744828280983     1.204521658860     0.082144985864    12.000000000000
         C           -2.414289280983    -1.515233641140    -0.106359514136    12.000000000000
         C           -3.362132280983    -0.472530341140     0.168610985864    12.000000000000
         H            3.334240719017     0.757414658860     1.450952985864     1.007825032230
         H            0.904566719017     0.444458658860     1.693588985864     1.007825032230
         H            0.985188719017     2.134696658860     1.158246985864     1.007825032230
         H            0.527313719017     1.513883658860    -1.124813014136     1.007825032230
         H            3.417351719017    -0.363653341140    -1.066526014136     1.007825032230
         H            1.970608719017    -1.732554341140     1.243322985864     1.007825032230
         H            3.745948719017    -1.608885341140     1.088388985864     1.007825032230
         H            3.103710719017     2.746953658860     0.178082985864     1.007825032230
         H           -0.316876480983    -1.795884541140    -0.543288514136     1.007825032230
         H            2.909889719017    -3.564442341140     0.119311985864     1.007825032230
         H           -2.703608280983    -2.548454341140    -0.153150014136     1.007825032230
         H           -5.028851280983    -1.637112341140    -0.056619014136     1.007825032230
         H           -5.299611280983    -0.013168341140     0.386200985864     1.007825032230

  Basis Set: AUG-CC-PVTZ
    Blend: AUG-CC-PVTZ
  Basis Set: (AUG-CC-PVTZ AUX)
    Blend: AUG-CC-PVTZ-JKFIT
	 Reference Energy          =    -811.4794994274817554 [Eh]
	 Singles Energy            =      -0.0000000000000000 [Eh]
	 Same-Spin Energy          =      -0.8294628156026596 [Eh]
	 Opposite-Spin Energy      =      -2.5249931790528715 [Eh]
	 Correlation Energy        =      -3.3544559946555310 [Eh]
	 Total Energy              =    -814.8339554221372509 [Eh]

	 ================> DF-SCS-MP2 Energies <==================
	-----------------------------------------------------------
	 SCS Same-Spin Scale       =       0.3333333333333333 [-]
	 SCS Opposite-Spin Scale   =       1.2000000000000000 [-]
	 SCS Same-Spin Energy      =      -0.2764876052008865 [Eh]
	 SCS Opposite-Spin Energy  =      -3.0299918148634455 [Eh]
	 SCS Correlation Energy    =      -3.3064794200643322 [Eh]
	 SCS Total Energy          =    -814.7859788475460618 [Eh]
	-----------------------------------------------------------

  Dipole Moment: [D]
     X:     1.0375      Y:    -4.6708      Z:     2.4954     Total:     5.3963

*** Psi4 exiting successfully. Buy a developer a beer!
