                               Psi4 1.3.2 release

  ==> Input File <==

--------------------------------------------------------------------------
#psi4
#
memory 32 gb

molecule  {
0 1
  O        1.3620710    -0.3800110    -0.9318440
  O        3.2020570     1.9012130    -0.2995130
  O        2.7994070    -2.7489470    -0.4002010
  O       -1.3621860     2.3740050     0.1547830
  N       -0.7982440     0.1994180    -0.2292560
  N       -3.0541720     0.8052390     0.2400120
  N       -4.6734100    -0.8124350     0.4126370
  C        2.7015950     0.8755540     0.5594740
  C        1.2368440     1.1072260     0.8878520
  C        2.6518190    -0.3922910    -0.2854700
  C        0.5739580     0.6830040    -0.4149160
  C        2.8080468    -1.6926581     0.5596317
  C       -1.1273370    -1.1158190    -0.3082760
  C       -1.7446880     1.2038920     0.0820450
  C       -2.4173070    -1.5045610    -0.1045420
  C       -3.3619920    -0.4731600     0.1685110
  H        3.3343810     0.7567850     1.4508530
  H        0.9047070     0.4438290     1.6934890
  H        0.9853290     2.1340670     1.1581470
  H        0.5274540     1.5132540    -1.1249130
  H        3.4174920    -0.3642830    -1.0666260
  H        1.9707490    -1.7331840     1.2432230
  H        3.7460890    -1.6095150     1.0882890
  H        3.1038510     2.7463240     0.1779830
  H       -0.3107400    -1.7892010    -0.5436980
  H        2.9112190    -3.5462209     0.1474666
  H       -2.7034680    -2.5490840    -0.1532500
  H       -5.0287110    -1.6377420    -0.0567190
  H       -5.2994710    -0.0137980     0.3861010
units angstrom
no_reorient  #important for SAPT in psi4, default
symmetry c1  #important for SAPT in psi4, default
}

set PROPERTIES_ORIGIN ["COM"]
properties('MP2/aug-cc-pvtz', properties = ['dipole'])
--------------------------------------------------------------------------

    Molecular point group: c1
  Charge       = 0
  Multiplicity = 1
  Basis Set: AUG-CC-PVTZ
    Blend: AUG-CC-PVTZ
  Basis Set: (AUG-CC-PVTZ AUX)
    Blend: AUG-CC-PVTZ-JKFIT

    Orbital Energies [Eh]
    ---------------------

    Doubly Occupied:

       1A    -20.580065     2A    -20.573629     3A    -20.572887
       4A    -20.502989     5A    -15.621671     6A    -15.588356
       7A    -15.540792     8A    -11.369844     9A    -11.345032
      10A    -11.330515    11A    -11.318312    12A    -11.299583
      13A    -11.295274    14A    -11.294165    15A    -11.237053
      16A    -11.236528    17A     -1.415817    18A     -1.382441
      19A     -1.375237    20A     -1.365927    21A     -1.292179
      22A     -1.261311    23A     -1.169050    24A     -1.078413
      25A     -1.065633    26A     -1.023666    27A     -0.926743
      28A     -0.897963    29A     -0.869015    30A     -0.830311
      31A     -0.806307    32A     -0.754210    33A     -0.738758
      34A     -0.718804    35A     -0.705760    36A     -0.692406
      37A     -0.688929    38A     -0.676577    39A     -0.657778
      40A     -0.638871    41A     -0.627439    42A     -0.618800
      43A     -0.602694    44A     -0.595001    45A     -0.588227
      46A     -0.572845    47A     -0.569391    48A     -0.548035
      49A     -0.532378    50A     -0.522037    51A     -0.508989
      52A     -0.484563    53A     -0.481996    54A     -0.474010
      55A     -0.459784    56A     -0.443922    57A     -0.434918
      58A     -0.416091    59A     -0.383675    60A     -0.334903

  @DF-RHF Final Energy:  -811.47614291206230

   => Energetics <=

    Nuclear Repulsion Energy =           1169.0817608539009598
    One-Electron Energy =               -3433.2388111838745317
    Two-Electron Energy =                1452.6809074179111576
    Total Energy =                       -811.4761429120624143
  Basis Set: (AUG-CC-PVTZ AUX)
    Blend: AUG-CC-PVTZ-RI
    Molecular point group: c1

    Geometry (in Angstrom), charge = 0, multiplicity = 1:

       Center              X                  Y                   Z               Mass
    ------------   -----------------  -----------------  -----------------  -----------------
         O            1.361751358782    -0.378369812888    -0.933933070655    15.994914619570
         O            3.201737358782     1.902854187112    -0.301602070655    15.994914619570
         O            2.799087358782    -2.747305812888    -0.402290070655    15.994914619570
         O           -1.362505641218     2.375646187112     0.152693929345    15.994914619570
         N           -0.798563641218     0.201059187112    -0.231345070655    14.003074004430
         N           -3.054491641218     0.806880187112     0.237922929345    14.003074004430
         N           -4.673729641218    -0.810793812888     0.410547929345    14.003074004430
         C            2.701275358782     0.877195187112     0.557384929345    12.000000000000
         C            1.236524358782     1.108867187112     0.885762929345    12.000000000000
         C            2.651499358782    -0.390649812888    -0.287559070655    12.000000000000
         C            0.573638358782     0.684645187112    -0.417005070655    12.000000000000
         C            2.807727158782    -1.691016912888     0.557542629345    12.000000000000
         C           -1.127656641218    -1.114177812888    -0.310365070655    12.000000000000
         C           -1.745007641218     1.205533187112     0.079955929345    12.000000000000
         C           -2.417626641218    -1.502919812888    -0.106631070655    12.000000000000
         C           -3.362311641218    -0.471518812888     0.166421929345    12.000000000000
         H            3.334061358782     0.758426187112     1.448763929345     1.007825032230
         H            0.904387358782     0.445470187112     1.691399929345     1.007825032230
         H            0.985009358782     2.135708187112     1.156057929345     1.007825032230
         H            0.527134358782     1.514895187112    -1.127002070655     1.007825032230
         H            3.417172358782    -0.362641812888    -1.068715070655     1.007825032230
         H            1.970429358782    -1.731542812888     1.241133929345     1.007825032230
         H            3.745769358782    -1.607873812888     1.086199929345     1.007825032230
         H            3.103531358782     2.747965187112     0.175893929345     1.007825032230
         H           -0.311059641218    -1.787559812888    -0.545787070655     1.007825032230
         H            2.910899358782    -3.544579712888     0.145377529345     1.007825032230
         H           -2.703787641218    -2.547442812888    -0.155339070655     1.007825032230
         H           -5.029030641218    -1.636100812888    -0.058808070655     1.007825032230
         H           -5.299790641218    -0.012156812888     0.384011929345     1.007825032230

  Basis Set: AUG-CC-PVTZ
    Blend: AUG-CC-PVTZ
  Basis Set: (AUG-CC-PVTZ AUX)
    Blend: AUG-CC-PVTZ-JKFIT
	 Reference Energy          =    -811.4761429120623006 [Eh]
	 Singles Energy            =      -0.0000000000000000 [Eh]
	 Same-Spin Energy          =      -0.8296843212337519 [Eh]
	 Opposite-Spin Energy      =      -2.5255960741990728 [Eh]
	 Correlation Energy        =      -3.3552803954328247 [Eh]
	 Total Energy              =    -814.8314233074951289 [Eh]

	 ================> DF-SCS-MP2 Energies <==================
	-----------------------------------------------------------
	 SCS Same-Spin Scale       =       0.3333333333333333 [-]
	 SCS Opposite-Spin Scale   =       1.2000000000000000 [-]
	 SCS Same-Spin Energy      =      -0.2765614404112506 [Eh]
	 SCS Opposite-Spin Energy  =      -3.0307152890388873 [Eh]
	 SCS Correlation Energy    =      -3.3072767294501380 [Eh]
	 SCS Total Energy          =    -814.7834196415124097 [Eh]
	-----------------------------------------------------------

  Dipole Moment: [D]
     X:     1.0763      Y:    -4.6885      Z:     2.5248     Total:     5.4328

*** Psi4 exiting successfully. Buy a developer a beer!
