                               Psi4 1.3.2 release

  ==> Input File <==

--------------------------------------------------------------------------
#psi4
#
memory 32 gb

molecule  {
0 1
  O        1.3620710    -0.3800110    -0.9318440
  O        3.2020570     1.9012130    -0.2995130
  O        2.7994070    -2.7489470    -0.4002010
  O       -1.3621860     2.3740050     0.1547830
  N       -0.7982440     0.1994180    -0.2292560
  N       -3.0541720     0.8052390     0.2400120
  N       -4.6734100    -0.8124350     0.4126370
  C        2.7015950     0.8755540     0.5594740
  C        1.2368440     1.1072260     0.8878520
  C        2.6518190    -0.3922910    -0.2854700
  C        0.5739580     0.6830040    -0.4149160
  C        2.8020980    -1.6600160     0.5224700
  C       -1.1273370    -1.1158190    -0.3082760
  C       -1.7446880     1.2038920     0.0820450
  C       -2.4173070    -1.5045610    -0.1045420
  C       -3.3619920    -0.4731600     0.1685110
  H        3.3343810     0.7567850     1.4508530
  H        0.9047070     0.4438290     1.6934890
  H        0.9853290     2.1340670     1.1581470
  H        0.5274540     1.5132540    -1.1249130
  H        3.4174920    -0.3642830    -1.0666260
  H        1.9707490    -1.7331840     1.2432230
  H        3.7460890    -1.6095150     1.0882890
  H        3.1038510     2.7463240     0.1779830
  H       -0.3107400    -1.7892010    -0.5436980
  H        2.9100300    -3.5650720     0.1192120
  H       -2.7034680    -2.5490840    -0.1532500
  H       -5.0138748    -1.6463767    -0.0524335
  H       -5.2876163    -0.0043953     0.3953178
units angstrom
no_reorient  #important for SAPT in psi4, default
symmetry c1  #important for SAPT in psi4, default
}

set PROPERTIES_ORIGIN ["COM"]
properties('MP2/aug-cc-pvtz', properties = ['dipole'])
--------------------------------------------------------------------------

    Molecular point group: c1
  Charge       = 0
  Multiplicity = 1
  Basis Set: AUG-CC-PVTZ
    Blend: AUG-CC-PVTZ
  Basis Set: (AUG-CC-PVTZ AUX)
    Blend: AUG-CC-PVTZ-JKFIT

    Orbital Energies [Eh]
    ---------------------

    Doubly Occupied:

       1A    -20.577758     2A    -20.574337     3A    -20.572871
       4A    -20.503008     5A    -15.621656     6A    -15.588447
       7A    -15.540659     8A    -11.369861     9A    -11.344615
      10A    -11.330718    11A    -11.318283    12A    -11.300851
      13A    -11.296868    14A    -11.293072    15A    -11.236980
      16A    -11.236775    17A     -1.416646    18A     -1.382398
      19A     -1.373575    20A     -1.365703    21A     -1.292312
      22A     -1.261536    23A     -1.168999    24A     -1.078971
      25A     -1.068916    26A     -1.027891    27A     -0.926600
      28A     -0.897452    29A     -0.868641    30A     -0.830553
      31A     -0.806357    32A     -0.755199    33A     -0.738690
      34A     -0.720963    35A     -0.705719    36A     -0.692793
      37A     -0.689033    38A     -0.677000    39A     -0.657175
      40A     -0.637228    41A     -0.627556    42A     -0.618404
      43A     -0.604669    44A     -0.595036    45A     -0.588793
      46A     -0.572691    47A     -0.568752    48A     -0.544852
      49A     -0.532516    50A     -0.523726    51A     -0.510378
      52A     -0.485866    53A     -0.482073    54A     -0.468503
      55A     -0.461092    56A     -0.444442    57A     -0.437832
      58A     -0.416290    59A     -0.383448    60A     -0.334961

  @DF-RHF Final Energy:  -811.47931288754080

   => Energetics <=

    Nuclear Repulsion Energy =           1169.9969968228308517
    One-Electron Energy =               -3435.0546374547011510
    Two-Electron Energy =                1453.5783277443297266
    Total Energy =                       -811.4793128875408001
  Basis Set: (AUG-CC-PVTZ AUX)
    Blend: AUG-CC-PVTZ-RI
    Molecular point group: c1

    Geometry (in Angstrom), charge = 0, multiplicity = 1:

       Center              X                  Y                   Z               Mass
    ------------   -----------------  -----------------  -----------------  -----------------
         O            1.361952530234    -0.380014445425    -0.931903888799    15.994914619570
         O            3.201938530234     1.901209554575    -0.299572888799    15.994914619570
         O            2.799288530234    -2.748950445425    -0.400260888799    15.994914619570
         O           -1.362304469766     2.374001554575     0.154723111201    15.994914619570
         N           -0.798362469766     0.199414554575    -0.229315888799    14.003074004430
         N           -3.054290469766     0.805235554575     0.239952111201    14.003074004430
         N           -4.673528469766    -0.812438445425     0.412577111201    14.003074004430
         C            2.701476530234     0.875550554575     0.559414111201    12.000000000000
         C            1.236725530234     1.107222554575     0.887792111201    12.000000000000
         C            2.651700530234    -0.392294445425    -0.285529888799    12.000000000000
         C            0.573839530234     0.683000554575    -0.414975888799    12.000000000000
         C            2.801979530234    -1.660019445425     0.522410111201    12.000000000000
         C           -1.127455469766    -1.115822445425    -0.308335888799    12.000000000000
         C           -1.744806469766     1.203888554575     0.081985111201    12.000000000000
         C           -2.417425469766    -1.504564445425    -0.104601888799    12.000000000000
         C           -3.362110469766    -0.473163445425     0.168451111201    12.000000000000
         H            3.334262530234     0.756781554575     1.450793111201     1.007825032230
         H            0.904588530234     0.443825554575     1.693429111201     1.007825032230
         H            0.985210530234     2.134063554575     1.158087111201     1.007825032230
         H            0.527335530234     1.513250554575    -1.124972888799     1.007825032230
         H            3.417373530234    -0.364286445425    -1.066685888799     1.007825032230
         H            1.970630530234    -1.733187445425     1.243163111201     1.007825032230
         H            3.745970530234    -1.609518445425     1.088229111201     1.007825032230
         H            3.103732530234     2.746320554575     0.177923111201     1.007825032230
         H           -0.310858469766    -1.789204445425    -0.543757888799     1.007825032230
         H            2.909911530234    -3.565075445425     0.119152111201     1.007825032230
         H           -2.703586469766    -2.549087445425    -0.153309888799     1.007825032230
         H           -5.013993269766    -1.646380145425    -0.052493388799     1.007825032230
         H           -5.287734769766    -0.004398745425     0.395257911201     1.007825032230

  Basis Set: AUG-CC-PVTZ
    Blend: AUG-CC-PVTZ
  Basis Set: (AUG-CC-PVTZ AUX)
    Blend: AUG-CC-PVTZ-JKFIT
	 Reference Energy          =    -811.4793128875408001 [Eh]
	 Singles Energy            =      -0.0000000000000000 [Eh]
	 Same-Spin Energy          =      -0.8296806350363016 [Eh]
	 Opposite-Spin Energy      =      -2.5251572246289644 [Eh]
	 Correlation Energy        =      -3.3548378596652659 [Eh]
	 Total Energy              =    -814.8341507472060812 [Eh]

	 ================> DF-SCS-MP2 Energies <==================
	-----------------------------------------------------------
	 SCS Same-Spin Scale       =       0.3333333333333333 [-]
	 SCS Opposite-Spin Scale   =       1.2000000000000000 [-]
	 SCS Same-Spin Energy      =      -0.2765602116787672 [Eh]
	 SCS Opposite-Spin Energy  =      -3.0301886695547573 [Eh]
	 SCS Correlation Energy    =      -3.3067488812335246 [Eh]
	 SCS Total Energy          =    -814.7860617687742888 [Eh]
	-----------------------------------------------------------

  Dipole Moment: [D]
     X:     1.0830      Y:    -4.6845      Z:     2.5091     Total:     5.4234

*** Psi4 exiting successfully. Buy a developer a beer!
