                               Psi4 1.3.2 release

  ==> Input File <==

--------------------------------------------------------------------------
#psi4
#
memory 32 gb

molecule  {
0 1
  O        1.3533864    -0.4055325    -0.8902235
  O        3.2020570     1.9012130    -0.2995130
  O        2.7994070    -2.7489470    -0.4002010
  O       -1.3621860     2.3740050     0.1547830
  N       -0.7982440     0.1994180    -0.2292560
  N       -3.0541720     0.8052390     0.2400120
  N       -4.6734100    -0.8124350     0.4126370
  C        2.7015950     0.8755540     0.5594740
  C        1.2368440     1.1072260     0.8878520
  C        2.6518190    -0.3922910    -0.2854700
  C        0.5739580     0.6830040    -0.4149160
  C        2.8020980    -1.6600160     0.5224700
  C       -1.1273370    -1.1158190    -0.3082760
  C       -1.7446880     1.2038920     0.0820450
  C       -2.4173070    -1.5045610    -0.1045420
  C       -3.3619920    -0.4731600     0.1685110
  H        3.3343810     0.7567850     1.4508530
  H        0.9047070     0.4438290     1.6934890
  H        0.9853290     2.1340670     1.1581470
  H        0.5054514     1.5322765    -1.1002017
  H        3.4174920    -0.3642830    -1.0666260
  H        1.9707490    -1.7331840     1.2432230
  H        3.7460890    -1.6095150     1.0882890
  H        3.1038510     2.7463240     0.1779830
  H       -0.3107400    -1.7892010    -0.5436980
  H        2.9100300    -3.5650720     0.1192120
  H       -2.7034680    -2.5490840    -0.1532500
  H       -5.0287110    -1.6377420    -0.0567190
  H       -5.2994710    -0.0137980     0.3861010
units angstrom
no_reorient  #important for SAPT in psi4, default
symmetry c1  #important for SAPT in psi4, default
}

set PROPERTIES_ORIGIN ["COM"]
properties('MP2/aug-cc-pvtz', properties = ['dipole'])
--------------------------------------------------------------------------

    Molecular point group: c1
  Charge       = 0
  Multiplicity = 1
  Basis Set: AUG-CC-PVTZ
    Blend: AUG-CC-PVTZ
  Basis Set: (AUG-CC-PVTZ AUX)
    Blend: AUG-CC-PVTZ-JKFIT

    Orbital Energies [Eh]
    ---------------------

    Doubly Occupied:

       1A    -20.577221     2A    -20.574439     3A    -20.574020
       4A    -20.503364     5A    -15.621514     6A    -15.588216
       7A    -15.540693     8A    -11.369945     9A    -11.344858
      10A    -11.331793    11A    -11.317685    12A    -11.300506
      13A    -11.295619    14A    -11.292577    15A    -11.236665
      16A    -11.235895    17A     -1.420062    18A     -1.382754
      19A     -1.373371    20A     -1.366286    21A     -1.292251
      22A     -1.261500    23A     -1.169120    24A     -1.078775
      25A     -1.068504    26A     -1.028440    27A     -0.926504
      28A     -0.897523    29A     -0.869113    30A     -0.831070
      31A     -0.806983    32A     -0.753879    33A     -0.738890
      34A     -0.721227    35A     -0.706591    36A     -0.692832
      37A     -0.688601    38A     -0.677594    39A     -0.657760
      40A     -0.637099    41A     -0.627677    42A     -0.618105
      43A     -0.604759    44A     -0.595418    45A     -0.588299
      46A     -0.573456    47A     -0.570684    48A     -0.544095
      49A     -0.532518    50A     -0.524549    51A     -0.509601
      52A     -0.485388    53A     -0.481790    54A     -0.468007
      55A     -0.461221    56A     -0.444519    57A     -0.437792
      58A     -0.416492    59A     -0.383595    60A     -0.334809

  @DF-RHF Final Energy:  -811.47858253855532

   => Energetics <=

    Nuclear Repulsion Energy =           1170.7231162572848007
    One-Electron Energy =               -3436.4943700888034073
    Two-Electron Energy =                1454.2926712929631776
    Total Energy =                       -811.4785825385554290
  Basis Set: (AUG-CC-PVTZ AUX)
    Blend: AUG-CC-PVTZ-RI
    Molecular point group: c1

    Geometry (in Angstrom), charge = 0, multiplicity = 1:

       Center              X                  Y                   Z               Mass
    ------------   -----------------  -----------------  -----------------  -----------------
         O            1.354095723013    -0.403819375645    -0.893264635213    15.994914619570
         O            3.202766323013     1.902926124355    -0.302554135213    15.994914619570
         O            2.800116323013    -2.747233875645    -0.403242135213    15.994914619570
         O           -1.361476676987     2.375718124355     0.151741864787    15.994914619570
         N           -0.797534676987     0.201131124355    -0.232297135213    14.003074004430
         N           -3.053462676987     0.806952124355     0.236970864787    14.003074004430
         N           -4.672700676987    -0.810721875645     0.409595864787    14.003074004430
         C            2.702304323013     0.877267124355     0.556432864787    12.000000000000
         C            1.237553323013     1.108939124355     0.884810864787    12.000000000000
         C            2.652528323013    -0.390577875645    -0.288511135213    12.000000000000
         C            0.574667323013     0.684717124355    -0.417957135213    12.000000000000
         C            2.802807323013    -1.658302875645     0.519428864787    12.000000000000
         C           -1.126627676987    -1.114105875645    -0.311317135213    12.000000000000
         C           -1.743978676987     1.205605124355     0.079003864787    12.000000000000
         C           -2.416597676987    -1.502847875645    -0.107583135213    12.000000000000
         C           -3.361282676987    -0.471446875645     0.165469864787    12.000000000000
         H            3.335090323013     0.758498124355     1.447811864787     1.007825032230
         H            0.905416323013     0.445542124355     1.690447864787     1.007825032230
         H            0.986038323013     2.135780124355     1.155105864787     1.007825032230
         H            0.506160723013     1.533989624355    -1.103242835213     1.007825032230
         H            3.418201323013    -0.362569875645    -1.069667135213     1.007825032230
         H            1.971458323013    -1.731470875645     1.240181864787     1.007825032230
         H            3.746798323013    -1.607801875645     1.085247864787     1.007825032230
         H            3.104560323013     2.748037124355     0.174941864787     1.007825032230
         H           -0.310030676987    -1.787487875645    -0.546739135213     1.007825032230
         H            2.910739323013    -3.563358875645     0.116170864787     1.007825032230
         H           -2.702758676987    -2.547370875645    -0.156291135213     1.007825032230
         H           -5.028001676987    -1.636028875645    -0.059760135213     1.007825032230
         H           -5.298761676987    -0.012084875645     0.383059864787     1.007825032230

  Basis Set: AUG-CC-PVTZ
    Blend: AUG-CC-PVTZ
  Basis Set: (AUG-CC-PVTZ AUX)
    Blend: AUG-CC-PVTZ-JKFIT
	 Reference Energy          =    -811.4785825385553153 [Eh]
	 Singles Energy            =      -0.0000000000000000 [Eh]
	 Same-Spin Energy          =      -0.8298013354140148 [Eh]
	 Opposite-Spin Energy      =      -2.5250611071892592 [Eh]
	 Correlation Energy        =      -3.3548624426032738 [Eh]
	 Total Energy              =    -814.8334449811585500 [Eh]

	 ================> DF-SCS-MP2 Energies <==================
	-----------------------------------------------------------
	 SCS Same-Spin Scale       =       0.3333333333333333 [-]
	 SCS Opposite-Spin Scale   =       1.2000000000000000 [-]
	 SCS Same-Spin Energy      =      -0.2766004451380049 [Eh]
	 SCS Opposite-Spin Energy  =      -3.0300733286271111 [Eh]
	 SCS Correlation Energy    =      -3.3066737737651160 [Eh]
	 SCS Total Energy          =    -814.7852563123204845 [Eh]
	-----------------------------------------------------------

  Dipole Moment: [D]
     X:     1.0680      Y:    -4.6361      Z:     2.4152     Total:     5.3355

*** Psi4 exiting successfully. Buy a developer a beer!
