                               Psi4 1.3.2 release

  ==> Input File <==

--------------------------------------------------------------------------
#psi4
#
memory 32 gb

molecule  {
0 1
  O        1.3620710    -0.3800110    -0.9318440
  O        3.2020570     1.9012130    -0.2995130
  O        2.7981035    -2.7408961    -0.4096147
  O       -1.3621860     2.3740050     0.1547830
  N       -0.7982440     0.1994180    -0.2292560
  N       -3.0541720     0.8052390     0.2400120
  N       -4.6734100    -0.8124350     0.4126370
  C        2.7015950     0.8755540     0.5594740
  C        1.2368440     1.1072260     0.8878520
  C        2.6513949    -0.3994574    -0.2965282
  C        0.5739580     0.6830040    -0.4149160
  C        2.8020980    -1.6600160     0.5224700
  C       -1.1273370    -1.1158190    -0.3082760
  C       -1.7446880     1.2038920     0.0820450
  C       -2.4173070    -1.5045610    -0.1045420
  C       -3.3619920    -0.4731600     0.1685110
  H        3.3343810     0.7567850     1.4508530
  H        0.9047070     0.4438290     1.6934890
  H        0.9853290     2.1340670     1.1581470
  H        0.5274540     1.5132540    -1.1249130
  H        3.4174920    -0.3642830    -1.0666260
  H        1.9707490    -1.7331840     1.2432230
  H        3.7460890    -1.6095150     1.0882890
  H        3.1038510     2.7463240     0.1779830
  H       -0.3107400    -1.7892010    -0.5436980
  H        2.9100300    -3.5650720     0.1192120
  H       -2.7034680    -2.5490840    -0.1532500
  H       -5.0287110    -1.6377420    -0.0567190
  H       -5.2994710    -0.0137980     0.3861010
units angstrom
no_reorient  #important for SAPT in psi4, default
symmetry c1  #important for SAPT in psi4, default
}

set PROPERTIES_ORIGIN ["COM"]
properties('MP2/aug-cc-pvtz', properties = ['dipole'])
--------------------------------------------------------------------------

    Molecular point group: c1
  Charge       = 0
  Multiplicity = 1
  Basis Set: AUG-CC-PVTZ
    Blend: AUG-CC-PVTZ
  Basis Set: (AUG-CC-PVTZ AUX)
    Blend: AUG-CC-PVTZ-JKFIT

    Orbital Energies [Eh]
    ---------------------

    Doubly Occupied:

       1A    -20.578926     2A    -20.573851     3A    -20.572963
       4A    -20.503065     5A    -15.621811     6A    -15.588381
       7A    -15.540833     8A    -11.369942     9A    -11.345066
      10A    -11.330977    11A    -11.318336    12A    -11.300609
      13A    -11.296347    14A    -11.292424    15A    -11.237061
      16A    -11.236451    17A     -1.417247    18A     -1.382286
      19A     -1.372168    20A     -1.365018    21A     -1.292283
      22A     -1.261547    23A     -1.169164    24A     -1.078329
      25A     -1.067474    26A     -1.027693    27A     -0.925868
      28A     -0.897379    29A     -0.868233    30A     -0.830689
      31A     -0.807209    32A     -0.754309    33A     -0.738719
      34A     -0.719584    35A     -0.706224    36A     -0.691824
      37A     -0.688762    38A     -0.676071    39A     -0.656732
      40A     -0.636809    41A     -0.627529    42A     -0.618338
      43A     -0.604530    44A     -0.595114    45A     -0.588763
      46A     -0.572868    47A     -0.569325    48A     -0.545429
      49A     -0.532224    50A     -0.523558    51A     -0.510608
      52A     -0.483395    53A     -0.481499    54A     -0.468513
      55A     -0.460825    56A     -0.444545    57A     -0.437730
      58A     -0.416374    59A     -0.383758    60A     -0.334958

  @DF-RHF Final Energy:  -811.47829560849414

   => Energetics <=

    Nuclear Repulsion Energy =           1169.9575499607551592
    One-Electron Energy =               -3434.9945986881984936
    Two-Electron Energy =                1453.5587531189489710
    Total Energy =                       -811.4782956084941361
  Basis Set: (AUG-CC-PVTZ AUX)
    Blend: AUG-CC-PVTZ-RI
    Molecular point group: c1

    Geometry (in Angstrom), charge = 0, multiplicity = 1:

       Center              X                  Y                   Z               Mass
    ------------   -----------------  -----------------  -----------------  -----------------
         O            1.362185205329    -0.380199405293    -0.930596579399    15.994914619570
         O            3.202171205329     1.901024594707    -0.298265579399    15.994914619570
         O            2.798217705329    -2.741084505293    -0.408367279399    15.994914619570
         O           -1.362071794671     2.373816594707     0.156030420601    15.994914619570
         N           -0.798129794671     0.199229594707    -0.228008579399    14.003074004430
         N           -3.054057794671     0.805050594707     0.241259420601    14.003074004430
         N           -4.673295794671    -0.812623405293     0.413884420601    14.003074004430
         C            2.701709205329     0.875365594707     0.560721420601    12.000000000000
         C            1.236958205329     1.107037594707     0.889099420601    12.000000000000
         C            2.651509105329    -0.399645805293    -0.295280779399    12.000000000000
         C            0.574072205329     0.682815594707    -0.413668579399    12.000000000000
         C            2.802212205329    -1.660204405293     0.523717420601    12.000000000000
         C           -1.127222794671    -1.116007405293    -0.307028579399    12.000000000000
         C           -1.744573794671     1.203703594707     0.083292420601    12.000000000000
         C           -2.417192794671    -1.504749405293    -0.103294579399    12.000000000000
         C           -3.361877794671    -0.473348405293     0.169758420601    12.000000000000
         H            3.334495205329     0.756596594707     1.452100420601     1.007825032230
         H            0.904821205329     0.443640594707     1.694736420601     1.007825032230
         H            0.985443205329     2.133878594707     1.159394420601     1.007825032230
         H            0.527568205329     1.513065594707    -1.123665579399     1.007825032230
         H            3.417606205329    -0.364471405293    -1.065378579399     1.007825032230
         H            1.970863205329    -1.733372405293     1.244470420601     1.007825032230
         H            3.746203205329    -1.609703405293     1.089536420601     1.007825032230
         H            3.103965205329     2.746135594707     0.179230420601     1.007825032230
         H           -0.310625794671    -1.789389405293    -0.542450579399     1.007825032230
         H            2.910144205329    -3.565260405293     0.120459420601     1.007825032230
         H           -2.703353794671    -2.549272405293    -0.152002579399     1.007825032230
         H           -5.028596794671    -1.637930405293    -0.055471579399     1.007825032230
         H           -5.299356794671    -0.013986405293     0.387348420601     1.007825032230

  Basis Set: AUG-CC-PVTZ
    Blend: AUG-CC-PVTZ
  Basis Set: (AUG-CC-PVTZ AUX)
    Blend: AUG-CC-PVTZ-JKFIT
	 Reference Energy          =    -811.4782956084941361 [Eh]
	 Singles Energy            =      -0.0000000000000000 [Eh]
	 Same-Spin Energy          =      -0.8297465788947118 [Eh]
	 Opposite-Spin Energy      =      -2.5254633282965191 [Eh]
	 Correlation Energy        =      -3.3552099071912309 [Eh]
	 Total Energy              =    -814.8335055156853741 [Eh]

	 ================> DF-SCS-MP2 Energies <==================
	-----------------------------------------------------------
	 SCS Same-Spin Scale       =       0.3333333333333333 [-]
	 SCS Opposite-Spin Scale   =       1.2000000000000000 [-]
	 SCS Same-Spin Energy      =      -0.2765821929649039 [Eh]
	 SCS Opposite-Spin Energy  =      -3.0305559939558226 [Eh]
	 SCS Correlation Energy    =      -3.3071381869207266 [Eh]
	 SCS Total Energy          =    -814.7854337954148605 [Eh]
	-----------------------------------------------------------

  Dipole Moment: [D]
     X:     1.0672      Y:    -4.7004      Z:     2.4852     Total:     5.4230

*** Psi4 exiting successfully. Buy a developer a beer!
