                               Psi4 1.3.2 release

  ==> Input File <==

--------------------------------------------------------------------------
#psi4
#
memory 32 gb

molecule  {
0 1
  O        1.3474379    -0.3146193    -0.8969904
  O        3.2020570     1.9012130    -0.2995130
  O        2.7994070    -2.7489470    -0.4002010
  O       -1.3621860     2.3740050     0.1547830
  N       -0.7982440     0.1994180    -0.2292560
  N       -3.0541720     0.8052390     0.2400120
  N       -4.6734100    -0.8124350     0.4126370
  C        2.6281748     0.8931613     0.5336101
  C        1.2368440     1.1072260     0.8878520
  C        2.6518190    -0.3922910    -0.2854700
  C        0.5739580     0.6830040    -0.4149160
  C        2.8020980    -1.6600160     0.5224700
  C       -1.1273370    -1.1158190    -0.3082760
  C       -1.7446880     1.2038920     0.0820450
  C       -2.4173070    -1.5045610    -0.1045420
  C       -3.3619920    -0.4731600     0.1685110
  H        3.3343810     0.7567850     1.4508530
  H        0.9047070     0.4438290     1.6934890
  H        0.9853290     2.1340670     1.1581470
  H        0.5274540     1.5132540    -1.1249130
  H        3.4174920    -0.3642830    -1.0666260
  H        1.9707490    -1.7331840     1.2432230
  H        3.7460890    -1.6095150     1.0882890
  H        3.1038510     2.7463240     0.1779830
  H       -0.3107400    -1.7892010    -0.5436980
  H        2.9100300    -3.5650720     0.1192120
  H       -2.7034680    -2.5490840    -0.1532500
  H       -5.0287110    -1.6377420    -0.0567190
  H       -5.2994710    -0.0137980     0.3861010
units angstrom
no_reorient  #important for SAPT in psi4, default
symmetry c1  #important for SAPT in psi4, default
}

set PROPERTIES_ORIGIN ["COM"]
properties('MP2/aug-cc-pvtz', properties = ['dipole'])
--------------------------------------------------------------------------

    Molecular point group: c1
  Charge       = 0
  Multiplicity = 1
  Basis Set: AUG-CC-PVTZ
    Blend: AUG-CC-PVTZ
  Basis Set: (AUG-CC-PVTZ AUX)
    Blend: AUG-CC-PVTZ-JKFIT

    Orbital Energies [Eh]
    ---------------------

    Doubly Occupied:

       1A    -20.580596     2A    -20.574366     3A    -20.569484
       4A    -20.501853     5A    -15.619650     6A    -15.587906
       7A    -15.540139     8A    -11.368737     9A    -11.344459
      10A    -11.325156    11A    -11.318305    12A    -11.301473
      13A    -11.300037    14A    -11.297391    15A    -11.236782
      16A    -11.231428    17A     -1.437970    18A     -1.382081
      19A     -1.375796    20A     -1.369903    21A     -1.291532
      22A     -1.260602    23A     -1.168382    24A     -1.085130
      25A     -1.072503    26A     -1.034246    27A     -0.929561
      28A     -0.898297    29A     -0.867199    30A     -0.832340
      31A     -0.804551    32A     -0.754912    33A     -0.739925
      34A     -0.727022    35A     -0.706247    36A     -0.697868
      37A     -0.689955    38A     -0.680294    39A     -0.659766
      40A     -0.640365    41A     -0.625977    42A     -0.619776
      43A     -0.605443    44A     -0.597233    45A     -0.591426
      46A     -0.576632    47A     -0.572841    48A     -0.545377
      49A     -0.529829    50A     -0.524979    51A     -0.511244
      52A     -0.487092    53A     -0.480733    54A     -0.469609
      55A     -0.458225    56A     -0.443320    57A     -0.435148
      58A     -0.414853    59A     -0.382391    60A     -0.333872

  @DF-RHF Final Energy:  -811.46978523452810

   => Energetics <=

    Nuclear Repulsion Energy =           1173.3289603765865650
    One-Electron Energy =               -3441.5770748898730744
    Two-Electron Energy =                1456.7783292787582923
    Total Energy =                       -811.4697852345282172
  Basis Set: (AUG-CC-PVTZ AUX)
    Blend: AUG-CC-PVTZ-RI
    Molecular point group: c1

    Geometry (in Angstrom), charge = 0, multiplicity = 1:

       Center              X                  Y                   Z               Mass
    ------------   -----------------  -----------------  -----------------  -----------------
         O            1.352348248303    -0.320155551344    -0.898078537410    15.994914619570
         O            3.206967348303     1.895676748656    -0.300601137410    15.994914619570
         O            2.804317348303    -2.754483251344    -0.401289137410    15.994914619570
         O           -1.357275651697     2.368468748656     0.153694862590    15.994914619570
         N           -0.793333651697     0.193881748656    -0.230344137410    14.003074004430
         N           -3.049261651697     0.799702748656     0.238923862590    14.003074004430
         N           -4.668499651697    -0.817971251344     0.411548862590    14.003074004430
         C            2.633085148303     0.887625048656     0.532521962590    12.000000000000
         C            1.241754348303     1.101689748656     0.886763862590    12.000000000000
         C            2.656729348303    -0.397827251344    -0.286558137410    12.000000000000
         C            0.578868348303     0.677467748656    -0.416004137410    12.000000000000
         C            2.807008348303    -1.665552251344     0.521381862590    12.000000000000
         C           -1.122426651697    -1.121355251344    -0.309364137410    12.000000000000
         C           -1.739777651697     1.198355748656     0.080956862590    12.000000000000
         C           -2.412396651697    -1.510097251344    -0.105630137410    12.000000000000
         C           -3.357081651697    -0.478696251344     0.167422862590    12.000000000000
         H            3.339291348303     0.751248748656     1.449764862590     1.007825032230
         H            0.909617348303     0.438292748656     1.692400862590     1.007825032230
         H            0.990239348303     2.128530748656     1.157058862590     1.007825032230
         H            0.532364348303     1.507717748656    -1.126001137410     1.007825032230
         H            3.422402348303    -0.369819251344    -1.067714137410     1.007825032230
         H            1.975659348303    -1.738720251344     1.242134862590     1.007825032230
         H            3.750999348303    -1.615051251344     1.087200862590     1.007825032230
         H            3.108761348303     2.740787748656     0.176894862590     1.007825032230
         H           -0.305829651697    -1.794737251344    -0.544786137410     1.007825032230
         H            2.914940348303    -3.570608251344     0.118123862590     1.007825032230
         H           -2.698557651697    -2.554620251344    -0.154338137410     1.007825032230
         H           -5.023800651697    -1.643278251344    -0.057807137410     1.007825032230
         H           -5.294560651697    -0.019334251344     0.385012862590     1.007825032230

  Basis Set: AUG-CC-PVTZ
    Blend: AUG-CC-PVTZ
  Basis Set: (AUG-CC-PVTZ AUX)
    Blend: AUG-CC-PVTZ-JKFIT
	 Reference Energy          =    -811.4697852345281035 [Eh]
	 Singles Energy            =      -0.0000000000000000 [Eh]
	 Same-Spin Energy          =      -0.8300970757274224 [Eh]
	 Opposite-Spin Energy      =      -2.5241091371746638 [Eh]
	 Correlation Energy        =      -3.3542062129020862 [Eh]
	 Total Energy              =    -814.8239914474302168 [Eh]

	 ================> DF-SCS-MP2 Energies <==================
	-----------------------------------------------------------
	 SCS Same-Spin Scale       =       0.3333333333333333 [-]
	 SCS Opposite-Spin Scale   =       1.2000000000000000 [-]
	 SCS Same-Spin Energy      =      -0.2766990252424741 [Eh]
	 SCS Opposite-Spin Energy  =      -3.0289309646095965 [Eh]
	 SCS Correlation Energy    =      -3.3056299898520707 [Eh]
	 SCS Total Energy          =    -814.7754152243801400 [Eh]
	-----------------------------------------------------------

  Dipole Moment: [D]
     X:     1.1394      Y:    -4.8861      Z:     2.3418     Total:     5.5368

*** Psi4 exiting successfully. Buy a developer a beer!
