                               Psi4 1.3.2 release

  ==> Input File <==

--------------------------------------------------------------------------
#psi4
#
memory 32 gb

molecule  {
0 1
  O        1.3578481    -0.3929356    -0.9111093
  O        3.2020570     1.9012130    -0.2995130
  O        2.7994070    -2.7489470    -0.4002010
  O       -1.3621860     2.3740050     0.1547830
  N       -0.7982440     0.1994180    -0.2292560
  N       -3.0541720     0.8052390     0.2400120
  N       -4.6734100    -0.8124350     0.4126370
  C        2.7015950     0.8755540     0.5594740
  C        1.2368440     1.1072260     0.8878520
  C        2.6518190    -0.3922910    -0.2854700
  C        0.5739580     0.6830040    -0.4149160
  C        2.8020980    -1.6600160     0.5224700
  C       -1.1273370    -1.1158190    -0.3082760
  C       -1.7446880     1.2038920     0.0820450
  C       -2.4173070    -1.5045610    -0.1045420
  C       -3.3619920    -0.4731600     0.1685110
  H        3.3343810     0.7567850     1.4508530
  H        0.9047070     0.4438290     1.6934890
  H        0.9853290     2.1340670     1.1581470
  H        0.5164439     1.5228932    -1.1126636
  H        3.4174920    -0.3642830    -1.0666260
  H        1.9707490    -1.7331840     1.2432230
  H        3.7460890    -1.6095150     1.0882890
  H        3.1038510     2.7463240     0.1779830
  H       -0.3107400    -1.7892010    -0.5436980
  H        2.9100300    -3.5650720     0.1192120
  H       -2.7034680    -2.5490840    -0.1532500
  H       -5.0287110    -1.6377420    -0.0567190
  H       -5.2994710    -0.0137980     0.3861010
units angstrom
no_reorient  #important for SAPT in psi4, default
symmetry c1  #important for SAPT in psi4, default
}

set PROPERTIES_ORIGIN ["COM"]
properties('MP2/aug-cc-pvtz', properties = ['dipole'])
--------------------------------------------------------------------------

    Molecular point group: c1
  Charge       = 0
  Multiplicity = 1
  Basis Set: AUG-CC-PVTZ
    Blend: AUG-CC-PVTZ
  Basis Set: (AUG-CC-PVTZ AUX)
    Blend: AUG-CC-PVTZ-JKFIT

    Orbital Energies [Eh]
    ---------------------

    Doubly Occupied:

       1A    -20.577477     2A    -20.574391     3A    -20.573424
       4A    -20.503204     5A    -15.621628     6A    -15.588286
       7A    -15.540745     8A    -11.369921     9A    -11.344946
      10A    -11.331288    11A    -11.317985    12A    -11.300678
      13A    -11.296222    14A    -11.292802    15A    -11.236843
      16A    -11.236347    17A     -1.418368    18A     -1.382591
      19A     -1.373458    20A     -1.366024    21A     -1.292239
      22A     -1.261466    23A     -1.169114    24A     -1.078867
      25A     -1.068719    26A     -1.028202    27A     -0.926646
      28A     -0.897494    29A     -0.869042    30A     -0.830950
      31A     -0.806667    32A     -0.754053    33A     -0.738810
      34A     -0.721092    35A     -0.706693    36A     -0.692835
      37A     -0.688924    38A     -0.676653    39A     -0.657211
      40A     -0.637108    41A     -0.627653    42A     -0.618309
      43A     -0.604679    44A     -0.595242    45A     -0.588504
      46A     -0.573019    47A     -0.569911    48A     -0.544488
      49A     -0.532518    50A     -0.524156    51A     -0.510042
      52A     -0.485609    53A     -0.481934    54A     -0.468245
      55A     -0.461164    56A     -0.444491    57A     -0.437831
      58A     -0.416418    59A     -0.383670    60A     -0.334872

  @DF-RHF Final Energy:  -811.47921627448977

   => Energetics <=

    Nuclear Repulsion Energy =           1170.3329809406982349
    One-Electron Energy =               -3435.7200519851803620
    Two-Electron Energy =                1453.9078547699923547
    Total Energy =                       -811.4792162744897723
  Basis Set: (AUG-CC-PVTZ AUX)
    Blend: AUG-CC-PVTZ-RI
    Molecular point group: c1

    Geometry (in Angstrom), charge = 0, multiplicity = 1:

       Center              X                  Y                   Z               Mass
    ------------   -----------------  -----------------  -----------------  -----------------
         O            1.358194382776    -0.392068083567    -0.912624057664    15.994914619570
         O            3.202403282776     1.902080516433    -0.301027757664    15.994914619570
         O            2.799753282776    -2.748079483567    -0.401715757664    15.994914619570
         O           -1.361839717224     2.374872516433     0.153268242336    15.994914619570
         N           -0.797897717224     0.200285516433    -0.230770757664    14.003074004430
         N           -3.053825717224     0.806106516433     0.238497242336    14.003074004430
         N           -4.673063717224    -0.811567483567     0.411122242336    14.003074004430
         C            2.701941282776     0.876421516433     0.557959242336    12.000000000000
         C            1.237190282776     1.108093516433     0.886337242336    12.000000000000
         C            2.652165282776    -0.391423483567    -0.286984757664    12.000000000000
         C            0.574304282776     0.683871516433    -0.416430757664    12.000000000000
         C            2.802444282776    -1.659148483567     0.520955242336    12.000000000000
         C           -1.126990717224    -1.114951483567    -0.309790757664    12.000000000000
         C           -1.744341717224     1.204759516433     0.080530242336    12.000000000000
         C           -2.416960717224    -1.503693483567    -0.106056757664    12.000000000000
         C           -3.361645717224    -0.472292483567     0.166996242336    12.000000000000
         H            3.334727282776     0.757652516433     1.449338242336     1.007825032230
         H            0.905053282776     0.444696516433     1.691974242336     1.007825032230
         H            0.985675282776     2.134934516433     1.156632242336     1.007825032230
         H            0.516790182776     1.523760716433    -1.114178357664     1.007825032230
         H            3.417838282776    -0.363415483567    -1.068140757664     1.007825032230
         H            1.971095282776    -1.732316483567     1.241708242336     1.007825032230
         H            3.746435282776    -1.608647483567     1.086774242336     1.007825032230
         H            3.104197282776     2.747191516433     0.176468242336     1.007825032230
         H           -0.310393717224    -1.788333483567    -0.545212757664     1.007825032230
         H            2.910376282776    -3.564204483567     0.117697242336     1.007825032230
         H           -2.703121717224    -2.548216483567    -0.154764757664     1.007825032230
         H           -5.028364717224    -1.636874483567    -0.058233757664     1.007825032230
         H           -5.299124717224    -0.012930483567     0.384586242336     1.007825032230

  Basis Set: AUG-CC-PVTZ
    Blend: AUG-CC-PVTZ
  Basis Set: (AUG-CC-PVTZ AUX)
    Blend: AUG-CC-PVTZ-JKFIT
	 Reference Energy          =    -811.4792162744897723 [Eh]
	 Singles Energy            =      -0.0000000000000000 [Eh]
	 Same-Spin Energy          =      -0.8297145628885563 [Eh]
	 Opposite-Spin Energy      =      -2.5250738324318678 [Eh]
	 Correlation Energy        =      -3.3547883953204241 [Eh]
	 Total Energy              =    -814.8340046698101560 [Eh]

	 ================> DF-SCS-MP2 Energies <==================
	-----------------------------------------------------------
	 SCS Same-Spin Scale       =       0.3333333333333333 [-]
	 SCS Opposite-Spin Scale   =       1.2000000000000000 [-]
	 SCS Same-Spin Energy      =      -0.2765715209628521 [Eh]
	 SCS Opposite-Spin Energy  =      -3.0300885989182413 [Eh]
	 SCS Correlation Energy    =      -3.3066601198810934 [Eh]
	 SCS Total Energy          =    -814.7858763943709164 [Eh]
	-----------------------------------------------------------

  Dipole Moment: [D]
     X:     1.0707      Y:    -4.6566      Z:     2.4523     Total:     5.3707

*** Psi4 exiting successfully. Buy a developer a beer!
