                               Psi4 1.3.2 release

  ==> Input File <==

--------------------------------------------------------------------------
#psi4
#
memory 32 gb

molecule  {
0 1
  O        1.3620710    -0.3800110    -0.9318440
  O        3.2020570     1.9012130    -0.2995130
  O        2.7994070    -2.7489470    -0.4002010
  O       -1.3621860     2.3740050     0.1547830
  N       -0.7982440     0.1994180    -0.2292560
  N       -3.0541720     0.8052390     0.2400120
  N       -4.6734100    -0.8124350     0.4126370
  C        2.7015950     0.8755540     0.5594740
  C        1.1404078     1.1224788     0.9094717
  C        2.6518190    -0.3922910    -0.2854700
  C        0.5739580     0.6830040    -0.4149160
  C        2.8020980    -1.6600160     0.5224700
  C       -1.1273370    -1.1158190    -0.3082760
  C       -1.7446880     1.2038920     0.0820450
  C       -2.4173070    -1.5045610    -0.1045420
  C       -3.3619920    -0.4731600     0.1685110
  H        3.3343810     0.7567850     1.4508530
  H        0.9047070     0.4438290     1.6934890
  H        0.9853290     2.1340670     1.1581470
  H        0.5274540     1.5132540    -1.1249130
  H        3.4174920    -0.3642830    -1.0666260
  H        1.9707490    -1.7331840     1.2432230
  H        3.7460890    -1.6095150     1.0882890
  H        3.1038510     2.7463240     0.1779830
  H       -0.3107400    -1.7892010    -0.5436980
  H        2.9100300    -3.5650720     0.1192120
  H       -2.7034680    -2.5490840    -0.1532500
  H       -5.0287110    -1.6377420    -0.0567190
  H       -5.2994710    -0.0137980     0.3861010
units angstrom
no_reorient  #important for SAPT in psi4, default
symmetry c1  #important for SAPT in psi4, default
}

set PROPERTIES_ORIGIN ["COM"]
properties('MP2/aug-cc-pvtz', properties = ['dipole'])
--------------------------------------------------------------------------

    Molecular point group: c1
  Charge       = 0
  Multiplicity = 1
  Basis Set: AUG-CC-PVTZ
    Blend: AUG-CC-PVTZ
  Basis Set: (AUG-CC-PVTZ AUX)
    Blend: AUG-CC-PVTZ-JKFIT

    Orbital Energies [Eh]
    ---------------------

    Doubly Occupied:

       1A    -20.578036     2A    -20.575160     3A    -20.574437
       4A    -20.502349     5A    -15.619939     6A    -15.587648
       7A    -15.540141     8A    -11.369049     9A    -11.344162
      10A    -11.330831    11A    -11.317334    12A    -11.304501
      13A    -11.297176    14A    -11.293383    15A    -11.236089
      16A    -11.235717    17A     -1.416168    18A     -1.381831
      19A     -1.373284    20A     -1.365587    21A     -1.291531
      22A     -1.260947    23A     -1.168649    24A     -1.076500
      25A     -1.063450    26A     -1.027559    27A     -0.924026
      28A     -0.897025    29A     -0.870425    30A     -0.833646
      31A     -0.804250    32A     -0.753700    33A     -0.736792
      34A     -0.720957    35A     -0.705617    36A     -0.694155
      37A     -0.689140    38A     -0.675858    39A     -0.656365
      40A     -0.633748    41A     -0.629375    42A     -0.616520
      43A     -0.606049    44A     -0.594978    45A     -0.589600
      46A     -0.570952    47A     -0.566318    48A     -0.553158
      49A     -0.535009    50A     -0.529231    51A     -0.514481
      52A     -0.483808    53A     -0.479859    54A     -0.468243
      55A     -0.453880    56A     -0.439210    57A     -0.438760
      58A     -0.414479    59A     -0.382511    60A     -0.333892

  @DF-RHF Final Energy:  -811.47101674831436

   => Energetics <=

    Nuclear Repulsion Energy =           1169.4376385920959365
    One-Electron Energy =               -3433.9623569057002896
    Two-Electron Energy =                1453.0537015652898845
    Total Energy =                       -811.4710167483144687
  Basis Set: (AUG-CC-PVTZ AUX)
    Blend: AUG-CC-PVTZ-RI
    Molecular point group: c1

    Geometry (in Angstrom), charge = 0, multiplicity = 1:

       Center              X                  Y                   Z               Mass
    ------------   -----------------  -----------------  -----------------  -----------------
         O            1.367166898976    -0.380817030761    -0.932986401407    15.994914619570
         O            3.207152898976     1.900406969239    -0.300655401407    15.994914619570
         O            2.804502898976    -2.749753030761    -0.401343401407    15.994914619570
         O           -1.357090101024     2.373198969239     0.153640598593    15.994914619570
         N           -0.793148101024     0.198611969239    -0.230398401407    14.003074004430
         N           -3.049076101024     0.804432969239     0.238869598593    14.003074004430
         N           -4.668314101024    -0.813241030761     0.411494598593    14.003074004430
         C            2.706690898976     0.874747969239     0.558331598593    12.000000000000
         C            1.145503698976     1.121672769239     0.908329298593    12.000000000000
         C            2.656914898976    -0.393097030761    -0.286612401407    12.000000000000
         C            0.579053898976     0.682197969239    -0.416058401407    12.000000000000
         C            2.807193898976    -1.660822030761     0.521327598593    12.000000000000
         C           -1.122241101024    -1.116625030761    -0.309418401407    12.000000000000
         C           -1.739592101024     1.203085969239     0.080902598593    12.000000000000
         C           -2.412211101024    -1.505367030761    -0.105684401407    12.000000000000
         C           -3.356896101024    -0.473966030761     0.167368598593    12.000000000000
         H            3.339476898976     0.755978969239     1.449710598593     1.007825032230
         H            0.909802898976     0.443022969239     1.692346598593     1.007825032230
         H            0.990424898976     2.133260969239     1.157004598593     1.007825032230
         H            0.532549898976     1.512447969239    -1.126055401407     1.007825032230
         H            3.422587898976    -0.365089030761    -1.067768401407     1.007825032230
         H            1.975844898976    -1.733990030761     1.242080598593     1.007825032230
         H            3.751184898976    -1.610321030761     1.087146598593     1.007825032230
         H            3.108946898976     2.745517969239     0.176840598593     1.007825032230
         H           -0.305644101024    -1.790007030761    -0.544840401407     1.007825032230
         H            2.915125898976    -3.565878030761     0.118069598593     1.007825032230
         H           -2.698372101024    -2.549890030761    -0.154392401407     1.007825032230
         H           -5.023615101024    -1.638548030761    -0.057861401407     1.007825032230
         H           -5.294375101024    -0.014604030761     0.384958598593     1.007825032230

  Basis Set: AUG-CC-PVTZ
    Blend: AUG-CC-PVTZ
  Basis Set: (AUG-CC-PVTZ AUX)
    Blend: AUG-CC-PVTZ-JKFIT
	 Reference Energy          =    -811.4710167483143550 [Eh]
	 Singles Energy            =      -0.0000000000000000 [Eh]
	 Same-Spin Energy          =      -0.8297535424919186 [Eh]
	 Opposite-Spin Energy      =      -2.5258608957876740 [Eh]
	 Correlation Energy        =      -3.3556144382795927 [Eh]
	 Total Energy              =    -814.8266311865939997 [Eh]

	 ================> DF-SCS-MP2 Energies <==================
	-----------------------------------------------------------
	 SCS Same-Spin Scale       =       0.3333333333333333 [-]
	 SCS Opposite-Spin Scale   =       1.2000000000000000 [-]
	 SCS Same-Spin Energy      =      -0.2765845141639728 [Eh]
	 SCS Opposite-Spin Energy  =      -3.0310330749452086 [Eh]
	 SCS Correlation Energy    =      -3.3076175891091815 [Eh]
	 SCS Total Energy          =    -814.7786343374235685 [Eh]
	-----------------------------------------------------------

  Dipole Moment: [D]
     X:     1.2140      Y:    -4.6370      Z:     2.4807     Total:     5.3972

*** Psi4 exiting successfully. Buy a developer a beer!
