                               Psi4 1.3.2 release

  ==> Input File <==

--------------------------------------------------------------------------
#psi4
#
memory 32 gb

molecule  {
0 1
  O        1.3620710    -0.3800110    -0.9318440
  O        3.2020570     1.9012130    -0.2995130
  O        2.7994070    -2.7489470    -0.4002010
  O       -1.3621860     2.3740050     0.1547830
  N       -0.7982440     0.1994180    -0.2292560
  N       -3.0541720     0.8052390     0.2400120
  N       -4.6734100    -0.8124350     0.4126370
  C        2.7015950     0.8755540     0.5594740
  C        1.2368440     1.1072260     0.8878520
  C        2.6484048    -0.3823150    -0.2785904
  C        0.5832896     0.6861971    -0.4074040
  C        2.8020980    -1.6600160     0.5224700
  C       -1.1273370    -1.1158190    -0.3082760
  C       -1.7446880     1.2038920     0.0820450
  C       -2.4173070    -1.5045610    -0.1045420
  C       -3.3619920    -0.4731600     0.1685110
  H        3.3343810     0.7567850     1.4508530
  H        0.9047070     0.4438290     1.6934890
  H        0.9853290     2.1340670     1.1581470
  H        0.5274540     1.5132540    -1.1249130
  H        3.4174920    -0.3642830    -1.0666260
  H        1.9707490    -1.7331840     1.2432230
  H        3.7460890    -1.6095150     1.0882890
  H        3.1038510     2.7463240     0.1779830
  H       -0.3107400    -1.7892010    -0.5436980
  H        2.9100300    -3.5650720     0.1192120
  H       -2.7034680    -2.5490840    -0.1532500
  H       -5.0287110    -1.6377420    -0.0567190
  H       -5.2994710    -0.0137980     0.3861010
units angstrom
no_reorient  #important for SAPT in psi4, default
symmetry c1  #important for SAPT in psi4, default
}

set PROPERTIES_ORIGIN ["COM"]
properties('MP2/aug-cc-pvtz', properties = ['dipole'])
--------------------------------------------------------------------------

    Molecular point group: c1
  Charge       = 0
  Multiplicity = 1
  Basis Set: AUG-CC-PVTZ
    Blend: AUG-CC-PVTZ
  Basis Set: (AUG-CC-PVTZ AUX)
    Blend: AUG-CC-PVTZ-JKFIT

    Orbital Energies [Eh]
    ---------------------

    Doubly Occupied:

       1A    -20.578014     2A    -20.574965     3A    -20.573825
       4A    -20.502631     5A    -15.621107     6A    -15.588062
       7A    -15.540403     8A    -11.369388     9A    -11.344676
      10A    -11.331170    11A    -11.317886    12A    -11.301163
      13A    -11.297240    14A    -11.293382    15A    -11.237230
      16A    -11.236615    17A     -1.417617    18A     -1.382064
      19A     -1.373885    20A     -1.366193    21A     -1.291676
      22A     -1.260289    23A     -1.168549    24A     -1.081259
      25A     -1.069163    26A     -1.028440    27A     -0.926506
      28A     -0.896986    29A     -0.869208    30A     -0.830903
      31A     -0.806124    32A     -0.753630    33A     -0.738744
      34A     -0.721420    35A     -0.706941    36A     -0.692839
      37A     -0.689803    38A     -0.675288    39A     -0.656164
      40A     -0.637309    41A     -0.627628    42A     -0.618272
      43A     -0.604083    44A     -0.594998    45A     -0.588653
      46A     -0.572416    47A     -0.567856    48A     -0.545136
      49A     -0.533017    50A     -0.524345    51A     -0.510943
      52A     -0.489090    53A     -0.482164    54A     -0.468647
      55A     -0.461238    56A     -0.444303    57A     -0.437631
      58A     -0.415734    59A     -0.383633    60A     -0.334683

  @DF-RHF Final Energy:  -811.47866709365132

   => Energetics <=

    Nuclear Repulsion Energy =           1170.1092921079530242
    One-Electron Energy =               -3435.2694602574397322
    Two-Electron Energy =                1453.6815010558354970
    Total Energy =                       -811.4786670936512110
  Basis Set: (AUG-CC-PVTZ AUX)
    Blend: AUG-CC-PVTZ-RI
    Molecular point group: c1

    Geometry (in Angstrom), charge = 0, multiplicity = 1:

       Center              X                  Y                   Z               Mass
    ------------   -----------------  -----------------  -----------------  -----------------
         O            1.361758294798    -0.380706923168    -0.932604451657    15.994914619570
         O            3.201744294798     1.900517076832    -0.300273451657    15.994914619570
         O            2.799094294798    -2.749642923168    -0.400961451657    15.994914619570
         O           -1.362498705202     2.373309076832     0.154022548343    15.994914619570
         N           -0.798556705202     0.198722076832    -0.230016451657    14.003074004430
         N           -3.054484705202     0.804543076832     0.239251548343    14.003074004430
         N           -4.673722705202    -0.813130923168     0.411876548343    14.003074004430
         C            2.701282294798     0.874858076832     0.558713548343    12.000000000000
         C            1.236531294798     1.106530076832     0.887091548343    12.000000000000
         C            2.648092094798    -0.383010923168    -0.279350851657    12.000000000000
         C            0.582976894798     0.685501176832    -0.408164451657    12.000000000000
         C            2.801785294798    -1.660711923168     0.521709548343    12.000000000000
         C           -1.127649705202    -1.116514923168    -0.309036451657    12.000000000000
         C           -1.745000705202     1.203196076832     0.081284548343    12.000000000000
         C           -2.417619705202    -1.505256923168    -0.105302451657    12.000000000000
         C           -3.362304705202    -0.473855923168     0.167750548343    12.000000000000
         H            3.334068294798     0.756089076832     1.450092548343     1.007825032230
         H            0.904394294798     0.443133076832     1.692728548343     1.007825032230
         H            0.985016294798     2.133371076832     1.157386548343     1.007825032230
         H            0.527141294798     1.512558076832    -1.125673451657     1.007825032230
         H            3.417179294798    -0.364978923168    -1.067386451657     1.007825032230
         H            1.970436294798    -1.733879923168     1.242462548343     1.007825032230
         H            3.745776294798    -1.610210923168     1.087528548343     1.007825032230
         H            3.103538294798     2.745628076832     0.177222548343     1.007825032230
         H           -0.311052705202    -1.789896923168    -0.544458451657     1.007825032230
         H            2.909717294798    -3.565767923168     0.118451548343     1.007825032230
         H           -2.703780705202    -2.549779923168    -0.154010451657     1.007825032230
         H           -5.029023705202    -1.638437923168    -0.057479451657     1.007825032230
         H           -5.299783705202    -0.014493923168     0.385340548343     1.007825032230

  Basis Set: AUG-CC-PVTZ
    Blend: AUG-CC-PVTZ
  Basis Set: (AUG-CC-PVTZ AUX)
    Blend: AUG-CC-PVTZ-JKFIT
	 Reference Energy          =    -811.4786670936513246 [Eh]
	 Singles Energy            =      -0.0000000000000000 [Eh]
	 Same-Spin Energy          =      -0.8298162236053260 [Eh]
	 Opposite-Spin Energy      =      -2.5253683535668703 [Eh]
	 Correlation Energy        =      -3.3551845771721962 [Eh]
	 Total Energy              =    -814.8338516708234920 [Eh]

	 ================> DF-SCS-MP2 Energies <==================
	-----------------------------------------------------------
	 SCS Same-Spin Scale       =       0.3333333333333333 [-]
	 SCS Opposite-Spin Scale   =       1.2000000000000000 [-]
	 SCS Same-Spin Energy      =      -0.2766054078684420 [Eh]
	 SCS Opposite-Spin Energy  =      -3.0304420242802443 [Eh]
	 SCS Correlation Energy    =      -3.3070474321486865 [Eh]
	 SCS Total Energy          =    -814.7857145258000173 [Eh]
	-----------------------------------------------------------

  Dipole Moment: [D]
     X:     1.1173      Y:    -4.6585      Z:     2.5072     Total:     5.4070

*** Psi4 exiting successfully. Buy a developer a beer!
