                               Psi4 1.3.2 release

  ==> Input File <==

--------------------------------------------------------------------------
#psi4
#
memory 32 gb

molecule  {
0 1
  O        1.3620710    -0.3800110    -0.9318440
  O        3.2020570     1.9012130    -0.2995130
  O        2.7994070    -2.7489470    -0.4002010
  O       -1.3621860     2.3740050     0.1547830
  N       -0.7982440     0.1994180    -0.2292560
  N       -3.0541720     0.8052390     0.2400120
  N       -4.6734100    -0.8124350     0.4126370
  C        2.7015950     0.8755540     0.5594740
  C        1.2368440     1.1072260     0.8878520
  C        2.6518190    -0.3922910    -0.2854700
  C        0.5739580     0.6830040    -0.4149160
  C        2.8020980    -1.6600160     0.5224700
  C       -1.1273370    -1.1158190    -0.3082760
  C       -1.7446880     1.2038920     0.0820450
  C       -2.4173070    -1.5045610    -0.1045420
  C       -3.3619920    -0.4731600     0.1685110
  H        3.3343810     0.7567850     1.4508530
  H        0.9047070     0.4438290     1.6934890
  H        0.9853290     2.1340670     1.1581470
  H        0.5274540     1.5132540    -1.1249130
  H        3.4174920    -0.3642830    -1.0666260
  H        1.9707490    -1.7331840     1.2432230
  H        3.7460890    -1.6095150     1.0882890
  H        3.1139169     2.6597022     0.1290408
  H       -0.3107400    -1.7892010    -0.5436980
  H        2.9100300    -3.5650720     0.1192120
  H       -2.7034680    -2.5490840    -0.1532500
  H       -5.0287110    -1.6377420    -0.0567190
  H       -5.2994710    -0.0137980     0.3861010
units angstrom
no_reorient  #important for SAPT in psi4, default
symmetry c1  #important for SAPT in psi4, default
}

set PROPERTIES_ORIGIN ["COM"]
properties('MP2/aug-cc-pvtz', properties = ['dipole'])
--------------------------------------------------------------------------

    Molecular point group: c1
  Charge       = 0
  Multiplicity = 1
  Basis Set: AUG-CC-PVTZ
    Blend: AUG-CC-PVTZ
  Basis Set: (AUG-CC-PVTZ AUX)
    Blend: AUG-CC-PVTZ-JKFIT

    Orbital Energies [Eh]
    ---------------------

    Doubly Occupied:

       1A    -20.578013     2A    -20.573305     3A    -20.564631
       4A    -20.503229     5A    -15.622002     6A    -15.588503
       7A    -15.540971     8A    -11.370087     9A    -11.345215
      10A    -11.331219    11A    -11.318509    12A    -11.302033
      13A    -11.297122    14A    -11.293463    15A    -11.237538
      16A    -11.237235    17A     -1.420259    18A     -1.394956
      19A     -1.380189    20A     -1.369231    21A     -1.292439
      22A     -1.261678    23A     -1.169289    24A     -1.082030
      25A     -1.070832    26A     -1.028375    27A     -0.929333
      28A     -0.898207    29A     -0.871769    30A     -0.833485
      31A     -0.807264    32A     -0.754653    33A     -0.739926
      34A     -0.723730    35A     -0.714864    36A     -0.698442
      37A     -0.692365    38A     -0.676153    39A     -0.657031
      40A     -0.638541    41A     -0.628794    42A     -0.619266
      43A     -0.605267    44A     -0.596113    45A     -0.589213
      46A     -0.573875    47A     -0.570752    48A     -0.545724
      49A     -0.533505    50A     -0.524235    51A     -0.511087
      52A     -0.488798    53A     -0.482886    54A     -0.469293
      55A     -0.462813    56A     -0.444855    57A     -0.438234
      58A     -0.416567    59A     -0.383942    60A     -0.335157

  @DF-RHF Final Energy:  -811.47500281390433

   => Energetics <=

    Nuclear Repulsion Energy =           1170.6464534164672386
    One-Electron Energy =               -3436.1859328422769977
    Two-Electron Energy =                1454.0644766119057749
    Total Energy =                       -811.4750028139042115
  Basis Set: (AUG-CC-PVTZ AUX)
    Blend: AUG-CC-PVTZ-RI
    Molecular point group: c1

    Geometry (in Angstrom), charge = 0, multiplicity = 1:

       Center              X                  Y                   Z               Mass
    ------------   -----------------  -----------------  -----------------  -----------------
         O            1.362026311759    -0.379626610676    -0.931626760954    15.994914619570
         O            3.202012311759     1.901597389324    -0.299295760954    15.994914619570
         O            2.799362311759    -2.748562610676    -0.399983760954    15.994914619570
         O           -1.362230688241     2.374389389324     0.155000239046    15.994914619570
         N           -0.798288688241     0.199802389324    -0.229038760954    14.003074004430
         N           -3.054216688241     0.805623389324     0.240229239046    14.003074004430
         N           -4.673454688241    -0.812050610676     0.412854239046    14.003074004430
         C            2.701550311759     0.875938389324     0.559691239046    12.000000000000
         C            1.236799311759     1.107610389324     0.888069239046    12.000000000000
         C            2.651774311759    -0.391906610676    -0.285252760954    12.000000000000
         C            0.573913311759     0.683388389324    -0.414698760954    12.000000000000
         C            2.802053311759    -1.659631610676     0.522687239046    12.000000000000
         C           -1.127381688241    -1.115434610676    -0.308058760954    12.000000000000
         C           -1.744732688241     1.204276389324     0.082262239046    12.000000000000
         C           -2.417351688241    -1.504176610676    -0.104324760954    12.000000000000
         C           -3.362036688241    -0.472775610676     0.168728239046    12.000000000000
         H            3.334336311759     0.757169389324     1.451070239046     1.007825032230
         H            0.904662311759     0.444213389324     1.693706239046     1.007825032230
         H            0.985284311759     2.134451389324     1.158364239046     1.007825032230
         H            0.527409311759     1.513638389324    -1.124695760954     1.007825032230
         H            3.417447311759    -0.363898610676    -1.066408760954     1.007825032230
         H            1.970704311759    -1.732799610676     1.243440239046     1.007825032230
         H            3.746044311759    -1.609130610676     1.088506239046     1.007825032230
         H            3.113872211759     2.660086589324     0.129258039046     1.007825032230
         H           -0.310784688241    -1.788816610676    -0.543480760954     1.007825032230
         H            2.909985311759    -3.564687610676     0.119429239046     1.007825032230
         H           -2.703512688241    -2.548699610676    -0.153032760954     1.007825032230
         H           -5.028755688241    -1.637357610676    -0.056501760954     1.007825032230
         H           -5.299515688241    -0.013413610676     0.386318239046     1.007825032230

  Basis Set: AUG-CC-PVTZ
    Blend: AUG-CC-PVTZ
  Basis Set: (AUG-CC-PVTZ AUX)
    Blend: AUG-CC-PVTZ-JKFIT
	 Reference Energy          =    -811.4750028139043252 [Eh]
	 Singles Energy            =      -0.0000000000000000 [Eh]
	 Same-Spin Energy          =      -0.8284357502777880 [Eh]
	 Opposite-Spin Energy      =      -2.5221051639514789 [Eh]
	 Correlation Energy        =      -3.3505409142292670 [Eh]
	 Total Energy              =    -814.8255437281335389 [Eh]

	 ================> DF-SCS-MP2 Energies <==================
	-----------------------------------------------------------
	 SCS Same-Spin Scale       =       0.3333333333333333 [-]
	 SCS Opposite-Spin Scale   =       1.2000000000000000 [-]
	 SCS Same-Spin Energy      =      -0.2761452500925960 [Eh]
	 SCS Opposite-Spin Energy  =      -3.0265261967417745 [Eh]
	 SCS Correlation Energy    =      -3.3026714468343705 [Eh]
	 SCS Total Energy          =    -814.7776742607386495 [Eh]
	-----------------------------------------------------------

  Dipole Moment: [D]
     X:     1.0564      Y:    -4.7657      Z:     2.4684     Total:     5.4700

*** Psi4 exiting successfully. Buy a developer a beer!
