                               Psi4 1.3.2 release

  ==> Input File <==

--------------------------------------------------------------------------
#psi4
#
memory 32 gb

molecule  {
0 1
  O        1.3620710    -0.3800110    -0.9318440
  O        3.2020570     1.9012130    -0.2995130
  O        2.7994070    -2.7489470    -0.4002010
  O       -1.3621860     2.3740050     0.1547830
  N       -0.7982440     0.1994180    -0.2292560
  N       -3.0541720     0.8052390     0.2400120
  N       -4.6734100    -0.8124350     0.4126370
  C        2.7015950     0.8755540     0.5594740
  C        1.2368440     1.1072260     0.8878520
  C        2.6518190    -0.3922910    -0.2854700
  C        0.5739580     0.6830040    -0.4149160
  C        2.8430013    -1.6734716     0.4920280
  C       -1.1273370    -1.1158190    -0.3082760
  C       -1.7446880     1.2038920     0.0820450
  C       -2.4173070    -1.5045610    -0.1045420
  C       -3.3619920    -0.4731600     0.1685110
  H        3.3343810     0.7567850     1.4508530
  H        0.9047070     0.4438290     1.6934890
  H        0.9853290     2.1340670     1.1581470
  H        0.5274540     1.5132540    -1.1249130
  H        3.4305129    -0.3979449    -1.0541365
  H        1.9707490    -1.7331840     1.2432230
  H        3.7460890    -1.6095150     1.0882890
  H        3.1038510     2.7463240     0.1779830
  H       -0.3107400    -1.7892010    -0.5436980
  H        2.9100300    -3.5650720     0.1192120
  H       -2.7034680    -2.5490840    -0.1532500
  H       -5.0287110    -1.6377420    -0.0567190
  H       -5.2994710    -0.0137980     0.3861010
units angstrom
no_reorient  #important for SAPT in psi4, default
symmetry c1  #important for SAPT in psi4, default
}

set PROPERTIES_ORIGIN ["COM"]
properties('MP2/aug-cc-pvtz', properties = ['dipole'])
--------------------------------------------------------------------------

    Molecular point group: c1
  Charge       = 0
  Multiplicity = 1
  Basis Set: AUG-CC-PVTZ
    Blend: AUG-CC-PVTZ
  Basis Set: (AUG-CC-PVTZ AUX)
    Blend: AUG-CC-PVTZ-JKFIT

    Orbital Energies [Eh]
    ---------------------

    Doubly Occupied:

       1A    -20.580893     2A    -20.574013     3A    -20.573600
       4A    -20.502787     5A    -15.621469     6A    -15.588114
       7A    -15.540515     8A    -11.369642     9A    -11.344754
      10A    -11.330717    11A    -11.317960    12A    -11.301333
      13A    -11.297975    14A    -11.292801    15A    -11.236673
      16A    -11.236333    17A     -1.417024    18A     -1.386169
      19A     -1.379836    20A     -1.366905    21A     -1.291954
      22A     -1.261152    23A     -1.168842    24A     -1.078516
      25A     -1.068293    26A     -1.027906    27A     -0.926197
      28A     -0.896595    29A     -0.868249    30A     -0.830610
      31A     -0.805090    32A     -0.753978    33A     -0.738933
      34A     -0.725020    35A     -0.707019    36A     -0.697657
      37A     -0.688960    38A     -0.675051    39A     -0.655572
      40A     -0.637887    41A     -0.627327    42A     -0.618484
      43A     -0.607153    44A     -0.595370    45A     -0.589906
      46A     -0.572776    47A     -0.570291    48A     -0.544460
      49A     -0.532340    50A     -0.524269    51A     -0.509625
      52A     -0.486765    53A     -0.481953    54A     -0.464873
      55A     -0.456113    56A     -0.443974    57A     -0.437139
      58A     -0.415988    59A     -0.383488    60A     -0.334633

  @DF-RHF Final Energy:  -811.47663419617652

   => Energetics <=

    Nuclear Repulsion Energy =           1169.7459902023222185
    One-Electron Energy =               -3434.5254011494971564
    Two-Electron Energy =                1453.3027767509986461
    Total Energy =                       -811.4766341961765193
  Basis Set: (AUG-CC-PVTZ AUX)
    Blend: AUG-CC-PVTZ-RI
    Molecular point group: c1

    Geometry (in Angstrom), charge = 0, multiplicity = 1:

       Center              X                  Y                   Z               Mass
    ------------   -----------------  -----------------  -----------------  -----------------
         O            1.359851771244    -0.379150620546    -0.930290767359    15.994914619570
         O            3.199837771244     1.902073379454    -0.297959767359    15.994914619570
         O            2.797187771244    -2.748086620546    -0.398647767359    15.994914619570
         O           -1.364405228756     2.374865379454     0.156336232641    15.994914619570
         N           -0.800463228756     0.200278379454    -0.227702767359    14.003074004430
         N           -3.056391228756     0.806099379454     0.241565232641    14.003074004430
         N           -4.675629228756    -0.811574620546     0.414190232641    14.003074004430
         C            2.699375771244     0.876414379454     0.561027232641    12.000000000000
         C            1.234624771244     1.108086379454     0.889405232641    12.000000000000
         C            2.649599771244    -0.391430620546    -0.283916767359    12.000000000000
         C            0.571738771244     0.683864379454    -0.413362767359    12.000000000000
         C            2.840782071244    -1.672611220546     0.493581232641    12.000000000000
         C           -1.129556228756    -1.114958620546    -0.306722767359    12.000000000000
         C           -1.746907228756     1.204752379454     0.083598232641    12.000000000000
         C           -2.419526228756    -1.503700620546    -0.102988767359    12.000000000000
         C           -3.364211228756    -0.472299620546     0.170064232641    12.000000000000
         H            3.332161771244     0.757645379454     1.452406232641     1.007825032230
         H            0.902487771244     0.444689379454     1.695042232641     1.007825032230
         H            0.983109771244     2.134927379454     1.159700232641     1.007825032230
         H            0.525234771244     1.514114379454    -1.123359767359     1.007825032230
         H            3.428293671244    -0.397084520546    -1.052583267359     1.007825032230
         H            1.968529771244    -1.732323620546     1.244776232641     1.007825032230
         H            3.743869771244    -1.608654620546     1.089842232641     1.007825032230
         H            3.101631771244     2.747184379454     0.179536232641     1.007825032230
         H           -0.312959228756    -1.788340620546    -0.542144767359     1.007825032230
         H            2.907810771244    -3.564211620546     0.120765232641     1.007825032230
         H           -2.705687228756    -2.548223620546    -0.151696767359     1.007825032230
         H           -5.030930228756    -1.636881620546    -0.055165767359     1.007825032230
         H           -5.301690228756    -0.012937620546     0.387654232641     1.007825032230

  Basis Set: AUG-CC-PVTZ
    Blend: AUG-CC-PVTZ
  Basis Set: (AUG-CC-PVTZ AUX)
    Blend: AUG-CC-PVTZ-JKFIT
	 Reference Energy          =    -811.4766341961765193 [Eh]
	 Singles Energy            =      -0.0000000000000000 [Eh]
	 Same-Spin Energy          =      -0.8296552598037461 [Eh]
	 Opposite-Spin Energy      =      -2.5247086404510597 [Eh]
	 Correlation Energy        =      -3.3543639002548060 [Eh]
	 Total Energy              =    -814.8309980964313581 [Eh]

	 ================> DF-SCS-MP2 Energies <==================
	-----------------------------------------------------------
	 SCS Same-Spin Scale       =       0.3333333333333333 [-]
	 SCS Opposite-Spin Scale   =       1.2000000000000000 [-]
	 SCS Same-Spin Energy      =      -0.2765517532679154 [Eh]
	 SCS Opposite-Spin Energy  =      -3.0296503685412715 [Eh]
	 SCS Correlation Energy    =      -3.3062021218091866 [Eh]
	 SCS Total Energy          =    -814.7828363179856979 [Eh]
	-----------------------------------------------------------

  Dipole Moment: [D]
     X:     1.1499      Y:    -4.7782      Z:     2.4177     Total:     5.4771

*** Psi4 exiting successfully. Buy a developer a beer!
