                               Psi4 1.3.2 release

  ==> Input File <==

--------------------------------------------------------------------------
#psi4
#
memory 32 gb

molecule  {
0 1
  O        1.3620710    -0.3800110    -0.9318440
  O        3.2020570     1.9012130    -0.2995130
  O        2.7994070    -2.7489470    -0.4002010
  O       -1.3621860     2.3740050     0.1547830
  N       -0.7982440     0.1994180    -0.2292560
  N       -3.0541720     0.8052390     0.2400120
  N       -4.6734100    -0.8124350     0.4126370
  C        2.7015950     0.8755540     0.5594740
  C        1.2368440     1.1072260     0.8878520
  C        2.6518190    -0.3922910    -0.2854700
  C        0.5739580     0.6830040    -0.4149160
  C        2.8020980    -1.6600160     0.5224700
  C       -1.1273370    -1.1158190    -0.3082760
  C       -1.7446880     1.2038920     0.0820450
  C       -2.4173070    -1.5045610    -0.1045420
  C       -3.3619920    -0.4731600     0.1685110
  H        3.3343810     0.7567850     1.4508530
  H        0.9047070     0.4438290     1.6934890
  H        0.9853290     2.1340670     1.1581470
  H        0.5274540     1.5132540    -1.1249130
  H        3.4174920    -0.3642830    -1.0666260
  H        1.9707490    -1.7331840     1.2432230
  H        3.7460890    -1.6095150     1.0882890
  H        3.1038510     2.7463240     0.1779830
  H       -0.3107400    -1.7892010    -0.5436980
  H        2.9100300    -3.5650720     0.1192120
  H       -2.6506760    -2.3563867    -0.1442642
  H       -5.0287110    -1.6377420    -0.0567190
  H       -5.2994710    -0.0137980     0.3861010
units angstrom
no_reorient  #important for SAPT in psi4, default
symmetry c1  #important for SAPT in psi4, default
}

set PROPERTIES_ORIGIN ["COM"]
properties('MP2/aug-cc-pvtz', properties = ['dipole'])
--------------------------------------------------------------------------

    Molecular point group: c1
  Charge       = 0
  Multiplicity = 1
  Basis Set: AUG-CC-PVTZ
    Blend: AUG-CC-PVTZ
  Basis Set: (AUG-CC-PVTZ AUX)
    Blend: AUG-CC-PVTZ-JKFIT

    Orbital Energies [Eh]
    ---------------------

    Doubly Occupied:

       1A    -20.577758     2A    -20.574241     3A    -20.572731
       4A    -20.502734     5A    -15.621192     6A    -15.588563
       7A    -15.539644     8A    -11.369401     9A    -11.343550
      10A    -11.330407    11A    -11.317544    12A    -11.300745
      13A    -11.296843    14A    -11.292989    15A    -11.236625
      16A    -11.213704    17A     -1.416465    18A     -1.382052
      19A     -1.373538    20A     -1.365581    21A     -1.292027
      22A     -1.261083    23A     -1.168678    24A     -1.083293
      25A     -1.072108    26A     -1.031323    27A     -0.928362
      28A     -0.900991    29A     -0.870651    30A     -0.835023
      31A     -0.806339    32A     -0.754786    33A     -0.751473
      34A     -0.722081    35A     -0.706574    36A     -0.693675
      37A     -0.690172    38A     -0.679613    39A     -0.670331
      40A     -0.647493    41A     -0.627352    42A     -0.621037
      43A     -0.604511    44A     -0.595420    45A     -0.589532
      46A     -0.576058    47A     -0.568595    48A     -0.544776
      49A     -0.532399    50A     -0.524195    51A     -0.510266
      52A     -0.485757    53A     -0.481683    54A     -0.468464
      55A     -0.461031    56A     -0.444291    57A     -0.437923
      58A     -0.416087    59A     -0.383354    60A     -0.334817

  @DF-RHF Final Energy:  -811.44412516711009

   => Energetics <=

    Nuclear Repulsion Energy =           1171.2425615075424048
    One-Electron Energy =               -3437.3935125055031676
    Two-Electron Energy =                1454.7068258308504483
    Total Energy =                       -811.4441251671100872
  Basis Set: (AUG-CC-PVTZ AUX)
    Blend: AUG-CC-PVTZ-RI
    Molecular point group: c1

    Geometry (in Angstrom), charge = 0, multiplicity = 1:

       Center              X                  Y                   Z               Mass
    ------------   -----------------  -----------------  -----------------  -----------------
         O            1.361836693906    -0.380866225058    -0.931883844633    15.994914619570
         O            3.201822693906     1.900357774942    -0.299552844633    15.994914619570
         O            2.799172693906    -2.749802225058    -0.400240844633    15.994914619570
         O           -1.362420306094     2.373149774942     0.154743155367    15.994914619570
         N           -0.798478306094     0.198562774942    -0.229295844633    14.003074004430
         N           -3.054406306094     0.804383774942     0.239972155367    14.003074004430
         N           -4.673644306094    -0.813290225058     0.412597155367    14.003074004430
         C            2.701360693906     0.874698774942     0.559434155367    12.000000000000
         C            1.236609693906     1.106370774942     0.887812155367    12.000000000000
         C            2.651584693906    -0.393146225058    -0.285509844633    12.000000000000
         C            0.573723693906     0.682148774942    -0.414955844633    12.000000000000
         C            2.801863693906    -1.660871225058     0.522430155367    12.000000000000
         C           -1.127571306094    -1.116674225058    -0.308315844633    12.000000000000
         C           -1.744922306094     1.203036774942     0.082005155367    12.000000000000
         C           -2.417541306094    -1.505416225058    -0.104581844633    12.000000000000
         C           -3.362226306094    -0.474015225058     0.168471155367    12.000000000000
         H            3.334146693906     0.755929774942     1.450813155367     1.007825032230
         H            0.904472693906     0.442973774942     1.693449155367     1.007825032230
         H            0.985094693906     2.133211774942     1.158107155367     1.007825032230
         H            0.527219693906     1.512398774942    -1.124952844633     1.007825032230
         H            3.417257693906    -0.365138225058    -1.066665844633     1.007825032230
         H            1.970514693906    -1.734039225058     1.243183155367     1.007825032230
         H            3.745854693906    -1.610370225058     1.088249155367     1.007825032230
         H            3.103616693906     2.745468774942     0.177943155367     1.007825032230
         H           -0.310974306094    -1.790056225058    -0.543737844633     1.007825032230
         H            2.909795693906    -3.565927225058     0.119172155367     1.007825032230
         H           -2.650910306094    -2.357241925058    -0.144304044633     1.007825032230
         H           -5.028945306094    -1.638597225058    -0.056758844633     1.007825032230
         H           -5.299705306094    -0.014653225058     0.386061155367     1.007825032230

  Basis Set: AUG-CC-PVTZ
    Blend: AUG-CC-PVTZ
  Basis Set: (AUG-CC-PVTZ AUX)
    Blend: AUG-CC-PVTZ-JKFIT
	 Reference Energy          =    -811.4441251671100872 [Eh]
	 Singles Energy            =      -0.0000000000000000 [Eh]
	 Same-Spin Energy          =      -0.8294212828026353 [Eh]
	 Opposite-Spin Energy      =      -2.5245638751962982 [Eh]
	 Correlation Energy        =      -3.3539851579989337 [Eh]
	 Total Energy              =    -814.7981103251090644 [Eh]

	 ================> DF-SCS-MP2 Energies <==================
	-----------------------------------------------------------
	 SCS Same-Spin Scale       =       0.3333333333333333 [-]
	 SCS Opposite-Spin Scale   =       1.2000000000000000 [-]
	 SCS Same-Spin Energy      =      -0.2764737609342117 [Eh]
	 SCS Opposite-Spin Energy  =      -3.0294766502355577 [Eh]
	 SCS Correlation Energy    =      -3.3059504111697695 [Eh]
	 SCS Total Energy          =    -814.7500755782798478 [Eh]
	-----------------------------------------------------------

  Dipole Moment: [D]
     X:     1.0773      Y:    -4.6844      Z:     2.4843     Total:     5.4107

*** Psi4 exiting successfully. Buy a developer a beer!
