                               Psi4 1.3.2 release

  ==> Input File <==

--------------------------------------------------------------------------
#psi4
#
memory 32 gb

molecule  {
0 1
  O        1.3620710    -0.3800110    -0.9318440
  O        3.2020570     1.9012130    -0.2995130
  O        2.7994070    -2.7489470    -0.4002010
  O       -1.3621860     2.3740050     0.1547830
  N       -0.7982440     0.1994180    -0.2292560
  N       -3.0541720     0.8052390     0.2400120
  N       -4.6734100    -0.8124350     0.4126370
  C        2.6315214     0.7319435     0.6797475
  C        1.2368440     1.1072260     0.8878520
  C        2.6518190    -0.3922910    -0.2854700
  C        0.5739580     0.6830040    -0.4149160
  C        2.8020980    -1.6600160     0.5224700
  C       -1.1273370    -1.1158190    -0.3082760
  C       -1.7446880     1.2038920     0.0820450
  C       -2.4173070    -1.5045610    -0.1045420
  C       -3.3619920    -0.4731600     0.1685110
  H        3.3343810     0.7567850     1.4508530
  H        0.9047070     0.4438290     1.6934890
  H        0.9853290     2.1340670     1.1581470
  H        0.5274540     1.5132540    -1.1249130
  H        3.4174920    -0.3642830    -1.0666260
  H        1.9707490    -1.7331840     1.2432230
  H        3.7460890    -1.6095150     1.0882890
  H        3.1038510     2.7463240     0.1779830
  H       -0.3107400    -1.7892010    -0.5436980
  H        2.9100300    -3.5650720     0.1192120
  H       -2.7034680    -2.5490840    -0.1532500
  H       -5.0287110    -1.6377420    -0.0567190
  H       -5.2994710    -0.0137980     0.3861010
units angstrom
no_reorient  #important for SAPT in psi4, default
symmetry c1  #important for SAPT in psi4, default
}

set PROPERTIES_ORIGIN ["COM"]
properties('MP2/aug-cc-pvtz', properties = ['dipole'])
--------------------------------------------------------------------------

    Molecular point group: c1
  Charge       = 0
  Multiplicity = 1
  Basis Set: AUG-CC-PVTZ
    Blend: AUG-CC-PVTZ
  Basis Set: (AUG-CC-PVTZ AUX)
    Blend: AUG-CC-PVTZ-JKFIT

    Orbital Energies [Eh]
    ---------------------

    Doubly Occupied:

       1A    -20.580138     2A    -20.577471     3A    -20.548613
       4A    -20.505173     5A    -15.623955     6A    -15.589835
       7A    -15.542555     8A    -11.371958     9A    -11.346821
      10A    -11.335018    11A    -11.320378    12A    -11.306236
      13A    -11.300018    14A    -11.298785    15A    -11.242563
      16A    -11.239036    17A     -1.419591    18A     -1.383575
      19A     -1.372638    20A     -1.306996    21A     -1.293926
      22A     -1.263521    23A     -1.170935    24A     -1.099456
      25A     -1.076179    26A     -1.035887    27A     -0.931091
      28A     -0.899367    29A     -0.870744    30A     -0.833899
      31A     -0.817487    32A     -0.756571    33A     -0.744692
      34A     -0.727987    35A     -0.704998    36A     -0.698324
      37A     -0.677386    38A     -0.659638    39A     -0.655509
      40A     -0.639343    41A     -0.627779    42A     -0.614322
      43A     -0.606731    44A     -0.590921    45A     -0.588333
      46A     -0.577449    47A     -0.566853    48A     -0.546863
      49A     -0.532699    50A     -0.526443    51A     -0.507316
      52A     -0.483234    53A     -0.480075    54A     -0.466403
      55A     -0.460978    56A     -0.449108    57A     -0.439712
      58A     -0.418651    59A     -0.385932    60A     -0.337162

  @DF-RHF Final Energy:  -811.44539039544657

   => Energetics <=

    Nuclear Repulsion Energy =           1170.1403811543063966
    One-Electron Energy =               -3435.2210271695257688
    Two-Electron Energy =                1453.6352556197728063
    Total Energy =                       -811.4453903954465659
  Basis Set: (AUG-CC-PVTZ AUX)
    Blend: AUG-CC-PVTZ-RI
    Molecular point group: c1

    Geometry (in Angstrom), charge = 0, multiplicity = 1:

       Center              X                  Y                   Z               Mass
    ------------   -----------------  -----------------  -----------------  -----------------
         O            1.365773837389    -0.372422321555    -0.938199499479    15.994914619570
         O            3.205759837389     1.908801678445    -0.305868499479    15.994914619570
         O            2.803109837389    -2.741358321555    -0.406556499479    15.994914619570
         O           -1.358483162611     2.381593678445     0.148427500521    15.994914619570
         N           -0.794541162611     0.207006678445    -0.235611499479    14.003074004430
         N           -3.050469162611     0.812827678445     0.233656500521    14.003074004430
         N           -4.669707162611    -0.804846321555     0.406281500521    14.003074004430
         C            2.635224237389     0.739532178445     0.673392000521    12.000000000000
         C            1.240546837389     1.114814678445     0.881496500521    12.000000000000
         C            2.655521837389    -0.384702321555    -0.291825499479    12.000000000000
         C            0.577660837389     0.690592678445    -0.421271499479    12.000000000000
         C            2.805800837389    -1.652427321555     0.516114500521    12.000000000000
         C           -1.123634162611    -1.108230321555    -0.314631499479    12.000000000000
         C           -1.740985162611     1.211480678445     0.075689500521    12.000000000000
         C           -2.413604162611    -1.496972321555    -0.110897499479    12.000000000000
         C           -3.358289162611    -0.465571321555     0.162155500521    12.000000000000
         H            3.338083837389     0.764373678445     1.444497500521     1.007825032230
         H            0.908409837389     0.451417678445     1.687133500521     1.007825032230
         H            0.989031837389     2.141655678445     1.151791500521     1.007825032230
         H            0.531156837389     1.520842678445    -1.131268499479     1.007825032230
         H            3.421194837389    -0.356694321555    -1.072981499479     1.007825032230
         H            1.974451837389    -1.725595321555     1.236867500521     1.007825032230
         H            3.749791837389    -1.601926321555     1.081933500521     1.007825032230
         H            3.107553837389     2.753912678445     0.171627500521     1.007825032230
         H           -0.307037162611    -1.781612321555    -0.550053499479     1.007825032230
         H            2.913732837389    -3.557483321555     0.112856500521     1.007825032230
         H           -2.699765162611    -2.541495321555    -0.159605499479     1.007825032230
         H           -5.025008162611    -1.630153321555    -0.063074499479     1.007825032230
         H           -5.295768162611    -0.006209321555     0.379745500521     1.007825032230

  Basis Set: AUG-CC-PVTZ
    Blend: AUG-CC-PVTZ
  Basis Set: (AUG-CC-PVTZ AUX)
    Blend: AUG-CC-PVTZ-JKFIT
	 Reference Energy          =    -811.4453903954465659 [Eh]
	 Singles Energy            =      -0.0000000000000000 [Eh]
	 Same-Spin Energy          =      -0.8316009133112705 [Eh]
	 Opposite-Spin Energy      =      -2.5304074496293509 [Eh]
	 Correlation Energy        =      -3.3620083629406214 [Eh]
	 Total Energy              =    -814.8073987583871940 [Eh]

	 ================> DF-SCS-MP2 Energies <==================
	-----------------------------------------------------------
	 SCS Same-Spin Scale       =       0.3333333333333333 [-]
	 SCS Opposite-Spin Scale   =       1.2000000000000000 [-]
	 SCS Same-Spin Energy      =      -0.2772003044370902 [Eh]
	 SCS Opposite-Spin Energy  =      -3.0364889395552210 [Eh]
	 SCS Correlation Energy    =      -3.3136892439923114 [Eh]
	 SCS Total Energy          =    -814.7590796394388235 [Eh]
	-----------------------------------------------------------

  Dipole Moment: [D]
     X:     0.6934      Y:    -5.2202      Z:     2.7670     Total:     5.9488

*** Psi4 exiting successfully. Buy a developer a beer!
