                               Psi4 1.3.2 release

  ==> Input File <==

--------------------------------------------------------------------------
#psi4
#
memory 32 gb

molecule  {
0 1
  O        1.3620710    -0.3800110    -0.9318440
  O        3.2020570     1.9012130    -0.2995130
  O        2.7994070    -2.7489470    -0.4002010
  O       -1.3621860     2.3740050     0.1547830
  N       -0.7982440     0.1994180    -0.2292560
  N       -3.0541720     0.8052390     0.2400120
  N       -4.6734100    -0.8124350     0.4126370
  C        2.7015950     0.8755540     0.5594740
  C        1.2368440     1.1072260     0.8878520
  C        2.6518190    -0.3922910    -0.2854700
  C        0.5739580     0.6830040    -0.4149160
  C        2.8020980    -1.6600160     0.5224700
  C       -1.1273370    -1.1158190    -0.3082760
  C       -1.7446880     1.2038920     0.0820450
  C       -2.4173070    -1.5045610    -0.1045420
  C       -3.3529169    -0.4646994     0.1676669
  H        3.3343810     0.7567850     1.4508530
  H        0.9047070     0.4438290     1.6934890
  H        0.9853290     2.1340670     1.1581470
  H        0.5274540     1.5132540    -1.1249130
  H        3.4174920    -0.3642830    -1.0666260
  H        1.9707490    -1.7331840     1.2432230
  H        3.7460890    -1.6095150     1.0882890
  H        3.1038510     2.7463240     0.1779830
  H       -0.3107400    -1.7892010    -0.5436980
  H        2.9100300    -3.5650720     0.1192120
  H       -2.6944915    -2.5514131    -0.1551210
  H       -5.0287110    -1.6377420    -0.0567190
  H       -5.2994710    -0.0137980     0.3861010
units angstrom
no_reorient  #important for SAPT in psi4, default
symmetry c1  #important for SAPT in psi4, default
}

set PROPERTIES_ORIGIN ["COM"]
properties('MP2/aug-cc-pvtz', properties = ['dipole'])
--------------------------------------------------------------------------

    Molecular point group: c1
  Charge       = 0
  Multiplicity = 1
  Basis Set: AUG-CC-PVTZ
    Blend: AUG-CC-PVTZ
  Basis Set: (AUG-CC-PVTZ AUX)
    Blend: AUG-CC-PVTZ-JKFIT

    Orbital Energies [Eh]
    ---------------------

    Doubly Occupied:

       1A    -20.577888     2A    -20.574579     3A    -20.573152
       4A    -20.504322     5A    -15.622161     6A    -15.586188
       7A    -15.541897     8A    -11.371073     9A    -11.344510
      10A    -11.331123    11A    -11.317954    12A    -11.301111
      13A    -11.297032    14A    -11.293297    15A    -11.237120
      16A    -11.237060    17A     -1.417027    18A     -1.383520
      19A     -1.373750    20A     -1.366078    21A     -1.292703
      22A     -1.260303    23A     -1.169739    24A     -1.079418
      25A     -1.069310    26A     -1.028156    27A     -0.926836
      28A     -0.897617    29A     -0.869767    30A     -0.831103
      31A     -0.806526    32A     -0.753604    33A     -0.739231
      34A     -0.721124    35A     -0.705058    36A     -0.692732
      37A     -0.688910    38A     -0.675489    39A     -0.656634
      40A     -0.637895    41A     -0.628224    42A     -0.618546
      43A     -0.605024    44A     -0.594468    45A     -0.589591
      46A     -0.572694    47A     -0.568951    48A     -0.544972
      49A     -0.531738    50A     -0.524063    51A     -0.510195
      52A     -0.486131    53A     -0.482655    54A     -0.468672
      55A     -0.461356    56A     -0.445927    57A     -0.438433
      58A     -0.417579    59A     -0.385245    60A     -0.335332

  @DF-RHF Final Energy:  -811.47938387622878

   => Energetics <=

    Nuclear Repulsion Energy =           1170.1176354917479330
    One-Electron Energy =               -3435.2684580013542472
    Two-Electron Energy =                1453.6714386333774200
    Total Energy =                       -811.4793838762288942
  Basis Set: (AUG-CC-PVTZ AUX)
    Blend: AUG-CC-PVTZ-RI
    Molecular point group: c1

    Geometry (in Angstrom), charge = 0, multiplicity = 1:

       Center              X                  Y                   Z               Mass
    ------------   -----------------  -----------------  -----------------  -----------------
         O            1.361551596942    -0.380447778476    -0.931791058079    15.994914619570
         O            3.201537596942     1.900776221524    -0.299460058079    15.994914619570
         O            2.798887596942    -2.749383778476    -0.400148058079    15.994914619570
         O           -1.362705403058     2.373568221524     0.154835941921    15.994914619570
         N           -0.798763403058     0.198981221524    -0.229203058079    14.003074004430
         N           -3.054691403058     0.804802221524     0.240064941921    14.003074004430
         N           -4.673929403058    -0.812871778476     0.412689941921    14.003074004430
         C            2.701075596942     0.875117221524     0.559526941921    12.000000000000
         C            1.236324596942     1.106789221524     0.887904941921    12.000000000000
         C            2.651299596942    -0.392727778476    -0.285417058079    12.000000000000
         C            0.573438596942     0.682567221524    -0.414863058079    12.000000000000
         C            2.801578596942    -1.660452778476     0.522522941921    12.000000000000
         C           -1.127856403058    -1.116255778476    -0.308223058079    12.000000000000
         C           -1.745207403058     1.203455221524     0.082097941921    12.000000000000
         C           -2.417826403058    -1.504997778476    -0.104489058079    12.000000000000
         C           -3.353436303058    -0.465136178476     0.167719841921    12.000000000000
         H            3.333861596942     0.756348221524     1.450905941921     1.007825032230
         H            0.904187596942     0.443392221524     1.693541941921     1.007825032230
         H            0.984809596942     2.133630221524     1.158199941921     1.007825032230
         H            0.526934596942     1.512817221524    -1.124860058079     1.007825032230
         H            3.416972596942    -0.364719778476    -1.066573058079     1.007825032230
         H            1.970229596942    -1.733620778476     1.243275941921     1.007825032230
         H            3.745569596942    -1.609951778476     1.088341941921     1.007825032230
         H            3.103331596942     2.745887221524     0.178035941921     1.007825032230
         H           -0.311259403058    -1.789637778476    -0.543645058079     1.007825032230
         H            2.909510596942    -3.565508778476     0.119264941921     1.007825032230
         H           -2.695010903058    -2.551849878476    -0.155068058079     1.007825032230
         H           -5.029230403058    -1.638178778476    -0.056666058079     1.007825032230
         H           -5.299990403058    -0.014234778476     0.386153941921     1.007825032230

  Basis Set: AUG-CC-PVTZ
    Blend: AUG-CC-PVTZ
  Basis Set: (AUG-CC-PVTZ AUX)
    Blend: AUG-CC-PVTZ-JKFIT
	 Reference Energy          =    -811.4793838762287805 [Eh]
	 Singles Energy            =      -0.0000000000000000 [Eh]
	 Same-Spin Energy          =      -0.8295447417086177 [Eh]
	 Opposite-Spin Energy      =      -2.5250544112807343 [Eh]
	 Correlation Energy        =      -3.3545991529893522 [Eh]
	 Total Energy              =    -814.8339830292181887 [Eh]

	 ================> DF-SCS-MP2 Energies <==================
	-----------------------------------------------------------
	 SCS Same-Spin Scale       =       0.3333333333333333 [-]
	 SCS Opposite-Spin Scale   =       1.2000000000000000 [-]
	 SCS Same-Spin Energy      =      -0.2765149139028725 [Eh]
	 SCS Opposite-Spin Energy  =      -3.0300652935368810 [Eh]
	 SCS Correlation Energy    =      -3.3065802074397537 [Eh]
	 SCS Total Energy          =    -814.7859640836685458 [Eh]
	-----------------------------------------------------------

  Dipole Moment: [D]
     X:     1.1715      Y:    -4.6221      Z:     2.4779     Total:     5.3737

*** Psi4 exiting successfully. Buy a developer a beer!
