                               Psi4 1.3.2 release

  ==> Input File <==

--------------------------------------------------------------------------
#psi4
#
memory 32 gb

molecule  {
0 1
  O        1.3620710    -0.3800110    -0.9318440
  O        3.2020570     1.9012130    -0.2995130
  O        2.7994070    -2.7489470    -0.4002010
  O       -1.3621860     2.3740050     0.1547830
  N       -0.7982440     0.1994180    -0.2292560
  N       -3.0541720     0.8052390     0.2400120
  N       -4.6734100    -0.8124350     0.4126370
  C        2.7015950     0.8755540     0.5594740
  C        1.2368440     1.1072260     0.8878520
  C        2.6518190    -0.3922910    -0.2854700
  C        0.5739580     0.6830040    -0.4149160
  C        2.8020980    -1.6600160     0.5224700
  C       -1.1273370    -1.1158190    -0.3082760
  C       -1.8397223     1.1749602     0.0935093
  C       -2.4173070    -1.5045610    -0.1045420
  C       -3.3619920    -0.4731600     0.1685110
  H        3.3343810     0.7567850     1.4508530
  H        0.9047070     0.4438290     1.6934890
  H        0.9853290     2.1340670     1.1581470
  H        0.5274540     1.5132540    -1.1249130
  H        3.4174920    -0.3642830    -1.0666260
  H        1.9707490    -1.7331840     1.2432230
  H        3.7460890    -1.6095150     1.0882890
  H        3.1038510     2.7463240     0.1779830
  H       -0.3107400    -1.7892010    -0.5436980
  H        2.9100300    -3.5650720     0.1192120
  H       -2.7034680    -2.5490840    -0.1532500
  H       -5.0287110    -1.6377420    -0.0567190
  H       -5.2994710    -0.0137980     0.3861010
units angstrom
no_reorient  #important for SAPT in psi4, default
symmetry c1  #important for SAPT in psi4, default
}

set PROPERTIES_ORIGIN ["COM"]
properties('MP2/aug-cc-pvtz', properties = ['dipole'])
--------------------------------------------------------------------------

    Molecular point group: c1
  Charge       = 0
  Multiplicity = 1
  Basis Set: AUG-CC-PVTZ
    Blend: AUG-CC-PVTZ
  Basis Set: (AUG-CC-PVTZ AUX)
    Blend: AUG-CC-PVTZ-JKFIT

    Orbital Energies [Eh]
    ---------------------

    Doubly Occupied:

       1A    -20.576937     2A    -20.571775     3A    -20.570933
       4A    -20.485219     5A    -15.621328     6A    -15.597879
       7A    -15.545623     8A    -11.367769     9A    -11.358989
      10A    -11.328171    11A    -11.321209    12A    -11.298149
      13A    -11.295681    14A    -11.291302    15A    -11.239044
      16A    -11.233022    17A     -1.413203    18A     -1.372390
      19A     -1.370525    20A     -1.358712    21A     -1.286321
      22A     -1.251972    23A     -1.196147    24A     -1.077706
      25A     -1.068950    26A     -1.025418    27A     -0.929077
      28A     -0.892409    29A     -0.877573    30A     -0.835004
      31A     -0.804759    32A     -0.760960    33A     -0.736288
      34A     -0.719159    35A     -0.709559    36A     -0.691226
      37A     -0.687919    38A     -0.678303    39A     -0.657171
      40A     -0.637892    41A     -0.627016    42A     -0.616344
      43A     -0.600316    44A     -0.595826    45A     -0.583801
      46A     -0.570355    47A     -0.564656    48A     -0.543402
      49A     -0.530366    50A     -0.520895    51A     -0.505836
      52A     -0.483468    53A     -0.477792    54A     -0.467200
      55A     -0.458001    56A     -0.439103    57A     -0.437463
      58A     -0.410898    59A     -0.387900    60A     -0.334401

  @DF-RHF Final Energy:  -811.46436890277346

   => Energetics <=

    Nuclear Repulsion Energy =           1169.3449103671259763
    One-Electron Energy =               -3433.8251306548827415
    Two-Electron Energy =                1453.0158513849833071
    Total Energy =                       -811.4643689027734581
  Basis Set: (AUG-CC-PVTZ AUX)
    Blend: AUG-CC-PVTZ-RI
    Molecular point group: c1

    Geometry (in Angstrom), charge = 0, multiplicity = 1:

       Center              X                  Y                   Z               Mass
    ------------   -----------------  -----------------  -----------------  -----------------
         O            1.367092819294    -0.378482212912    -0.932449766263    15.994914619570
         O            3.207078819294     1.902741787088    -0.300118766263    15.994914619570
         O            2.804428819294    -2.747418212912    -0.400806766263    15.994914619570
         O           -1.357164180706     2.375533787088     0.154177233737    15.994914619570
         N           -0.793222180706     0.200946787088    -0.229861766263    14.003074004430
         N           -3.049150180706     0.806767787088     0.239406233737    14.003074004430
         N           -4.668388180706    -0.810906212912     0.412031233737    14.003074004430
         C            2.706616819294     0.877082787088     0.558868233737    12.000000000000
         C            1.241865819294     1.108754787088     0.887246233737    12.000000000000
         C            2.656840819294    -0.390762212912    -0.286075766263    12.000000000000
         C            0.578979819294     0.684532787088    -0.415521766263    12.000000000000
         C            2.807119819294    -1.658487212912     0.521864233737    12.000000000000
         C           -1.122315180706    -1.114290212912    -0.308881766263    12.000000000000
         C           -1.834700480706     1.176488987088     0.092903533737    12.000000000000
         C           -2.412285180706    -1.503032212912    -0.105147766263    12.000000000000
         C           -3.356970180706    -0.471631212912     0.167905233737    12.000000000000
         H            3.339402819294     0.758313787088     1.450247233737     1.007825032230
         H            0.909728819294     0.445357787088     1.692883233737     1.007825032230
         H            0.990350819294     2.135595787088     1.157541233737     1.007825032230
         H            0.532475819294     1.514782787088    -1.125518766263     1.007825032230
         H            3.422513819294    -0.362754212912    -1.067231766263     1.007825032230
         H            1.975770819294    -1.731655212912     1.242617233737     1.007825032230
         H            3.751110819294    -1.607986212912     1.087683233737     1.007825032230
         H            3.108872819294     2.747852787088     0.177377233737     1.007825032230
         H           -0.305718180706    -1.787672212912    -0.544303766263     1.007825032230
         H            2.915051819294    -3.563543212912     0.118606233737     1.007825032230
         H           -2.698446180706    -2.547555212912    -0.153855766263     1.007825032230
         H           -5.023689180706    -1.636213212912    -0.057324766263     1.007825032230
         H           -5.294449180706    -0.012269212912     0.385495233737     1.007825032230

  Basis Set: AUG-CC-PVTZ
    Blend: AUG-CC-PVTZ
  Basis Set: (AUG-CC-PVTZ AUX)
    Blend: AUG-CC-PVTZ-JKFIT
	 Reference Energy          =    -811.4643689027734581 [Eh]
	 Singles Energy            =      -0.0000000000000000 [Eh]
	 Same-Spin Energy          =      -0.8309326890938227 [Eh]
	 Opposite-Spin Energy      =      -2.5263419988486429 [Eh]
	 Correlation Energy        =      -3.3572746879424655 [Eh]
	 Total Energy              =    -814.8216435907158939 [Eh]

	 ================> DF-SCS-MP2 Energies <==================
	-----------------------------------------------------------
	 SCS Same-Spin Scale       =       0.3333333333333333 [-]
	 SCS Opposite-Spin Scale   =       1.2000000000000000 [-]
	 SCS Same-Spin Energy      =      -0.2769775630312742 [Eh]
	 SCS Opposite-Spin Energy  =      -3.0316103986183713 [Eh]
	 SCS Correlation Energy    =      -3.3085879616496454 [Eh]
	 SCS Total Energy          =    -814.7729568644231222 [Eh]
	-----------------------------------------------------------

  Dipole Moment: [D]
     X:     0.4767      Y:    -5.1712      Z:     2.5194     Total:     5.7720

*** Psi4 exiting successfully. Buy a developer a beer!
