                               Psi4 1.3.2 release

  ==> Input File <==

--------------------------------------------------------------------------
#psi4
#
memory 32 gb

molecule  {
0 1
  O        1.3620710    -0.3800110    -0.9318440
  O        3.2020570     1.9012130    -0.2995130
  O        2.7994070    -2.7489470    -0.4002010
  O       -1.3621860     2.3740050     0.1547830
  N       -0.7982440     0.1994180    -0.2292560
  N       -3.0541720     0.8052390     0.2400120
  N       -4.6734100    -0.8124350     0.4126370
  C        2.7015950     0.8755540     0.5594740
  C        1.2368440     1.1072260     0.8878520
  C        2.6485537    -0.4754603    -0.3408975
  C        0.5739580     0.6830040    -0.4149160
  C        2.8020980    -1.6600160     0.5224700
  C       -1.1273370    -1.1158190    -0.3082760
  C       -1.7446880     1.2038920     0.0820450
  C       -2.4173070    -1.5045610    -0.1045420
  C       -3.3619920    -0.4731600     0.1685110
  H        3.3343810     0.7567850     1.4508530
  H        0.9047070     0.4438290     1.6934890
  H        0.9853290     2.1340670     1.1581470
  H        0.5274540     1.5132540    -1.1249130
  H        3.4174920    -0.3642830    -1.0666260
  H        1.9707490    -1.7331840     1.2432230
  H        3.7460890    -1.6095150     1.0882890
  H        3.1038510     2.7463240     0.1779830
  H       -0.3107400    -1.7892010    -0.5436980
  H        2.9100300    -3.5650720     0.1192120
  H       -2.7034680    -2.5490840    -0.1532500
  H       -5.0287110    -1.6377420    -0.0567190
  H       -5.2994710    -0.0137980     0.3861010
units angstrom
no_reorient  #important for SAPT in psi4, default
symmetry c1  #important for SAPT in psi4, default
}

set PROPERTIES_ORIGIN ["COM"]
properties('MP2/aug-cc-pvtz', properties = ['dipole'])
--------------------------------------------------------------------------

    Molecular point group: c1
  Charge       = 0
  Multiplicity = 1
  Basis Set: AUG-CC-PVTZ
    Blend: AUG-CC-PVTZ
  Basis Set: (AUG-CC-PVTZ AUX)
    Blend: AUG-CC-PVTZ-JKFIT

    Orbital Energies [Eh]
    ---------------------

    Doubly Occupied:

       1A    -20.576495     2A    -20.572991     3A    -20.572463
       4A    -20.503228     5A    -15.622206     6A    -15.588545
       7A    -15.541064     8A    -11.370245     9A    -11.345269
      10A    -11.332516    11A    -11.318624    12A    -11.301052
      13A    -11.295073    14A    -11.292795    15A    -11.237308
      16A    -11.234968    17A     -1.418907    18A     -1.382634
      19A     -1.373216    20A     -1.365359    21A     -1.292596
      22A     -1.262140    23A     -1.169505    24A     -1.077229
      25A     -1.061605    26A     -1.031773    27A     -0.926667
      28A     -0.897862    29A     -0.864499    30A     -0.829139
      31A     -0.810449    32A     -0.754848    33A     -0.738309
      34A     -0.720899    35A     -0.705102    36A     -0.695206
      37A     -0.686804    38A     -0.678560    39A     -0.658441
      40A     -0.636252    41A     -0.627441    42A     -0.618125
      43A     -0.608260    44A     -0.597412    45A     -0.590836
      46A     -0.574891    47A     -0.569227    48A     -0.546852
      49A     -0.531061    50A     -0.523816    51A     -0.512725
      52A     -0.482773    53A     -0.470560    54A     -0.462226
      55A     -0.457329    56A     -0.445692    57A     -0.437878
      58A     -0.416601    59A     -0.383941    60A     -0.335139

  @DF-RHF Final Energy:  -811.47095325822318

   => Energetics <=

    Nuclear Repulsion Energy =           1169.3564595447744523
    One-Electron Energy =               -3433.7835666927126113
    Two-Electron Energy =                1452.9561538897148694
    Total Energy =                       -811.4709532582230622
  Basis Set: (AUG-CC-PVTZ AUX)
    Blend: AUG-CC-PVTZ-RI
    Molecular point group: c1

    Geometry (in Angstrom), charge = 0, multiplicity = 1:

       Center              X                  Y                   Z               Mass
    ------------   -----------------  -----------------  -----------------  -----------------
         O            1.362243530193    -0.375616176260    -0.928915046732    15.994914619570
         O            3.202229530193     1.905607823740    -0.296584046732    15.994914619570
         O            2.799579530193    -2.744552176260    -0.397272046732    15.994914619570
         O           -1.362013469807     2.378399823740     0.157711953268    15.994914619570
         N           -0.798071469807     0.203812823740    -0.226327046732    14.003074004430
         N           -3.053999469807     0.809633823740     0.242940953268    14.003074004430
         N           -4.673237469807    -0.808040176260     0.415565953268    14.003074004430
         C            2.701767530193     0.879948823740     0.562402953268    12.000000000000
         C            1.237016530193     1.111620823740     0.890780953268    12.000000000000
         C            2.648726230193    -0.471065476260    -0.337968546732    12.000000000000
         C            0.574130530193     0.687398823740    -0.411987046732    12.000000000000
         C            2.802270530193    -1.655621176260     0.525398953268    12.000000000000
         C           -1.127164469807    -1.111424176260    -0.305347046732    12.000000000000
         C           -1.744515469807     1.208286823740     0.084973953268    12.000000000000
         C           -2.417134469807    -1.500166176260    -0.101613046732    12.000000000000
         C           -3.361819469807    -0.468765176260     0.171439953268    12.000000000000
         H            3.334553530193     0.761179823740     1.453781953268     1.007825032230
         H            0.904879530193     0.448223823740     1.696417953268     1.007825032230
         H            0.985501530193     2.138461823740     1.161075953268     1.007825032230
         H            0.527626530193     1.517648823740    -1.121984046732     1.007825032230
         H            3.417664530193    -0.359888176260    -1.063697046732     1.007825032230
         H            1.970921530193    -1.728789176260     1.246151953268     1.007825032230
         H            3.746261530193    -1.605120176260     1.091217953268     1.007825032230
         H            3.104023530193     2.750718823740     0.180911953268     1.007825032230
         H           -0.310567469807    -1.784806176260    -0.540769046732     1.007825032230
         H            2.910202530193    -3.560677176260     0.122140953268     1.007825032230
         H           -2.703295469807    -2.544689176260    -0.150321046732     1.007825032230
         H           -5.028538469807    -1.633347176260    -0.053790046732     1.007825032230
         H           -5.299298469807    -0.009403176260     0.389029953268     1.007825032230

  Basis Set: AUG-CC-PVTZ
    Blend: AUG-CC-PVTZ
  Basis Set: (AUG-CC-PVTZ AUX)
    Blend: AUG-CC-PVTZ-JKFIT
	 Reference Energy          =    -811.4709532582231759 [Eh]
	 Singles Energy            =      -0.0000000000000000 [Eh]
	 Same-Spin Energy          =      -0.8296202367277572 [Eh]
	 Opposite-Spin Energy      =      -2.5250405068748405 [Eh]
	 Correlation Energy        =      -3.3546607436025977 [Eh]
	 Total Energy              =    -814.8256140018257838 [Eh]

	 ================> DF-SCS-MP2 Energies <==================
	-----------------------------------------------------------
	 SCS Same-Spin Scale       =       0.3333333333333333 [-]
	 SCS Opposite-Spin Scale   =       1.2000000000000000 [-]
	 SCS Same-Spin Energy      =      -0.2765400789092524 [Eh]
	 SCS Opposite-Spin Energy  =      -3.0300486082498086 [Eh]
	 SCS Correlation Energy    =      -3.3065886871590608 [Eh]
	 SCS Total Energy          =    -814.7775419453822678 [Eh]
	-----------------------------------------------------------

  Dipole Moment: [D]
     X:     1.0375      Y:    -4.7463      Z:     2.4422     Total:     5.4377

*** Psi4 exiting successfully. Buy a developer a beer!
