                               Psi4 1.3.2 release

  ==> Input File <==

--------------------------------------------------------------------------
#psi4
#
memory 32 gb

molecule  {
0 1
  O        1.3620710    -0.3800110    -0.9318440
  O        3.2020570     1.9012130    -0.2995130
  O        2.7994070    -2.7489470    -0.4002010
  O       -1.3621860     2.3740050     0.1547830
  N       -0.7982440     0.1994180    -0.2292560
  N       -3.0541720     0.8052390     0.2400120
  N       -4.6734100    -0.8124350     0.4126370
  C        2.7015950     0.8755540     0.5594740
  C        1.2368440     1.1072260     0.8878520
  C        2.6518190    -0.3922910    -0.2854700
  C        0.5699315     0.6949999    -0.4129892
  C        2.8020980    -1.6600160     0.5224700
  C       -1.1386484    -1.1130690    -0.3060516
  C       -1.7446880     1.2038920     0.0820450
  C       -2.4173070    -1.5045610    -0.1045420
  C       -3.3619920    -0.4731600     0.1685110
  H        3.3343810     0.7567850     1.4508530
  H        0.9047070     0.4438290     1.6934890
  H        0.9853290     2.1340670     1.1581470
  H        0.5274540     1.5132540    -1.1249130
  H        3.4174920    -0.3642830    -1.0666260
  H        1.9707490    -1.7331840     1.2432230
  H        3.7460890    -1.6095150     1.0882890
  H        3.1038510     2.7463240     0.1779830
  H       -0.3107400    -1.7892010    -0.5436980
  H        2.9100300    -3.5650720     0.1192120
  H       -2.7034680    -2.5490840    -0.1532500
  H       -5.0287110    -1.6377420    -0.0567190
  H       -5.2994710    -0.0137980     0.3861010
units angstrom
no_reorient  #important for SAPT in psi4, default
symmetry c1  #important for SAPT in psi4, default
}

set PROPERTIES_ORIGIN ["COM"]
properties('MP2/aug-cc-pvtz', properties = ['dipole'])
--------------------------------------------------------------------------

    Molecular point group: c1
  Charge       = 0
  Multiplicity = 1
  Basis Set: AUG-CC-PVTZ
    Blend: AUG-CC-PVTZ
  Basis Set: (AUG-CC-PVTZ AUX)
    Blend: AUG-CC-PVTZ-JKFIT

    Orbital Energies [Eh]
    ---------------------

    Doubly Occupied:

       1A    -20.577180     2A    -20.574248     3A    -20.571389
       4A    -20.503189     5A    -15.621267     6A    -15.588814
       7A    -15.540970     8A    -11.369636     9A    -11.345460
      10A    -11.330959    11A    -11.317382    12A    -11.300671
      13A    -11.296199    14A    -11.292053    15A    -11.236875
      16A    -11.236431    17A     -1.413394    18A     -1.382476
      19A     -1.373158    20A     -1.364367    21A     -1.292637
      22A     -1.261251    23A     -1.169372    24A     -1.080105
      25A     -1.069244    26A     -1.028440    27A     -0.926949
      28A     -0.895942    29A     -0.869018    30A     -0.831186
      31A     -0.805730    32A     -0.754738    33A     -0.738209
      34A     -0.720456    35A     -0.706331    36A     -0.692370
      37A     -0.689065    38A     -0.674942    39A     -0.655416
      40A     -0.637720    41A     -0.627725    42A     -0.618030
      43A     -0.603813    44A     -0.594591    45A     -0.587297
      46A     -0.574066    47A     -0.567714    48A     -0.544105
      49A     -0.532557    50A     -0.523346    51A     -0.511052
      52A     -0.484950    53A     -0.482446    54A     -0.467953
      55A     -0.460946    56A     -0.444770    57A     -0.438294
      58A     -0.416162    59A     -0.384234    60A     -0.336566

  @DF-RHF Final Energy:  -811.47908241578727

   => Energetics <=

    Nuclear Repulsion Energy =           1169.8798805219312271
    One-Electron Energy =               -3434.8462176665962033
    Two-Electron Energy =                1453.4872547288775877
    Total Energy =                       -811.4790824157873885
  Basis Set: (AUG-CC-PVTZ AUX)
    Blend: AUG-CC-PVTZ-RI
    Molecular point group: c1

    Geometry (in Angstrom), charge = 0, multiplicity = 1:

       Center              X                  Y                   Z               Mass
    ------------   -----------------  -----------------  -----------------  -----------------
         O            1.362881474680    -0.380790244977    -0.932063324914    15.994914619570
         O            3.202867474680     1.900433755023    -0.299732324914    15.994914619570
         O            2.800217474680    -2.749726244977    -0.400420324914    15.994914619570
         O           -1.361375525320     2.373225755023     0.154563675086    15.994914619570
         N           -0.797433525320     0.198638755023    -0.229475324914    14.003074004430
         N           -3.053361525320     0.804459755023     0.239792675086    14.003074004430
         N           -4.672599525320    -0.813214244977     0.412417675086    14.003074004430
         C            2.702405474680     0.874774755023     0.559254675086    12.000000000000
         C            1.237654474680     1.106446755023     0.887632675086    12.000000000000
         C            2.652629474680    -0.393070244977    -0.285689324914    12.000000000000
         C            0.570741974680     0.694220655023    -0.413208524914    12.000000000000
         C            2.802908474680    -1.660795244977     0.522250675086    12.000000000000
         C           -1.137837925320    -1.113848244977    -0.306270924914    12.000000000000
         C           -1.743877525320     1.203112755023     0.081825675086    12.000000000000
         C           -2.416496525320    -1.505340244977    -0.104761324914    12.000000000000
         C           -3.361181525320    -0.473939244977     0.168291675086    12.000000000000
         H            3.335191474680     0.756005755023     1.450633675086     1.007825032230
         H            0.905517474680     0.443049755023     1.693269675086     1.007825032230
         H            0.986139474680     2.133287755023     1.157927675086     1.007825032230
         H            0.528264474680     1.512474755023    -1.125132324914     1.007825032230
         H            3.418302474680    -0.365062244977    -1.066845324914     1.007825032230
         H            1.971559474680    -1.733963244977     1.243003675086     1.007825032230
         H            3.746899474680    -1.610294244977     1.088069675086     1.007825032230
         H            3.104661474680     2.745544755023     0.177763675086     1.007825032230
         H           -0.309929525320    -1.789980244977    -0.543917324914     1.007825032230
         H            2.910840474680    -3.565851244977     0.118992675086     1.007825032230
         H           -2.702657525320    -2.549863244977    -0.153469324914     1.007825032230
         H           -5.027900525320    -1.638521244977    -0.056938324914     1.007825032230
         H           -5.298660525320    -0.014577244977     0.385881675086     1.007825032230

  Basis Set: AUG-CC-PVTZ
    Blend: AUG-CC-PVTZ
  Basis Set: (AUG-CC-PVTZ AUX)
    Blend: AUG-CC-PVTZ-JKFIT
	 Reference Energy          =    -811.4790824157872748 [Eh]
	 Singles Energy            =      -0.0000000000000000 [Eh]
	 Same-Spin Energy          =      -0.8295651219349189 [Eh]
	 Opposite-Spin Energy      =      -2.5251292087582851 [Eh]
	 Correlation Energy        =      -3.3546943306932038 [Eh]
	 Total Energy              =    -814.8337767464804529 [Eh]

	 ================> DF-SCS-MP2 Energies <==================
	-----------------------------------------------------------
	 SCS Same-Spin Scale       =       0.3333333333333333 [-]
	 SCS Opposite-Spin Scale   =       1.2000000000000000 [-]
	 SCS Same-Spin Energy      =      -0.2765217073116396 [Eh]
	 SCS Opposite-Spin Energy  =      -3.0301550505099422 [Eh]
	 SCS Correlation Energy    =      -3.3066767578215819 [Eh]
	 SCS Total Energy          =    -814.7857591736088807 [Eh]
	-----------------------------------------------------------

  Dipole Moment: [D]
     X:     1.0125      Y:    -4.6530      Z:     2.4983     Total:     5.3774

*** Psi4 exiting successfully. Buy a developer a beer!
