                               Psi4 1.3.2 release

  ==> Input File <==

--------------------------------------------------------------------------
#psi4
#
memory 32 gb

molecule  {
0 1
  O        1.3620710    -0.3800110    -0.9318440
  O        3.2020570     1.9012130    -0.2995130
  O        2.7994070    -2.7489470    -0.4002010
  O       -1.3621860     2.3740050     0.1547830
  N       -0.7982440     0.1994180    -0.2292560
  N       -3.0541720     0.8052390     0.2400120
  N       -4.6734100    -0.8124350     0.4126370
  C        2.7015950     0.8755540     0.5594740
  C        1.2426511     1.1058169     0.9136789
  C        2.6518190    -0.3922910    -0.2854700
  C        0.5739580     0.6830040    -0.4149160
  C        2.8020980    -1.6600160     0.5224700
  C       -1.1273370    -1.1158190    -0.3082760
  C       -1.7446880     1.2038920     0.0820450
  C       -2.4173070    -1.5045610    -0.1045420
  C       -3.3619920    -0.4731600     0.1685110
  H        3.3188941     0.7590966     1.4619485
  H        0.9047070     0.4438290     1.6934890
  H        0.9853290     2.1340670     1.1581470
  H        0.5274540     1.5132540    -1.1249130
  H        3.4174920    -0.3642830    -1.0666260
  H        1.9707490    -1.7331840     1.2432230
  H        3.7460890    -1.6095150     1.0882890
  H        3.1038510     2.7463240     0.1779830
  H       -0.3107400    -1.7892010    -0.5436980
  H        2.9100300    -3.5650720     0.1192120
  H       -2.7034680    -2.5490840    -0.1532500
  H       -5.0287110    -1.6377420    -0.0567190
  H       -5.2994710    -0.0137980     0.3861010
units angstrom
no_reorient  #important for SAPT in psi4, default
symmetry c1  #important for SAPT in psi4, default
}

set PROPERTIES_ORIGIN ["COM"]
properties('MP2/aug-cc-pvtz', properties = ['dipole'])
--------------------------------------------------------------------------

    Molecular point group: c1
  Charge       = 0
  Multiplicity = 1
  Basis Set: AUG-CC-PVTZ
    Blend: AUG-CC-PVTZ
  Basis Set: (AUG-CC-PVTZ AUX)
    Blend: AUG-CC-PVTZ-JKFIT

    Orbital Energies [Eh]
    ---------------------

    Doubly Occupied:

       1A    -20.577813     2A    -20.575204     3A    -20.572935
       4A    -20.502927     5A    -15.621582     6A    -15.588262
       7A    -15.540703     8A    -11.369740     9A    -11.344912
      10A    -11.331463    11A    -11.318119    12A    -11.300879
      13A    -11.296959    14A    -11.293316    15A    -11.236908
      16A    -11.236040    17A     -1.416037    18A     -1.382318
      19A     -1.373715    20A     -1.365765    21A     -1.292094
      22A     -1.261217    23A     -1.168925    24A     -1.077743
      25A     -1.068980    26A     -1.026588    27A     -0.926349
      28A     -0.897390    29A     -0.869078    30A     -0.831637
      31A     -0.805715    32A     -0.754094    33A     -0.737967
      34A     -0.720675    35A     -0.706703    36A     -0.692518
      37A     -0.689833    38A     -0.675984    39A     -0.656445
      40A     -0.637137    41A     -0.627593    42A     -0.618849
      43A     -0.604916    44A     -0.595071    45A     -0.588058
      46A     -0.571361    47A     -0.569255    48A     -0.545706
      49A     -0.533603    50A     -0.524087    51A     -0.510317
      52A     -0.486984    53A     -0.481896    54A     -0.468818
      55A     -0.460419    56A     -0.443720    57A     -0.437179
      58A     -0.416228    59A     -0.383297    60A     -0.334538

  @DF-RHF Final Energy:  -811.47868981243096

   => Energetics <=

    Nuclear Repulsion Energy =           1169.4719556693210052
    One-Electron Energy =               -3434.0121724145183180
    Two-Electron Energy =                1453.0615269327665828
    Total Energy =                       -811.4786898124309573
  Basis Set: (AUG-CC-PVTZ AUX)
    Blend: AUG-CC-PVTZ-RI
    Molecular point group: c1

    Geometry (in Angstrom), charge = 0, multiplicity = 1:

       Center              X                  Y                   Z               Mass
    ------------   -----------------  -----------------  -----------------  -----------------
         O            1.361832853961    -0.379946835753    -0.933257961397    15.994914619570
         O            3.201818853961     1.901277164247    -0.300926961397    15.994914619570
         O            2.799168853961    -2.748882835753    -0.401614961397    15.994914619570
         O           -1.362424146039     2.374069164247     0.153369038603    15.994914619570
         N           -0.798482146039     0.199482164247    -0.230669961397    14.003074004430
         N           -3.054410146039     0.805303164247     0.238598038603    14.003074004430
         N           -4.673648146039    -0.812370835753     0.411223038603    14.003074004430
         C            2.701356853961     0.875618164247     0.558060038603    12.000000000000
         C            1.242412953961     1.105881064247     0.912264938603    12.000000000000
         C            2.651580853961    -0.392226835753    -0.286883961397    12.000000000000
         C            0.573719853961     0.683068164247    -0.416329961397    12.000000000000
         C            2.801859853961    -1.659951835753     0.521056038603    12.000000000000
         C           -1.127575146039    -1.115754835753    -0.309689961397    12.000000000000
         C           -1.744926146039     1.203956164247     0.080631038603    12.000000000000
         C           -2.417545146039    -1.504496835753    -0.105955961397    12.000000000000
         C           -3.362230146039    -0.473095835753     0.167097038603    12.000000000000
         H            3.318655953961     0.759160764247     1.460534538603     1.007825032230
         H            0.904468853961     0.443893164247     1.692075038603     1.007825032230
         H            0.985090853961     2.134131164247     1.156733038603     1.007825032230
         H            0.527215853961     1.513318164247    -1.126326961397     1.007825032230
         H            3.417253853961    -0.364218835753    -1.068039961397     1.007825032230
         H            1.970510853961    -1.733119835753     1.241809038603     1.007825032230
         H            3.745850853961    -1.609450835753     1.086875038603     1.007825032230
         H            3.103612853961     2.746388164247     0.176569038603     1.007825032230
         H           -0.310978146039    -1.789136835753    -0.545111961397     1.007825032230
         H            2.909791853961    -3.565007835753     0.117798038603     1.007825032230
         H           -2.703706146039    -2.549019835753    -0.154663961397     1.007825032230
         H           -5.028949146039    -1.637677835753    -0.058132961397     1.007825032230
         H           -5.299709146039    -0.013733835753     0.384687038603     1.007825032230

  Basis Set: AUG-CC-PVTZ
    Blend: AUG-CC-PVTZ
  Basis Set: (AUG-CC-PVTZ AUX)
    Blend: AUG-CC-PVTZ-JKFIT
	 Reference Energy          =    -811.4786898124309573 [Eh]
	 Singles Energy            =      -0.0000000000000000 [Eh]
	 Same-Spin Energy          =      -0.8295985070436422 [Eh]
	 Opposite-Spin Energy      =      -2.5251825081122430 [Eh]
	 Correlation Energy        =      -3.3547810151558854 [Eh]
	 Total Energy              =    -814.8334708275868934 [Eh]

	 ================> DF-SCS-MP2 Energies <==================
	-----------------------------------------------------------
	 SCS Same-Spin Scale       =       0.3333333333333333 [-]
	 SCS Opposite-Spin Scale   =       1.2000000000000000 [-]
	 SCS Same-Spin Energy      =      -0.2765328356812141 [Eh]
	 SCS Opposite-Spin Energy  =      -3.0302190097346915 [Eh]
	 SCS Correlation Energy    =      -3.3067518454159055 [Eh]
	 SCS Total Energy          =    -814.7854416578468317 [Eh]
	-----------------------------------------------------------

  Dipole Moment: [D]
     X:     1.0784      Y:    -4.6789      Z:     2.4810     Total:     5.4047

*** Psi4 exiting successfully. Buy a developer a beer!
