                               Psi4 1.3.2 release

  ==> Input File <==

--------------------------------------------------------------------------
#psi4
#
memory 32 gb

molecule  {
0 1
  O        1.3620710    -0.3800110    -0.9318440
  O        3.2020570     1.9012130    -0.2995130
  O        2.7994070    -2.7489470    -0.4002010
  O       -1.3621860     2.3740050     0.1547830
  N       -0.7982440     0.1994180    -0.2292560
  N       -3.0541720     0.8052390     0.2400120
  N       -4.6734100    -0.8124350     0.4126370
  C        2.7015950     0.8755540     0.5594740
  C        1.2221063     1.1110281     0.8098029
  C        2.6518190    -0.3922910    -0.2854700
  C        0.5739580     0.6830040    -0.4149160
  C        2.8020980    -1.6600160     0.5224700
  C       -1.1273370    -1.1158190    -0.3082760
  C       -1.7446880     1.2038920     0.0820450
  C       -2.4173070    -1.5045610    -0.1045420
  C       -3.3619920    -0.4731600     0.1685110
  H        3.3796666     0.7500700     1.4159513
  H        0.9047070     0.4438290     1.6934890
  H        0.9853290     2.1340670     1.1581470
  H        0.5274540     1.5132540    -1.1249130
  H        3.4174920    -0.3642830    -1.0666260
  H        1.9707490    -1.7331840     1.2432230
  H        3.7460890    -1.6095150     1.0882890
  H        3.1038510     2.7463240     0.1779830
  H       -0.3107400    -1.7892010    -0.5436980
  H        2.9100300    -3.5650720     0.1192120
  H       -2.7034680    -2.5490840    -0.1532500
  H       -5.0287110    -1.6377420    -0.0567190
  H       -5.2994710    -0.0137980     0.3861010
units angstrom
no_reorient  #important for SAPT in psi4, default
symmetry c1  #important for SAPT in psi4, default
}

set PROPERTIES_ORIGIN ["COM"]
properties('MP2/aug-cc-pvtz', properties = ['dipole'])
--------------------------------------------------------------------------

    Molecular point group: c1
  Charge       = 0
  Multiplicity = 1
  Basis Set: AUG-CC-PVTZ
    Blend: AUG-CC-PVTZ
  Basis Set: (AUG-CC-PVTZ AUX)
    Blend: AUG-CC-PVTZ-JKFIT

    Orbital Energies [Eh]
    ---------------------

    Doubly Occupied:

       1A    -20.577577     2A    -20.572814     3A    -20.571906
       4A    -20.503368     5A    -15.622257     6A    -15.588592
       7A    -15.541041     8A    -11.370315     9A    -11.345353
      10A    -11.328192    11A    -11.318751    12A    -11.301333
      13A    -11.296589    14A    -11.292429    15A    -11.240148
      16A    -11.237325    17A     -1.418883    18A     -1.382778
      19A     -1.373264    20A     -1.365643    21A     -1.292585
      22A     -1.262035    23A     -1.169666    24A     -1.084162
      25A     -1.068776    26A     -1.032500    27A     -0.928305
      28A     -0.897718    29A     -0.869072    30A     -0.828124
      31A     -0.808629    32A     -0.754711    33A     -0.741262
      34A     -0.721962    35A     -0.707284    36A     -0.693763
      37A     -0.687654    38A     -0.675288    39A     -0.657589
      40A     -0.639265    41A     -0.627643    42A     -0.616910
      43A     -0.603831    44A     -0.595986    45A     -0.591091
      46A     -0.577000    47A     -0.567628    48A     -0.543263
      49A     -0.530516    50A     -0.523975    51A     -0.504874
      52A     -0.484138    53A     -0.479991    54A     -0.466811
      55A     -0.462521    56A     -0.445993    57A     -0.438794
      58A     -0.416508    59A     -0.384744    60A     -0.335895

  @DF-RHF Final Energy:  -811.47136771187195

   => Energetics <=

    Nuclear Repulsion Energy =           1171.3545011225335202
    One-Electron Energy =               -3437.7176967640193652
    Two-Electron Energy =                1454.8918279296137825
    Total Energy =                       -811.4713677118718351
  Basis Set: (AUG-CC-PVTZ AUX)
    Blend: AUG-CC-PVTZ-RI
    Molecular point group: c1

    Geometry (in Angstrom), charge = 0, multiplicity = 1:

       Center              X                  Y                   Z               Mass
    ------------   -----------------  -----------------  -----------------  -----------------
         O            1.362648781826    -0.380182147850    -0.927564775083    15.994914619570
         O            3.202634781826     1.901041852150    -0.295233775083    15.994914619570
         O            2.799984781826    -2.749118147850    -0.395921775083    15.994914619570
         O           -1.361608218174     2.373833852150     0.159062224917    15.994914619570
         N           -0.797666218174     0.199246852150    -0.224976775083    14.003074004430
         N           -3.053594218174     0.805067852150     0.244291224917    14.003074004430
         N           -4.672832218174    -0.812606147850     0.416916224917    14.003074004430
         C            2.702172781826     0.875382852150     0.563753224917    12.000000000000
         C            1.222684081826     1.110856952150     0.814082124917    12.000000000000
         C            2.652396781826    -0.392462147850    -0.281190775083    12.000000000000
         C            0.574535781826     0.682832852150    -0.410636775083    12.000000000000
         C            2.802675781826    -1.660187147850     0.526749224917    12.000000000000
         C           -1.126759218174    -1.115990147850    -0.303996775083    12.000000000000
         C           -1.744110218174     1.203720852150     0.086324224917    12.000000000000
         C           -2.416729218174    -1.504732147850    -0.100262775083    12.000000000000
         C           -3.361414218174    -0.473331147850     0.172790224917    12.000000000000
         H            3.380244381826     0.749898852150     1.420230524917     1.007825032230
         H            0.905284781826     0.443657852150     1.697768224917     1.007825032230
         H            0.985906781826     2.133895852150     1.162426224917     1.007825032230
         H            0.528031781826     1.513082852150    -1.120633775083     1.007825032230
         H            3.418069781826    -0.364454147850    -1.062346775083     1.007825032230
         H            1.971326781826    -1.733355147850     1.247502224917     1.007825032230
         H            3.746666781826    -1.609686147850     1.092568224917     1.007825032230
         H            3.104428781826     2.746152852150     0.182262224917     1.007825032230
         H           -0.310162218174    -1.789372147850    -0.539418775083     1.007825032230
         H            2.910607781826    -3.565243147850     0.123491224917     1.007825032230
         H           -2.702890218174    -2.549255147850    -0.148970775083     1.007825032230
         H           -5.028133218174    -1.637913147850    -0.052439775083     1.007825032230
         H           -5.298893218174    -0.013969147850     0.390380224917     1.007825032230

  Basis Set: AUG-CC-PVTZ
    Blend: AUG-CC-PVTZ
  Basis Set: (AUG-CC-PVTZ AUX)
    Blend: AUG-CC-PVTZ-JKFIT
	 Reference Energy          =    -811.4713677118719488 [Eh]
	 Singles Energy            =      -0.0000000000000000 [Eh]
	 Same-Spin Energy          =      -0.8302559936629781 [Eh]
	 Opposite-Spin Energy      =      -2.5257723569342327 [Eh]
	 Correlation Energy        =      -3.3560283505972111 [Eh]
	 Total Energy              =    -814.8273960624691199 [Eh]

	 ================> DF-SCS-MP2 Energies <==================
	-----------------------------------------------------------
	 SCS Same-Spin Scale       =       0.3333333333333333 [-]
	 SCS Opposite-Spin Scale   =       1.2000000000000000 [-]
	 SCS Same-Spin Energy      =      -0.2767519978876594 [Eh]
	 SCS Opposite-Spin Energy  =      -3.0309268283210793 [Eh]
	 SCS Correlation Energy    =      -3.3076788262087389 [Eh]
	 SCS Total Energy          =    -814.7790465380807063 [Eh]
	-----------------------------------------------------------

  Dipole Moment: [D]
     X:     1.0676      Y:    -4.6768      Z:     2.5060     Total:     5.4122

*** Psi4 exiting successfully. Buy a developer a beer!
