                               Psi4 1.4a3.dev225

  ==> Input File <==

--------------------------------------------------------------------------
#psi4
#
memory 32 gb

molecule  {
0 1
  O       -1.4695130     0.3030610    -1.0874480
  O       -3.6436400    -1.4204040    -0.2669360
  O       -1.6911330     2.8536240     0.0000030
  O        1.1857770    -2.4961310     0.0874550
  N        0.6842480    -0.3150290    -0.3399290
  N        2.9133760    -0.9647370     0.2108410
  N        4.5636770     0.6178870     0.3785230
  C       -2.7686820    -0.6858470     0.5863090
  C       -1.3787780    -1.3118450     0.6568060
  C       -2.4925280     0.6283540    -0.1295840
  C       -0.6939390    -0.7805590    -0.6115670
  C       -2.0414120     1.7324860     0.8087370
  C        1.0545030     0.9838330    -0.4888120
  C        1.6080830    -1.3384950     0.0010630
  C        2.3487550     1.3478080    -0.2622830
  C        3.2578570     0.3046130     0.0876290
  H       -3.2188600    -0.5381750     1.5798200
  H       -0.8341690    -0.9801840     1.5464130
  H       -1.3950130    -2.4033150     0.6754970
  H       -0.6263030    -1.5384450    -1.3968420
  H       -3.3591510     0.9641520    -0.7058050
  H       -1.1849610     1.3939850     1.4098140
  H       -2.8667900     1.9743150     1.4948250
  H       -3.6905400    -2.3294490     0.0774600
  H        0.2668220     1.6750250    -0.7707300
  H       -1.4321050     3.5760960     0.5972330
  H        2.6678964     2.4000377    -0.3614393
  H        4.9550500     1.4416620    -0.0591730
  H        5.1797170    -0.1867780     0.4106900
units angstrom
no_reorient  #important for SAPT in psi4, default
symmetry c1  #important for SAPT in psi4, default
}

set PROPERTIES_ORIGIN ["COM"]
properties('MP2/aug-cc-pvtz', properties = ['dipole'])
--------------------------------------------------------------------------

    Molecular point group: c1
  Charge       = 0
  Multiplicity = 1
  Basis Set: AUG-CC-PVTZ
    Blend: AUG-CC-PVTZ
  Basis Set: (AUG-CC-PVTZ AUX)
    Blend: AUG-CC-PVTZ-JKFIT

    Orbital Energies [Eh]
    ---------------------

    Doubly Occupied:

       1A    -20.583570     2A    -20.574437     3A    -20.572660
       4A    -20.501929     5A    -15.619151     6A    -15.588876
       7A    -15.539955     8A    -11.368827     9A    -11.345993
      10A    -11.333193    11A    -11.314689    12A    -11.300248
      13A    -11.299524    14A    -11.294768    15A    -11.237555
      16A    -11.237268    17A     -1.418882    18A     -1.381715
      19A     -1.377567    20A     -1.366118    21A     -1.290287
      22A     -1.258662    23A     -1.168528    24A     -1.076109
      25A     -1.067578    26A     -1.024560    27A     -0.930058
      28A     -0.894901    29A     -0.867705    30A     -0.830027
      31A     -0.805085    32A     -0.753709    33A     -0.737088
      34A     -0.725250    35A     -0.707339    36A     -0.701998
      37A     -0.690266    38A     -0.673006    39A     -0.650621
      40A     -0.641171    41A     -0.622586    42A     -0.616458
      43A     -0.606678    44A     -0.595640    45A     -0.587519
      46A     -0.571950    47A     -0.565821    48A     -0.551262
      49A     -0.526756    50A     -0.520525    51A     -0.510866
      52A     -0.485111    53A     -0.480800    54A     -0.472406
      55A     -0.459487    56A     -0.448263    57A     -0.440741
      58A     -0.413648    59A     -0.382462    60A     -0.333968

  @DF-RHF Final Energy:  -811.47857800606084

   => Energetics <=

    Nuclear Repulsion Energy =           1185.0293486244540873
    One-Electron Energy =               -3465.1282087685408442
    Two-Electron Energy =                1468.6202821380259138
    Total Energy =                       -811.4785780060608431
  Basis Set: (AUG-CC-PVTZ AUX)
    Blend: AUG-CC-PVTZ-RI
    Molecular point group: c1

    Geometry (in Angstrom), charge = 0, multiplicity = 1:

       Center              X                  Y                   Z               Mass
    ------------   -----------------  -----------------  -----------------  -----------------
         O           -1.493997911204     0.326691813543    -1.067812742174    15.994914619570
         O           -3.668124911204    -1.396773186457    -0.247300742174    15.994914619570
         O           -1.715617911204     2.877254813543     0.019638257826    15.994914619570
         O            1.161292088796    -2.472500186457     0.107090257826    15.994914619570
         N            0.659763088796    -0.291398186457    -0.320293742174    14.003074004430
         N            2.888891088796    -0.941106186457     0.230476257826    14.003074004430
         N            4.539192088796     0.641517813543     0.398158257826    14.003074004430
         C           -2.793166911204    -0.662216186457     0.605944257826    12.000000000000
         C           -1.403262911204    -1.288214186457     0.676441257826    12.000000000000
         C           -2.517012911204     0.651984813543    -0.109948742174    12.000000000000
         C           -0.718423911204    -0.756928186457    -0.591931742174    12.000000000000
         C           -2.065896911204     1.756116813543     0.828372257826    12.000000000000
         C            1.030018088796     1.007463813543    -0.469176742174    12.000000000000
         C            1.583598088796    -1.314864186457     0.020698257826    12.000000000000
         C            2.324270088796     1.371438813543    -0.242647742174    12.000000000000
         C            3.233372088796     0.328243813543     0.107264257826    12.000000000000
         H           -3.243344911204    -0.514544186457     1.599455257826     1.007825032230
         H           -0.858653911204    -0.956553186457     1.566048257826     1.007825032230
         H           -1.419497911204    -2.379684186457     0.695132257826     1.007825032230
         H           -0.650787911204    -1.514814186457    -1.377206742174     1.007825032230
         H           -3.383635911204     0.987782813543    -0.686169742174     1.007825032230
         H           -1.209445911204     1.417615813543     1.429449257826     1.007825032230
         H           -2.891274911204     1.997945813543     1.514460257826     1.007825032230
         H           -3.715024911204    -2.305818186457     0.097095257826     1.007825032230
         H            0.242337088796     1.698655813543    -0.751094742174     1.007825032230
         H           -1.456589911204     3.599726813543     0.616868257826     1.007825032230
         H            2.643411488796     2.423668513543    -0.341804042174     1.007825032230
         H            4.930565088796     1.465292813543    -0.039537742174     1.007825032230
         H            5.155232088796    -0.163147186457     0.430325257826     1.007825032230

  Basis Set: AUG-CC-PVTZ
    Blend: AUG-CC-PVTZ
  Basis Set: (AUG-CC-PVTZ AUX)
    Blend: AUG-CC-PVTZ-JKFIT
	 Reference Energy          =    -811.4785780060608431 [Eh]
	 Singles Energy            =      -0.0000000000000000 [Eh]
	 Same-Spin Energy          =      -0.8308392962985520 [Eh]
	 Opposite-Spin Energy      =      -2.5271590508155466 [Eh]
	 Correlation Energy        =      -3.3579983471140986 [Eh]
	 Total Energy              =    -814.8365763531749053 [Eh]

	 ================> DF-SCS-MP2 Energies <==================
	-----------------------------------------------------------
	 SCS Same-Spin Scale       =       0.3333333333333333 [-]
	 SCS Opposite-Spin Scale   =       1.2000000000000000 [-]
	 SCS Same-Spin Energy      =      -0.2769464320995173 [Eh]
	 SCS Opposite-Spin Energy  =      -3.0325908609786558 [Eh]
	 SCS Correlation Energy    =      -3.3095372930781730 [Eh]
	 SCS Total Energy          =    -814.7881152991390081 [Eh]
	-----------------------------------------------------------

  Dipole Moment: [D]
     X:    -0.3303      Y:     4.5958      Z:     2.4086     Total:     5.1992

*** Psi4 exiting successfully. Buy a developer a beer!
