                               Psi4 1.3.2 release

  ==> Input File <==

--------------------------------------------------------------------------
#psi4
#
memory 32 gb

molecule  {
0 1
  O        1.3620710    -0.3800110    -0.9318440
  O        3.2020570     1.9012130    -0.2995130
  O        2.7994070    -2.7489470    -0.4002010
  O       -1.3621860     2.3740050     0.1547830
  N       -0.7982440     0.1994180    -0.2292560
  N       -3.0541720     0.8052390     0.2400120
  N       -4.6734100    -0.8124350     0.4126370
  C        2.7015950     0.8755540     0.5594740
  C        1.2368440     1.1072260     0.8878520
  C        2.6518190    -0.3922910    -0.2854700
  C        0.5739580     0.6830040    -0.4149160
  C        2.8020980    -1.6600160     0.5224700
  C       -1.1273370    -1.1158190    -0.3082760
  C       -1.7446880     1.2038920     0.0820450
  C       -2.4173070    -1.5045610    -0.1045420
  C       -3.3799257    -0.4903162     0.1701367
  H        3.3343810     0.7567850     1.4508530
  H        0.9047070     0.4438290     1.6934890
  H        0.9853290     2.1340670     1.1581470
  H        0.5274540     1.5132540    -1.1249130
  H        3.4174920    -0.3642830    -1.0666260
  H        1.9707490    -1.7331840     1.2432230
  H        3.7460890    -1.6095150     1.0882890
  H        3.1038510     2.7463240     0.1779830
  H       -0.3107400    -1.7892010    -0.5436980
  H        2.9100300    -3.5650720     0.1192120
  H       -2.7213549    -2.5441873    -0.1494971
  H       -5.0287110    -1.6377420    -0.0567190
  H       -5.2994710    -0.0137980     0.3861010
units angstrom
no_reorient  #important for SAPT in psi4, default
symmetry c1  #important for SAPT in psi4, default
}

set PROPERTIES_ORIGIN ["COM"]
properties('MP2/aug-cc-pvtz', properties = ['dipole'])
--------------------------------------------------------------------------

    Molecular point group: c1
  Charge       = 0
  Multiplicity = 1
  Basis Set: AUG-CC-PVTZ
    Blend: AUG-CC-PVTZ
  Basis Set: (AUG-CC-PVTZ AUX)
    Blend: AUG-CC-PVTZ-JKFIT

    Orbital Energies [Eh]
    ---------------------

    Doubly Occupied:

       1A    -20.577486     2A    -20.573868     3A    -20.572342
       4A    -20.500466     5A    -15.620840     6A    -15.592653
       7A    -15.538527     8A    -11.367504     9A    -11.346024
      10A    -11.329964    11A    -11.318951    12A    -11.300350
      13A    -11.296535    14A    -11.292635    15A    -11.236983
      16A    -11.236121    17A     -1.415946    18A     -1.380318
      19A     -1.373225    20A     -1.364929    21A     -1.292370
      22A     -1.264062    23A     -1.166699    24A     -1.078121
      25A     -1.068155    26A     -1.027574    27A     -0.926751
      28A     -0.897216    29A     -0.867434    30A     -0.830306
      31A     -0.806070    32A     -0.755770    33A     -0.737741
      34A     -0.720714    35A     -0.710836    36A     -0.692967
      37A     -0.689529    38A     -0.676196    39A     -0.656505
      40A     -0.635771    41A     -0.626471    42A     -0.618172
      43A     -0.603752    44A     -0.596253    45A     -0.586821
      46A     -0.572670    47A     -0.568416    48A     -0.544774
      49A     -0.534336    50A     -0.523058    51A     -0.510669
      52A     -0.485363    53A     -0.480934    54A     -0.468166
      55A     -0.460628    56A     -0.442323    57A     -0.435751
      58A     -0.413651    59A     -0.380511    60A     -0.334092

  @DF-RHF Final Energy:  -811.47793834504591

   => Energetics <=

    Nuclear Repulsion Energy =           1169.5942473477368821
    One-Electron Energy =               -3434.2978354549641153
    Two-Electron Energy =                1453.2256497621810922
    Total Energy =                       -811.4779383450459136
  Basis Set: (AUG-CC-PVTZ AUX)
    Blend: AUG-CC-PVTZ-RI
    Molecular point group: c1

    Geometry (in Angstrom), charge = 0, multiplicity = 1:

       Center              X                  Y                   Z               Mass
    ------------   -----------------  -----------------  -----------------  -----------------
         O            1.363098024657    -0.379126194711    -0.931946526893    15.994914619570
         O            3.203084024657     1.902097805289    -0.299615526893    15.994914619570
         O            2.800434024657    -2.748062194711    -0.400303526893    15.994914619570
         O           -1.361158975343     2.374889805289     0.154680473107    15.994914619570
         N           -0.797216975343     0.200302805289    -0.229358526893    14.003074004430
         N           -3.053144975343     0.806123805289     0.239909473107    14.003074004430
         N           -4.672382975343    -0.811550194711     0.412534473107    14.003074004430
         C            2.702622024657     0.876438805289     0.559371473107    12.000000000000
         C            1.237871024657     1.108110805289     0.887749473107    12.000000000000
         C            2.652846024657    -0.391406194711    -0.285572526893    12.000000000000
         C            0.574985024657     0.683888805289    -0.415018526893    12.000000000000
         C            2.803125024657    -1.659131194711     0.522367473107    12.000000000000
         C           -1.126309975343    -1.114934194711    -0.308378526893    12.000000000000
         C           -1.743660975343     1.204776805289     0.081942473107    12.000000000000
         C           -2.416279975343    -1.503676194711    -0.104644526893    12.000000000000
         C           -3.378898675343    -0.489431394711     0.170034173107    12.000000000000
         H            3.335408024657     0.757669805289     1.450750473107     1.007825032230
         H            0.905734024657     0.444713805289     1.693386473107     1.007825032230
         H            0.986356024657     2.134951805289     1.158044473107     1.007825032230
         H            0.528481024657     1.514138805289    -1.125015526893     1.007825032230
         H            3.418519024657    -0.363398194711    -1.066728526893     1.007825032230
         H            1.971776024657    -1.732299194711     1.243120473107     1.007825032230
         H            3.747116024657    -1.608630194711     1.088186473107     1.007825032230
         H            3.104878024657     2.747208805289     0.177880473107     1.007825032230
         H           -0.309712975343    -1.788316194711    -0.543800526893     1.007825032230
         H            2.911057024657    -3.564187194711     0.119109473107     1.007825032230
         H           -2.720327875343    -2.543302494711    -0.149599626893     1.007825032230
         H           -5.027683975343    -1.636857194711    -0.056821526893     1.007825032230
         H           -5.298443975343    -0.012913194711     0.385998473107     1.007825032230

  Basis Set: AUG-CC-PVTZ
    Blend: AUG-CC-PVTZ
  Basis Set: (AUG-CC-PVTZ AUX)
    Blend: AUG-CC-PVTZ-JKFIT
	 Reference Energy          =    -811.4779383450459136 [Eh]
	 Singles Energy            =      -0.0000000000000000 [Eh]
	 Same-Spin Energy          =      -0.8299006788636605 [Eh]
	 Opposite-Spin Energy      =      -2.5253779791083160 [Eh]
	 Correlation Energy        =      -3.3552786579719767 [Eh]
	 Total Energy              =    -814.8332170030179213 [Eh]

	 ================> DF-SCS-MP2 Energies <==================
	-----------------------------------------------------------
	 SCS Same-Spin Scale       =       0.3333333333333333 [-]
	 SCS Opposite-Spin Scale   =       1.2000000000000000 [-]
	 SCS Same-Spin Energy      =      -0.2766335596212202 [Eh]
	 SCS Opposite-Spin Energy  =      -3.0304535749299792 [Eh]
	 SCS Correlation Energy    =      -3.3070871345511996 [Eh]
	 SCS Total Energy          =    -814.7850254795971523 [Eh]
	-----------------------------------------------------------

  Dipole Moment: [D]
     X:     0.8834      Y:    -4.7913      Z:     2.5124     Total:     5.4817

*** Psi4 exiting successfully. Buy a developer a beer!
