                               Psi4 1.3.2 release

  ==> Input File <==

--------------------------------------------------------------------------
#psi4
#
memory 32 gb

molecule  {
0 1
  O        1.3620710    -0.3800110    -0.9318440
  O        3.2020570     1.9012130    -0.2995130
  O        2.7994070    -2.7489470    -0.4002010
  O       -1.3621860     2.3740050     0.1547830
  N       -0.7982440     0.1994180    -0.2292560
  N       -3.0541720     0.8052390     0.2400120
  N       -4.6734100    -0.8124350     0.4126370
  C        2.7015950     0.8755540     0.5594740
  C        1.2368440     1.1072260     0.8878520
  C        2.6518190    -0.3922910    -0.2854700
  C        0.5739580     0.6830040    -0.4149160
  C        2.8020980    -1.6600160     0.5224700
  C       -1.1273370    -1.1158190    -0.3082760
  C       -1.7446880     1.2038920     0.0820450
  C       -2.4173070    -1.5045610    -0.1045420
  C       -3.4087419    -0.6673159     0.1576518
  H        3.3343810     0.7567850     1.4508530
  H        0.9047070     0.4438290     1.6934890
  H        0.9853290     2.1340670     1.1581470
  H        0.5274540     1.5132540    -1.1249130
  H        3.4174920    -0.3642830    -1.0666260
  H        1.9707490    -1.7331840     1.2432230
  H        3.7460890    -1.6095150     1.0882890
  H        3.1038510     2.7463240     0.1779830
  H       -0.3107400    -1.7892010    -0.5436980
  H        2.9100300    -3.5650720     0.1192120
  H       -2.7034680    -2.5490840    -0.1532500
  H       -5.0287110    -1.6377420    -0.0567190
  H       -5.2994710    -0.0137980     0.3861010
units angstrom
no_reorient  #important for SAPT in psi4, default
symmetry c1  #important for SAPT in psi4, default
}

set PROPERTIES_ORIGIN ["COM"]
properties('MP2/aug-cc-pvtz', properties = ['dipole'])
--------------------------------------------------------------------------

    Molecular point group: c1
  Charge       = 0
  Multiplicity = 1
  Basis Set: AUG-CC-PVTZ
    Blend: AUG-CC-PVTZ
  Basis Set: (AUG-CC-PVTZ AUX)
    Blend: AUG-CC-PVTZ-JKFIT

    Orbital Energies [Eh]
    ---------------------

    Doubly Occupied:

       1A    -20.578938     2A    -20.573709     3A    -20.573577
       4A    -20.483330     5A    -15.627171     6A    -15.605386
       7A    -15.526620     8A    -11.350074     9A    -11.345846
      10A    -11.335605    11A    -11.330415    12A    -11.300501
      13A    -11.297763    14A    -11.293434    15A    -11.236033
      16A    -11.233952    17A     -1.416519    18A     -1.374537
      19A     -1.372878    20A     -1.360272    21A     -1.298671
      22A     -1.270171    23A     -1.132775    24A     -1.080428
      25A     -1.072539    26A     -1.033925    27A     -0.938435
      28A     -0.904272    29A     -0.855331    30A     -0.830043
      31A     -0.806972    32A     -0.760247    33A     -0.743178
      34A     -0.732470    35A     -0.720810    36A     -0.695190
      37A     -0.690437    38A     -0.669795    39A     -0.655574
      40A     -0.634418    41A     -0.626922    42A     -0.619337
      43A     -0.600823    44A     -0.600776    45A     -0.580939
      46A     -0.570102    47A     -0.561276    48A     -0.544353
      49A     -0.537711    50A     -0.521901    51A     -0.511377
      52A     -0.485765    53A     -0.477100    54A     -0.469315
      55A     -0.460900    56A     -0.441897    57A     -0.414074
      58A     -0.397738    59A     -0.365463    60A     -0.329175

  @DF-RHF Final Energy:  -811.42693849772718

   => Energetics <=

    Nuclear Repulsion Energy =           1168.2906307824343912
    One-Electron Energy =               -3431.7167675527925894
    Two-Electron Energy =                1451.9991982726312472
    Total Energy =                       -811.4269384977271784
  Basis Set: (AUG-CC-PVTZ AUX)
    Blend: AUG-CC-PVTZ-RI
    Molecular point group: c1

    Geometry (in Angstrom), charge = 0, multiplicity = 1:

       Center              X                  Y                   Z               Mass
    ------------   -----------------  -----------------  -----------------  -----------------
         O            1.364541358401    -0.369751384122    -0.931270140188    15.994914619570
         O            3.204527358401     1.911472615878    -0.298939140188    15.994914619570
         O            2.801877358401    -2.738687384122    -0.399627140188    15.994914619570
         O           -1.359715641599     2.384264615878     0.155356859812    15.994914619570
         N           -0.795773641599     0.209677615878    -0.228682140188    14.003074004430
         N           -3.051701641599     0.815498615878     0.240585859812    14.003074004430
         N           -4.670939641599    -0.802175384122     0.413210859812    14.003074004430
         C            2.704065358401     0.885813615878     0.560047859812    12.000000000000
         C            1.239314358401     1.117485615878     0.888425859812    12.000000000000
         C            2.654289358401    -0.382031384122    -0.284896140188    12.000000000000
         C            0.576428358401     0.693263615878    -0.414342140188    12.000000000000
         C            2.804568358401    -1.649756384122     0.523043859812    12.000000000000
         C           -1.124866641599    -1.105559384122    -0.307702140188    12.000000000000
         C           -1.742217641599     1.214151615878     0.082618859812    12.000000000000
         C           -2.414836641599    -1.494301384122    -0.103968140188    12.000000000000
         C           -3.406271541599    -0.657056284122     0.158225659812    12.000000000000
         H            3.336851358401     0.767044615878     1.451426859812     1.007825032230
         H            0.907177358401     0.454088615878     1.694062859812     1.007825032230
         H            0.987799358401     2.144326615878     1.158720859812     1.007825032230
         H            0.529924358401     1.523513615878    -1.124339140188     1.007825032230
         H            3.419962358401    -0.354023384122    -1.066052140188     1.007825032230
         H            1.973219358401    -1.722924384122     1.243796859812     1.007825032230
         H            3.748559358401    -1.599255384122     1.088862859812     1.007825032230
         H            3.106321358401     2.756583615878     0.178556859812     1.007825032230
         H           -0.308269641599    -1.778941384122    -0.543124140188     1.007825032230
         H            2.912500358401    -3.554812384122     0.119785859812     1.007825032230
         H           -2.700997641599    -2.538824384122    -0.152676140188     1.007825032230
         H           -5.026240641599    -1.627482384122    -0.056145140188     1.007825032230
         H           -5.297000641599    -0.003538384122     0.386674859812     1.007825032230

  Basis Set: AUG-CC-PVTZ
    Blend: AUG-CC-PVTZ
  Basis Set: (AUG-CC-PVTZ AUX)
    Blend: AUG-CC-PVTZ-JKFIT
	 Reference Energy          =    -811.4269384977271784 [Eh]
	 Singles Energy            =      -0.0000000000000000 [Eh]
	 Same-Spin Energy          =      -0.8333569371856063 [Eh]
	 Opposite-Spin Energy      =      -2.5308659037980616 [Eh]
	 Correlation Energy        =      -3.3642228409836679 [Eh]
	 Total Energy              =    -814.7911613387108218 [Eh]

	 ================> DF-SCS-MP2 Energies <==================
	-----------------------------------------------------------
	 SCS Same-Spin Scale       =       0.3333333333333333 [-]
	 SCS Opposite-Spin Scale   =       1.2000000000000000 [-]
	 SCS Same-Spin Energy      =      -0.2777856457285354 [Eh]
	 SCS Opposite-Spin Energy  =      -3.0370390845576738 [Eh]
	 SCS Correlation Energy    =      -3.3148247302862091 [Eh]
	 SCS Total Energy          =    -814.7417632280133830 [Eh]
	-----------------------------------------------------------

  Dipole Moment: [D]
     X:     0.6816      Y:    -5.5240      Z:     2.5043     Total:     6.1034

*** Psi4 exiting successfully. Buy a developer a beer!
