                               Psi4 1.3.2 release

  ==> Input File <==

--------------------------------------------------------------------------
#psi4
#
memory 32 gb

molecule  {
0 1
  O        1.3620710    -0.3800110    -0.9318440
  O        3.2020570     1.9012130    -0.2995130
  O        2.7994070    -2.7489470    -0.4002010
  O       -1.3621860     2.3740050     0.1547830
  N       -0.7982440     0.1994180    -0.2292560
  N       -3.0541720     0.8052390     0.2400120
  N       -4.6734100    -0.8124350     0.4126370
  C        2.7015950     0.8755540     0.5594740
  C        1.2368440     1.1072260     0.8878520
  C        2.6518190    -0.3922910    -0.2854700
  C        0.5658007     0.7069580    -0.4110484
  C        2.8020980    -1.6600160     0.5224700
  C       -1.1499338    -1.1102190    -0.3038213
  C       -1.7446880     1.2038920     0.0820450
  C       -2.4173070    -1.5045610    -0.1045420
  C       -3.3619920    -0.4731600     0.1685110
  H        3.3343810     0.7567850     1.4508530
  H        0.9047070     0.4438290     1.6934890
  H        0.9853290     2.1340670     1.1581470
  H        0.5274540     1.5132540    -1.1249130
  H        3.4174920    -0.3642830    -1.0666260
  H        1.9707490    -1.7331840     1.2432230
  H        3.7460890    -1.6095150     1.0882890
  H        3.1038510     2.7463240     0.1779830
  H       -0.3107400    -1.7892010    -0.5436980
  H        2.9100300    -3.5650720     0.1192120
  H       -2.7034680    -2.5490840    -0.1532500
  H       -5.0287110    -1.6377420    -0.0567190
  H       -5.2994710    -0.0137980     0.3861010
units angstrom
no_reorient  #important for SAPT in psi4, default
symmetry c1  #important for SAPT in psi4, default
}

set PROPERTIES_ORIGIN ["COM"]
properties('MP2/aug-cc-pvtz', properties = ['dipole'])
--------------------------------------------------------------------------

    Molecular point group: c1
  Charge       = 0
  Multiplicity = 1
  Basis Set: AUG-CC-PVTZ
    Blend: AUG-CC-PVTZ
  Basis Set: (AUG-CC-PVTZ AUX)
    Blend: AUG-CC-PVTZ-JKFIT

    Orbital Energies [Eh]
    ---------------------

    Doubly Occupied:

       1A    -20.576608     2A    -20.574154     3A    -20.569881
       4A    -20.503357     5A    -15.620855     6A    -15.589280
       7A    -15.541157     8A    -11.369402     9A    -11.345894
      10A    -11.331252    11A    -11.316503    12A    -11.300489
      13A    -11.295538    14A    -11.291037    15A    -11.236985
      16A    -11.235845    17A     -1.410402    18A     -1.382523
      19A     -1.372737    20A     -1.362906    21A     -1.293083
      22A     -1.261101    23A     -1.169654    24A     -1.081571
      25A     -1.069343    26A     -1.028871    27A     -0.927130
      28A     -0.894497    29A     -0.869046    30A     -0.831686
      31A     -0.805045    32A     -0.755261    33A     -0.737851
      34A     -0.719991    35A     -0.705938    36A     -0.692201
      37A     -0.688651    38A     -0.674063    39A     -0.654370
      40A     -0.638324    41A     -0.627869    42A     -0.617622
      43A     -0.602945    44A     -0.594189    45A     -0.585731
      46A     -0.575261    47A     -0.566680    48A     -0.543302
      49A     -0.532619    50A     -0.522876    51A     -0.511687
      52A     -0.484032    53A     -0.482809    54A     -0.467410
      55A     -0.460812    56A     -0.445008    57A     -0.438599
      58A     -0.415975    59A     -0.384735    60A     -0.338211

  @DF-RHF Final Energy:  -811.47796017200437

   => Energetics <=

    Nuclear Repulsion Energy =           1169.8257429158340983
    One-Electron Energy =               -3434.7616973835829413
    Two-Electron Energy =                1453.4579942957445837
    Total Energy =                       -811.4779601720044866
  Basis Set: (AUG-CC-PVTZ AUX)
    Blend: AUG-CC-PVTZ-RI
    Molecular point group: c1

    Geometry (in Angstrom), charge = 0, multiplicity = 1:

       Center              X                  Y                   Z               Mass
    ------------   -----------------  -----------------  -----------------  -----------------
         O            1.363696102829    -0.381572739696    -0.932283735617    15.994914619570
         O            3.203682102829     1.899651260304    -0.299952735617    15.994914619570
         O            2.801032102829    -2.750508739696    -0.400640735617    15.994914619570
         O           -1.360560897171     2.372443260304     0.154343264383    15.994914619570
         N           -0.796618897171     0.197856260304    -0.229695735617    14.003074004430
         N           -3.052546897171     0.803677260304     0.239572264383    14.003074004430
         N           -4.671784897171    -0.813996739696     0.412197264383    14.003074004430
         C            2.703220102829     0.873992260304     0.559034264383    12.000000000000
         C            1.238469102829     1.105664260304     0.887412264383    12.000000000000
         C            2.653444102829    -0.393852739696    -0.285909735617    12.000000000000
         C            0.567425802829     0.705396260304    -0.411488135617    12.000000000000
         C            2.803723102829    -1.661577739696     0.522030264383    12.000000000000
         C           -1.148308697171    -1.111780739696    -0.304261035617    12.000000000000
         C           -1.743062897171     1.202330260304     0.081605264383    12.000000000000
         C           -2.415681897171    -1.506122739696    -0.104981735617    12.000000000000
         C           -3.360366897171    -0.474721739696     0.168071264383    12.000000000000
         H            3.336006102829     0.755223260304     1.450413264383     1.007825032230
         H            0.906332102829     0.442267260304     1.693049264383     1.007825032230
         H            0.986954102829     2.132505260304     1.157707264383     1.007825032230
         H            0.529079102829     1.511692260304    -1.125352735617     1.007825032230
         H            3.419117102829    -0.365844739696    -1.067065735617     1.007825032230
         H            1.972374102829    -1.734745739696     1.242783264383     1.007825032230
         H            3.747714102829    -1.611076739696     1.087849264383     1.007825032230
         H            3.105476102829     2.744762260304     0.177543264383     1.007825032230
         H           -0.309114897171    -1.790762739696    -0.544137735617     1.007825032230
         H            2.911655102829    -3.566633739696     0.118772264383     1.007825032230
         H           -2.701842897171    -2.550645739696    -0.153689735617     1.007825032230
         H           -5.027085897171    -1.639303739696    -0.057158735617     1.007825032230
         H           -5.297845897171    -0.015359739696     0.385661264383     1.007825032230

  Basis Set: AUG-CC-PVTZ
    Blend: AUG-CC-PVTZ
  Basis Set: (AUG-CC-PVTZ AUX)
    Blend: AUG-CC-PVTZ-JKFIT
	 Reference Energy          =    -811.4779601720043729 [Eh]
	 Singles Energy            =      -0.0000000000000000 [Eh]
	 Same-Spin Energy          =      -0.8295029830762863 [Eh]
	 Opposite-Spin Energy      =      -2.5251724642414670 [Eh]
	 Correlation Energy        =      -3.3546754473177534 [Eh]
	 Total Energy              =    -814.8326356193221045 [Eh]

	 ================> DF-SCS-MP2 Energies <==================
	-----------------------------------------------------------
	 SCS Same-Spin Scale       =       0.3333333333333333 [-]
	 SCS Opposite-Spin Scale   =       1.2000000000000000 [-]
	 SCS Same-Spin Energy      =      -0.2765009943587621 [Eh]
	 SCS Opposite-Spin Energy  =      -3.0302069570897605 [Eh]
	 SCS Correlation Energy    =      -3.3067079514485225 [Eh]
	 SCS Total Energy          =    -814.7846681234528887 [Eh]
	-----------------------------------------------------------

  Dipole Moment: [D]
     X:     0.9498      Y:    -4.6274      Z:     2.5075     Total:     5.3481

*** Psi4 exiting successfully. Buy a developer a beer!
