                               Psi4 1.3.2 release

  ==> Input File <==

--------------------------------------------------------------------------
#psi4
#
memory 32 gb

molecule  {
0 1
  O        1.3620710    -0.3800110    -0.9318440
  O        3.2020570     1.9012130    -0.2995130
  O        2.7994070    -2.7489470    -0.4002010
  O       -1.3621860     2.3740050     0.1547830
  N       -0.7982440     0.1994180    -0.2292560
  N       -3.0541720     0.8052390     0.2400120
  N       -4.6734100    -0.8124350     0.4126370
  C        2.7015950     0.8755540     0.5594740
  C        1.2368440     1.1072260     0.8878520
  C        2.6518190    -0.3922910    -0.2854700
  C        0.5959126     0.6102874    -0.4261747
  C        2.8020980    -1.6600160     0.5224700
  C       -1.0589728    -1.1302091    -0.3214902
  C       -1.7446880     1.2038920     0.0820450
  C       -2.4173070    -1.5045610    -0.1045420
  C       -3.3619920    -0.4731600     0.1685110
  H        3.3343810     0.7567850     1.4508530
  H        0.9047070     0.4438290     1.6934890
  H        0.9853290     2.1340670     1.1581470
  H        0.5274540     1.5132540    -1.1249130
  H        3.4174920    -0.3642830    -1.0666260
  H        1.9707490    -1.7331840     1.2432230
  H        3.7460890    -1.6095150     1.0882890
  H        3.1038510     2.7463240     0.1779830
  H       -0.3107400    -1.7892010    -0.5436980
  H        2.9100300    -3.5650720     0.1192120
  H       -2.7034680    -2.5490840    -0.1532500
  H       -5.0287110    -1.6377420    -0.0567190
  H       -5.2994710    -0.0137980     0.3861010
units angstrom
no_reorient  #important for SAPT in psi4, default
symmetry c1  #important for SAPT in psi4, default
}

set PROPERTIES_ORIGIN ["COM"]
properties('MP2/aug-cc-pvtz', properties = ['dipole'])
--------------------------------------------------------------------------

    Molecular point group: c1
  Charge       = 0
  Multiplicity = 1
  Basis Set: AUG-CC-PVTZ
    Blend: AUG-CC-PVTZ
  Basis Set: (AUG-CC-PVTZ AUX)
    Blend: AUG-CC-PVTZ-JKFIT

    Orbital Energies [Eh]
    ---------------------

    Doubly Occupied:

       1A    -20.581684     2A    -20.581270     3A    -20.574908
       4A    -20.502453     5A    -15.625315     6A    -15.585508
       7A    -15.539812     8A    -11.371643     9A    -11.342404
      10A    -11.330880    11A    -11.323912    12A    -11.302122
      13A    -11.301036    14A    -11.299420    15A    -11.240287
      16A    -11.236663    17A     -1.441311    18A     -1.382163
      19A     -1.376231    20A     -1.371584    21A     -1.290271
      22A     -1.262621    23A     -1.167631    24A     -1.079707
      25A     -1.062246    26A     -1.024216    27A     -0.926271
      28A     -0.907703    29A     -0.868643    30A     -0.831577
      31A     -0.808722    32A     -0.751805    33A     -0.745154
      34A     -0.725393    35A     -0.710345    36A     -0.698076
      37A     -0.690225    38A     -0.679484    39A     -0.665410
      40A     -0.635223    41A     -0.626193    42A     -0.621904
      43A     -0.607649    44A     -0.598346    45A     -0.594599
      46A     -0.575507    47A     -0.564285    48A     -0.548288
      49A     -0.532407    50A     -0.523342    51A     -0.507390
      52A     -0.490849    53A     -0.480595    54A     -0.471989
      55A     -0.462309    56A     -0.442149    57A     -0.431369
      58A     -0.416859    59A     -0.380469    60A     -0.325146

  @DF-RHF Final Energy:  -811.46341775461792

   => Energetics <=

    Nuclear Repulsion Energy =           1170.4022081286991579
    One-Electron Energy =               -3435.6453051725247860
    Two-Electron Energy =                1453.7796792892074791
    Total Energy =                       -811.4634177546179217
  Basis Set: (AUG-CC-PVTZ AUX)
    Blend: AUG-CC-PVTZ-RI
    Molecular point group: c1

    Geometry (in Angstrom), charge = 0, multiplicity = 1:

       Center              X                  Y                   Z               Mass
    ------------   -----------------  -----------------  -----------------  -----------------
         O            1.357298326954    -0.375408114813    -0.930550760365    15.994914619570
         O            3.197284326954     1.905815885187    -0.298219760365    15.994914619570
         O            2.794634326954    -2.744344114813    -0.398907760365    15.994914619570
         O           -1.366958673046     2.378607885187     0.156076239635    15.994914619570
         N           -0.803016673046     0.204020885187    -0.227962760365    14.003074004430
         N           -3.058944673046     0.809841885187     0.241305239635    14.003074004430
         N           -4.678182673046    -0.807832114813     0.413930239635    14.003074004430
         C            2.696822326954     0.880156885187     0.560767239635    12.000000000000
         C            1.232071326954     1.111828885187     0.889145239635    12.000000000000
         C            2.647046326954    -0.387688114813    -0.284176760365    12.000000000000
         C            0.591139926954     0.614890285187    -0.424881460365    12.000000000000
         C            2.797325326954    -1.655413114813     0.523763239635    12.000000000000
         C           -1.063745473046    -1.125606214813    -0.320196960365    12.000000000000
         C           -1.749460673046     1.208494885187     0.083338239635    12.000000000000
         C           -2.422079673046    -1.499958114813    -0.103248760365    12.000000000000
         C           -3.366764673046    -0.468557114813     0.169804239635    12.000000000000
         H            3.329608326954     0.761387885187     1.452146239635     1.007825032230
         H            0.899934326954     0.448431885187     1.694782239635     1.007825032230
         H            0.980556326954     2.138669885187     1.159440239635     1.007825032230
         H            0.522681326954     1.517856885187    -1.123619760365     1.007825032230
         H            3.412719326954    -0.359680114813    -1.065332760365     1.007825032230
         H            1.965976326954    -1.728581114813     1.244516239635     1.007825032230
         H            3.741316326954    -1.604912114813     1.089582239635     1.007825032230
         H            3.099078326954     2.750926885187     0.179276239635     1.007825032230
         H           -0.315512673046    -1.784598114813    -0.542404760365     1.007825032230
         H            2.905257326954    -3.560469114813     0.120505239635     1.007825032230
         H           -2.708240673046    -2.544481114813    -0.151956760365     1.007825032230
         H           -5.033483673046    -1.633139114813    -0.055425760365     1.007825032230
         H           -5.304243673046    -0.009195114813     0.387394239635     1.007825032230

  Basis Set: AUG-CC-PVTZ
    Blend: AUG-CC-PVTZ
  Basis Set: (AUG-CC-PVTZ AUX)
    Blend: AUG-CC-PVTZ-JKFIT
	 Reference Energy          =    -811.4634177546179217 [Eh]
	 Singles Energy            =      -0.0000000000000000 [Eh]
	 Same-Spin Energy          =      -0.8307927135730011 [Eh]
	 Opposite-Spin Energy      =      -2.5264499637368658 [Eh]
	 Correlation Energy        =      -3.3572426773098671 [Eh]
	 Total Energy              =    -814.8206604319277631 [Eh]

	 ================> DF-SCS-MP2 Energies <==================
	-----------------------------------------------------------
	 SCS Same-Spin Scale       =       0.3333333333333333 [-]
	 SCS Opposite-Spin Scale   =       1.2000000000000000 [-]
	 SCS Same-Spin Energy      =      -0.2769309045243337 [Eh]
	 SCS Opposite-Spin Energy  =      -3.0317399564842389 [Eh]
	 SCS Correlation Energy    =      -3.3086708610085727 [Eh]
	 SCS Total Energy          =    -814.7720886156264442 [Eh]
	-----------------------------------------------------------

  Dipole Moment: [D]
     X:     1.4477      Y:    -4.8362      Z:     2.4454     Total:     5.6093

*** Psi4 exiting successfully. Buy a developer a beer!
