                               Psi4 1.3.2 release

  ==> Input File <==

--------------------------------------------------------------------------
#psi4
#
memory 32 gb

molecule  {
0 1
  O        1.3620710    -0.3800110    -0.9318440
  O        3.2020570     1.9012130    -0.2995130
  O        2.7994070    -2.7489470    -0.4002010
  O       -1.3621860     2.3740050     0.1547830
  N       -0.8208298     0.2045534    -0.2242231
  N       -3.0541720     0.8052390     0.2400120
  N       -4.6734100    -0.8124350     0.4126370
  C        2.7015950     0.8755540     0.5594740
  C        1.2368440     1.1072260     0.8878520
  C        2.6518190    -0.3922910    -0.2854700
  C        0.5739580     0.6830040    -0.4149160
  C        2.8020980    -1.6600160     0.5224700
  C       -1.1273370    -1.1158190    -0.3082760
  C       -1.7446880     1.2038920     0.0820450
  C       -2.4173070    -1.5045610    -0.1045420
  C       -3.3619920    -0.4731600     0.1685110
  H        3.3343810     0.7567850     1.4508530
  H        0.9047070     0.4438290     1.6934890
  H        0.9853290     2.1340670     1.1581470
  H        0.5274540     1.5132540    -1.1249130
  H        3.4174920    -0.3642830    -1.0666260
  H        1.9707490    -1.7331840     1.2432230
  H        3.7460890    -1.6095150     1.0882890
  H        3.1038510     2.7463240     0.1779830
  H       -0.3227660    -1.8037919    -0.5429170
  H        2.9100300    -3.5650720     0.1192120
  H       -2.7034680    -2.5490840    -0.1532500
  H       -5.0287110    -1.6377420    -0.0567190
  H       -5.2994710    -0.0137980     0.3861010
units angstrom
no_reorient  #important for SAPT in psi4, default
symmetry c1  #important for SAPT in psi4, default
}

set PROPERTIES_ORIGIN ["COM"]
properties('MP2/aug-cc-pvtz', properties = ['dipole'])
--------------------------------------------------------------------------

    Molecular point group: c1
  Charge       = 0
  Multiplicity = 1
  Basis Set: AUG-CC-PVTZ
    Blend: AUG-CC-PVTZ
  Basis Set: (AUG-CC-PVTZ AUX)
    Blend: AUG-CC-PVTZ-JKFIT

    Orbital Energies [Eh]
    ---------------------

    Doubly Occupied:

       1A    -20.578075     2A    -20.574612     3A    -20.573774
       4A    -20.500867     5A    -15.622110     6A    -15.587704
       7A    -15.539754     8A    -11.367516     9A    -11.344130
      10A    -11.332396    11A    -11.318322    12A    -11.301226
      13A    -11.297214    14A    -11.293622    15A    -11.237301
      16A    -11.237236    17A     -1.416528    18A     -1.383170
      19A     -1.373884    20A     -1.365952    21A     -1.292190
      22A     -1.260657    23A     -1.167822    24A     -1.078929
      25A     -1.068887    26A     -1.029442    27A     -0.925738
      28A     -0.899981    29A     -0.868846    30A     -0.830281
      31A     -0.806768    32A     -0.754507    33A     -0.738813
      34A     -0.721323    35A     -0.706412    36A     -0.692779
      37A     -0.689025    38A     -0.675903    39A     -0.657653
      40A     -0.637273    41A     -0.628549    42A     -0.618223
      43A     -0.605056    44A     -0.595161    45A     -0.588886
      46A     -0.570114    47A     -0.569223    48A     -0.544915
      49A     -0.532579    50A     -0.523334    51A     -0.510661
      52A     -0.486223    53A     -0.481160    54A     -0.468826
      55A     -0.461380    56A     -0.443862    57A     -0.437876
      58A     -0.415660    59A     -0.383189    60A     -0.335495

  @DF-RHF Final Energy:  -811.47891981454234

   => Energetics <=

    Nuclear Repulsion Energy =           1169.8477054475913519
    One-Electron Energy =               -3434.7552612142326325
    Two-Electron Energy =                1453.4286359520988299
    Total Energy =                       -811.4789198145422233
  Basis Set: (AUG-CC-PVTZ AUX)
    Blend: AUG-CC-PVTZ-RI
    Molecular point group: c1

    Geometry (in Angstrom), charge = 0, multiplicity = 1:

       Center              X                  Y                   Z               Mass
    ------------   -----------------  -----------------  -----------------  -----------------
         O            1.363517062102    -0.380262946687    -0.932157775243    15.994914619570
         O            3.203503062102     1.900961053313    -0.299826775243    15.994914619570
         O            2.800853062102    -2.749198946687    -0.400514775243    15.994914619570
         O           -1.360739937898     2.373753053313     0.154469224757    15.994914619570
         N           -0.819383737898     0.204301453313    -0.224536875243    14.003074004430
         N           -3.052725937898     0.804987053313     0.239698224757    14.003074004430
         N           -4.671963937898    -0.812686946687     0.412323224757    14.003074004430
         C            2.703041062102     0.875302053313     0.559160224757    12.000000000000
         C            1.238290062102     1.106974053313     0.887538224757    12.000000000000
         C            2.653265062102    -0.392542946687    -0.285783775243    12.000000000000
         C            0.575404062102     0.682752053313    -0.415229775243    12.000000000000
         C            2.803544062102    -1.660267946687     0.522156224757    12.000000000000
         C           -1.125890937898    -1.116070946687    -0.308589775243    12.000000000000
         C           -1.743241937898     1.203640053313     0.081731224757    12.000000000000
         C           -2.415860937898    -1.504812946687    -0.104855775243    12.000000000000
         C           -3.360545937898    -0.473411946687     0.168197224757    12.000000000000
         H            3.335827062102     0.756533053313     1.450539224757     1.007825032230
         H            0.906153062102     0.443577053313     1.693175224757     1.007825032230
         H            0.986775062102     2.133815053313     1.157833224757     1.007825032230
         H            0.528900062102     1.513002053313    -1.125226775243     1.007825032230
         H            3.418938062102    -0.364534946687    -1.066939775243     1.007825032230
         H            1.972195062102    -1.733435946687     1.242909224757     1.007825032230
         H            3.747535062102    -1.609766946687     1.087975224757     1.007825032230
         H            3.105297062102     2.746072053313     0.177669224757     1.007825032230
         H           -0.321319937898    -1.804043846687    -0.543230775243     1.007825032230
         H            2.911476062102    -3.565323946687     0.118898224757     1.007825032230
         H           -2.702021937898    -2.549335946687    -0.153563775243     1.007825032230
         H           -5.027264937898    -1.637993946687    -0.057032775243     1.007825032230
         H           -5.298024937898    -0.014049946687     0.385787224757     1.007825032230

  Basis Set: AUG-CC-PVTZ
    Blend: AUG-CC-PVTZ
  Basis Set: (AUG-CC-PVTZ AUX)
    Blend: AUG-CC-PVTZ-JKFIT
	 Reference Energy          =    -811.4789198145423370 [Eh]
	 Singles Energy            =      -0.0000000000000000 [Eh]
	 Same-Spin Energy          =      -0.8295976854266094 [Eh]
	 Opposite-Spin Energy      =      -2.5250291012811772 [Eh]
	 Correlation Energy        =      -3.3546267867077866 [Eh]
	 Total Energy              =    -814.8335466012500774 [Eh]

	 ================> DF-SCS-MP2 Energies <==================
	-----------------------------------------------------------
	 SCS Same-Spin Scale       =       0.3333333333333333 [-]
	 SCS Opposite-Spin Scale   =       1.2000000000000000 [-]
	 SCS Same-Spin Energy      =      -0.2765325618088698 [Eh]
	 SCS Opposite-Spin Energy  =      -3.0300349215374127 [Eh]
	 SCS Correlation Energy    =      -3.3065674833462824 [Eh]
	 SCS Total Energy          =    -814.7854872978886078 [Eh]
	-----------------------------------------------------------

  Dipole Moment: [D]
     X:     1.1357      Y:    -4.7485      Z:     2.4750     Total:     5.4739

*** Psi4 exiting successfully. Buy a developer a beer!
