                               Psi4 1.4a3.dev225

  ==> Input File <==

--------------------------------------------------------------------------
#psi4
#
memory 32 gb

molecule  {
0 1
  O       -1.4695130     0.3030610    -1.0874480
  O       -3.6436400    -1.4204040    -0.2669360
  O       -1.6911330     2.8536240     0.0000030
  O        1.1857770    -2.4961310     0.0874550
  N        0.6842480    -0.3150290    -0.3399290
  N        2.9133760    -0.9647370     0.2108410
  N        4.5636770     0.6178870     0.3785230
  C       -2.7686820    -0.6858470     0.5863090
  C       -1.3787780    -1.3118450     0.6568060
  C       -2.4925280     0.6283540    -0.1295840
  C       -0.6939390    -0.7805590    -0.6115670
  C       -2.0473572     1.7179348     0.7963710
  C        1.0545030     0.9838330    -0.4888120
  C        1.6080830    -1.3384950     0.0010630
  C        2.3487550     1.3478080    -0.2622830
  C        3.2578570     0.3046130     0.0876290
  H       -3.2188600    -0.5381750     1.5798200
  H       -0.8341690    -0.9801840     1.5464130
  H       -1.3950130    -2.4033150     0.6754970
  H       -0.6263030    -1.5384450    -1.3968420
  H       -3.3591510     0.9641520    -0.7058050
  H       -1.1849610     1.3939850     1.4098140
  H       -2.8667900     1.9743150     1.4948250
  H       -3.6905400    -2.3294490     0.0774600
  H        0.2668220     1.6750250    -0.7707300
  H       -1.4321050     3.5760960     0.5972330
  H        2.6621150     2.3809760    -0.3596430
  H        4.9550500     1.4416620    -0.0591730
  H        5.1797170    -0.1867780     0.4106900
units angstrom
no_reorient  #important for SAPT in psi4, default
symmetry c1  #important for SAPT in psi4, default
}

set PROPERTIES_ORIGIN ["COM"]
properties('MP2/aug-cc-pvtz', properties = ['dipole'])
--------------------------------------------------------------------------

    Molecular point group: c1
  Charge       = 0
  Multiplicity = 1
  Basis Set: AUG-CC-PVTZ
    Blend: AUG-CC-PVTZ
  Basis Set: (AUG-CC-PVTZ AUX)
    Blend: AUG-CC-PVTZ-JKFIT

    Orbital Energies [Eh]
    ---------------------

    Doubly Occupied:

       1A    -20.582458     2A    -20.574589     3A    -20.572982
       4A    -20.501901     5A    -15.619076     6A    -15.588881
       7A    -15.539801     8A    -11.368770     9A    -11.345780
      10A    -11.333317    11A    -11.314497    12A    -11.301043
      13A    -11.300064    14A    -11.294342    15A    -11.237449
      16A    -11.235252    17A     -1.419257    18A     -1.380729
      19A     -1.376241    20A     -1.366060    21A     -1.290244
      22A     -1.258647    23A     -1.168482    24A     -1.077116
      25A     -1.069395    26A     -1.026395    27A     -0.930208
      28A     -0.894946    29A     -0.867804    30A     -0.830567
      31A     -0.805336    32A     -0.753691    33A     -0.737760
      34A     -0.725407    35A     -0.707718    36A     -0.701406
      37A     -0.690748    38A     -0.673103    39A     -0.650890
      40A     -0.641206    41A     -0.622721    42A     -0.617782
      43A     -0.607477    44A     -0.596169    45A     -0.587516
      46A     -0.572710    47A     -0.564918    48A     -0.550297
      49A     -0.526729    50A     -0.521749    51A     -0.511066
      52A     -0.485321    53A     -0.480586    54A     -0.470912
      55A     -0.460285    56A     -0.449654    57A     -0.440843
      58A     -0.413716    59A     -0.382418    60A     -0.333899

  @DF-RHF Final Energy:  -811.47873504790971

   => Energetics <=

    Nuclear Repulsion Energy =           1185.4576817426182060
    One-Electron Energy =               -3465.9721778138141417
    Two-Electron Energy =                1469.0357610232863408
    Total Energy =                       -811.4787350479095949
  Basis Set: (AUG-CC-PVTZ AUX)
    Blend: AUG-CC-PVTZ-RI
    Molecular point group: c1

    Geometry (in Angstrom), charge = 0, multiplicity = 1:

       Center              X                  Y                   Z               Mass
    ------------   -----------------  -----------------  -----------------  -----------------
         O           -1.493658095123     0.327545328631    -1.067167265699    15.994914619570
         O           -3.667785095123    -1.395919671369    -0.246655265699    15.994914619570
         O           -1.715278095123     2.878108328631     0.020283734301    15.994914619570
         O            1.161631904877    -2.471646671369     0.107735734301    15.994914619570
         N            0.660102904877    -0.290544671369    -0.319648265699    14.003074004430
         N            2.889230904877    -0.940252671369     0.231121734301    14.003074004430
         N            4.539531904877     0.642371328631     0.398803734301    14.003074004430
         C           -2.792827095123    -0.661362671369     0.606589734301    12.000000000000
         C           -1.402923095123    -1.287360671369     0.677086734301    12.000000000000
         C           -2.516673095123     0.652838328631    -0.109303265699    12.000000000000
         C           -0.718084095123    -0.756074671369    -0.591286265699    12.000000000000
         C           -2.071502295123     1.742419128631     0.816651734301    12.000000000000
         C            1.030357904877     1.008317328631    -0.468531265699    12.000000000000
         C            1.583937904877    -1.314010671369     0.021343734301    12.000000000000
         C            2.324609904877     1.372292328631    -0.242002265699    12.000000000000
         C            3.233711904877     0.329097328631     0.107909734301    12.000000000000
         H           -3.243005095123    -0.513690671369     1.600100734301     1.007825032230
         H           -0.858314095123    -0.955699671369     1.566693734301     1.007825032230
         H           -1.419158095123    -2.378830671369     0.695777734301     1.007825032230
         H           -0.650448095123    -1.513960671369    -1.376561265699     1.007825032230
         H           -3.383296095123     0.988636328631    -0.685524265699     1.007825032230
         H           -1.209106095123     1.418469328631     1.430094734301     1.007825032230
         H           -2.890935095123     1.998799328631     1.515105734301     1.007825032230
         H           -3.714685095123    -2.304964671369     0.097740734301     1.007825032230
         H            0.242676904877     1.699509328631    -0.750449265699     1.007825032230
         H           -1.456250095123     3.600580328631     0.617513734301     1.007825032230
         H            2.637969904877     2.405460328631    -0.339362265699     1.007825032230
         H            4.930904904877     1.466146328631    -0.038892265699     1.007825032230
         H            5.155571904877    -0.162293671369     0.430970734301     1.007825032230

  Basis Set: AUG-CC-PVTZ
    Blend: AUG-CC-PVTZ
  Basis Set: (AUG-CC-PVTZ AUX)
    Blend: AUG-CC-PVTZ-JKFIT
	 Reference Energy          =    -811.4787350479097086 [Eh]
	 Singles Energy            =      -0.0000000000000000 [Eh]
	 Same-Spin Energy          =      -0.8308976341915750 [Eh]
	 Opposite-Spin Energy      =      -2.5271056234052254 [Eh]
	 Correlation Energy        =      -3.3580032575968004 [Eh]
	 Total Energy              =    -814.8367383055065147 [Eh]

	 ================> DF-SCS-MP2 Energies <==================
	-----------------------------------------------------------
	 SCS Same-Spin Scale       =       0.3333333333333333 [-]
	 SCS Opposite-Spin Scale   =       1.2000000000000000 [-]
	 SCS Same-Spin Energy      =      -0.2769658780638583 [Eh]
	 SCS Opposite-Spin Energy  =      -3.0325267480862705 [Eh]
	 SCS Correlation Energy    =      -3.3094926261501287 [Eh]
	 SCS Total Energy          =    -814.7882276740598400 [Eh]
	-----------------------------------------------------------

  Dipole Moment: [D]
     X:    -0.3403      Y:     4.5695      Z:     2.4126     Total:     5.1785

*** Psi4 exiting successfully. Buy a developer a beer!
