                               Psi4 1.3.2 release

  ==> Input File <==

--------------------------------------------------------------------------
#psi4
#
memory 32 gb

molecule  {
0 1
  O        1.3620710    -0.3800110    -0.9318440
  O        3.2020570     1.9012130    -0.2995130
  O        2.7994070    -2.7489470    -0.4002010
  O       -1.3621860     2.3740050     0.1547830
  N       -0.7982440     0.1994180    -0.2292560
  N       -3.0541720     0.8052390     0.2400120
  N       -4.6734100    -0.8124350     0.4126370
  C        2.7015950     0.8755540     0.5594740
  C        1.2368440     1.1072260     0.8878520
  C        2.6518190    -0.3922910    -0.2854700
  C        0.5739580     0.6830040    -0.4149160
  C        2.8020980    -1.6600160     0.5224700
  C       -1.1273370    -1.1158190    -0.3082760
  C       -1.7446880     1.2038920     0.0820450
  C       -2.4173070    -1.5045610    -0.1045420
  C       -3.3619920    -0.4731600     0.1685110
  H        3.3343810     0.7567850     1.4508530
  H        0.9047070     0.4438290     1.6934890
  H        0.9853290     2.1340670     1.1581470
  H        0.5274540     1.5132540    -1.1249130
  H        3.4174920    -0.3642830    -1.0666260
  H        1.8199667    -1.7464545     1.3739464
  H        3.7460890    -1.6095150     1.0882890
  H        3.1038510     2.7463240     0.1779830
  H       -0.3107400    -1.7892010    -0.5436980
  H        2.9100300    -3.5650720     0.1192120
  H       -2.7034680    -2.5490840    -0.1532500
  H       -5.0287110    -1.6377420    -0.0567190
  H       -5.2994710    -0.0137980     0.3861010
units angstrom
no_reorient  #important for SAPT in psi4, default
symmetry c1  #important for SAPT in psi4, default
}

set PROPERTIES_ORIGIN ["COM"]
properties('MP2/aug-cc-pvtz', properties = ['dipole'])
--------------------------------------------------------------------------

    Molecular point group: c1
  Charge       = 0
  Multiplicity = 1
  Basis Set: AUG-CC-PVTZ
    Blend: AUG-CC-PVTZ
  Basis Set: (AUG-CC-PVTZ AUX)
    Blend: AUG-CC-PVTZ-JKFIT

    Orbital Energies [Eh]
    ---------------------

    Doubly Occupied:

       1A    -20.583315     2A    -20.574706     3A    -20.573176
       4A    -20.502616     5A    -15.621256     6A    -15.587949
       7A    -15.540320     8A    -11.369456     9A    -11.344559
      10A    -11.330481    11A    -11.320413    12A    -11.317666
      13A    -11.301290    14A    -11.296175    15A    -11.236415
      16A    -11.235852    17A     -1.416898    18A     -1.382578
      19A     -1.376310    20A     -1.366704    21A     -1.291778
      22A     -1.261000    23A     -1.168675    24A     -1.078451
      25A     -1.068153    26A     -1.026685    27A     -0.922023
      28A     -0.895071    29A     -0.867389    30A     -0.830626
      31A     -0.802209    32A     -0.753399    33A     -0.737808
      34A     -0.719132    35A     -0.706324    36A     -0.694892
      37A     -0.688951    38A     -0.672099    39A     -0.651645
      40A     -0.633250    41A     -0.627274    42A     -0.617377
      43A     -0.605385    44A     -0.594544    45A     -0.587312
      46A     -0.572672    47A     -0.569160    48A     -0.542300
      49A     -0.532272    50A     -0.522846    51A     -0.510432
      52A     -0.486328    53A     -0.481849    54A     -0.463688
      55A     -0.453238    56A     -0.444497    57A     -0.438292
      58A     -0.415973    59A     -0.383331    60A     -0.334432

  @DF-RHF Final Energy:  -811.45895907558167

   => Energetics <=

    Nuclear Repulsion Energy =           1169.1985707272667696
    One-Electron Energy =               -3433.4532593618005194
    Two-Electron Energy =                1452.7957295589517344
    Total Energy =                       -811.4589590755817881
  Basis Set: (AUG-CC-PVTZ AUX)
    Blend: AUG-CC-PVTZ-RI
    Molecular point group: c1

    Geometry (in Angstrom), charge = 0, multiplicity = 1:

       Center              X                  Y                   Z               Mass
    ------------   -----------------  -----------------  -----------------  -----------------
         O            1.362740153891    -0.379952142752    -0.932424114452    15.994914619570
         O            3.202726153891     1.901271857248    -0.300093114452    15.994914619570
         O            2.800076153891    -2.748888142752    -0.400781114452    15.994914619570
         O           -1.361516846109     2.374063857248     0.154202885548    15.994914619570
         N           -0.797574846109     0.199476857248    -0.229836114452    14.003074004430
         N           -3.053502846109     0.805297857248     0.239431885548    14.003074004430
         N           -4.672740846109    -0.812376142752     0.412056885548    14.003074004430
         C            2.702264153891     0.875612857248     0.558893885548    12.000000000000
         C            1.237513153891     1.107284857248     0.887271885548    12.000000000000
         C            2.652488153891    -0.392232142752    -0.286050114452    12.000000000000
         C            0.574627153891     0.683062857248    -0.415496114452    12.000000000000
         C            2.802767153891    -1.659957142752     0.521889885548    12.000000000000
         C           -1.126667846109    -1.115760142752    -0.308856114452    12.000000000000
         C           -1.744018846109     1.203950857248     0.081464885548    12.000000000000
         C           -2.416637846109    -1.504502142752    -0.105122114452    12.000000000000
         C           -3.361322846109    -0.473101142752     0.167930885548    12.000000000000
         H            3.335050153891     0.756843857248     1.450272885548     1.007825032230
         H            0.905376153891     0.443887857248     1.692908885548     1.007825032230
         H            0.985998153891     2.134125857248     1.157566885548     1.007825032230
         H            0.528123153891     1.513312857248    -1.125493114452     1.007825032230
         H            3.418161153891    -0.364224142752    -1.067206114452     1.007825032230
         H            1.820635853891    -1.746395642752     1.373366285548     1.007825032230
         H            3.746758153891    -1.609456142752     1.087708885548     1.007825032230
         H            3.104520153891     2.746382857248     0.177402885548     1.007825032230
         H           -0.310070846109    -1.789142142752    -0.544278114452     1.007825032230
         H            2.910699153891    -3.565013142752     0.118631885548     1.007825032230
         H           -2.702798846109    -2.549025142752    -0.153830114452     1.007825032230
         H           -5.028041846109    -1.637683142752    -0.057299114452     1.007825032230
         H           -5.298801846109    -0.013739142752     0.385520885548     1.007825032230

  Basis Set: AUG-CC-PVTZ
    Blend: AUG-CC-PVTZ
  Basis Set: (AUG-CC-PVTZ AUX)
    Blend: AUG-CC-PVTZ-JKFIT
	 Reference Energy          =    -811.4589590755816744 [Eh]
	 Singles Energy            =      -0.0000000000000000 [Eh]
	 Same-Spin Energy          =      -0.8300579911964516 [Eh]
	 Opposite-Spin Energy      =      -2.5271456863352300 [Eh]
	 Correlation Energy        =      -3.3572036775316816 [Eh]
	 Total Energy              =    -814.8161627531133036 [Eh]

	 ================> DF-SCS-MP2 Energies <==================
	-----------------------------------------------------------
	 SCS Same-Spin Scale       =       0.3333333333333333 [-]
	 SCS Opposite-Spin Scale   =       1.2000000000000000 [-]
	 SCS Same-Spin Energy      =      -0.2766859970654839 [Eh]
	 SCS Opposite-Spin Energy  =      -3.0325748236022760 [Eh]
	 SCS Correlation Energy    =      -3.3092608206677601 [Eh]
	 SCS Total Energy          =    -814.7682198962494340 [Eh]
	-----------------------------------------------------------

  Dipole Moment: [D]
     X:     1.2061      Y:    -4.7200      Z:     2.3389     Total:     5.4040

*** Psi4 exiting successfully. Buy a developer a beer!
