                               Psi4 1.3.2 release

  ==> Input File <==

--------------------------------------------------------------------------
#psi4
#
memory 32 gb

molecule  {
0 1
  O        1.3620710    -0.3800110    -0.9318440
  O        3.2020570     1.9012130    -0.2995130
  O        2.7994070    -2.7489470    -0.4002010
  O       -1.3621860     2.3740050     0.1547830
  N       -0.7982440     0.1994180    -0.2292560
  N       -3.0541720     0.8052390     0.2400120
  N       -4.6734100    -0.8124350     0.4126370
  C        2.7015950     0.8755540     0.5594740
  C        1.2368440     1.1072260     0.8878520
  C        2.6518190    -0.3922910    -0.2854700
  C        0.5739580     0.6830040    -0.4149160
  C        2.8120451    -1.7439276     0.5759481
  C       -1.1273370    -1.1158190    -0.3082760
  C       -1.7446880     1.2038920     0.0820450
  C       -2.4173070    -1.5045610    -0.1045420
  C       -3.3619920    -0.4731600     0.1685110
  H        3.3343810     0.7567850     1.4508530
  H        0.9047070     0.4438290     1.6934890
  H        0.9853290     2.1340670     1.1581470
  H        0.5274540     1.5132540    -1.1249130
  H        3.4174920    -0.3642830    -1.0666260
  H        1.9707490    -1.7331840     1.2432230
  H        3.7460890    -1.6095150     1.0882890
  H        3.1038510     2.7463240     0.1779830
  H       -0.3107400    -1.7892010    -0.5436980
  H        2.9100300    -3.5650720     0.1192120
  H       -2.7034680    -2.5490840    -0.1532500
  H       -5.0287110    -1.6377420    -0.0567190
  H       -5.2994710    -0.0137980     0.3861010
units angstrom
no_reorient  #important for SAPT in psi4, default
symmetry c1  #important for SAPT in psi4, default
}

set PROPERTIES_ORIGIN ["COM"]
properties('MP2/aug-cc-pvtz', properties = ['dipole'])
--------------------------------------------------------------------------

    Molecular point group: c1
  Charge       = 0
  Multiplicity = 1
  Basis Set: AUG-CC-PVTZ
    Blend: AUG-CC-PVTZ
  Basis Set: (AUG-CC-PVTZ AUX)
    Blend: AUG-CC-PVTZ-JKFIT

    Orbital Energies [Eh]
    ---------------------

    Doubly Occupied:

       1A    -20.583421     2A    -20.572743     3A    -20.572113
       4A    -20.502689     5A    -15.621334     6A    -15.588206
       7A    -15.540584     8A    -11.369553     9A    -11.344843
      10A    -11.329839    11A    -11.318163    12A    -11.298353
      13A    -11.295081    14A    -11.294326    15A    -11.236894
      16A    -11.235763    17A     -1.414993    18A     -1.387054
      19A     -1.379719    20A     -1.365835    21A     -1.291918
      22A     -1.260969    23A     -1.168804    24A     -1.077577
      25A     -1.062156    26A     -1.018552    27A     -0.926056
      28A     -0.897988    29A     -0.868828    30A     -0.829429
      31A     -0.804802    32A     -0.753828    33A     -0.738307
      34A     -0.721020    35A     -0.705300    36A     -0.695149
      37A     -0.687709    38A     -0.676952    39A     -0.658643
      40A     -0.640182    41A     -0.626896    42A     -0.618803
      43A     -0.603836    44A     -0.596122    45A     -0.590576
      46A     -0.572710    47A     -0.568953    48A     -0.547752
      49A     -0.532046    50A     -0.519568    51A     -0.505950
      52A     -0.483460    53A     -0.481550    54A     -0.475645
      55A     -0.457712    56A     -0.443026    57A     -0.428452
      58A     -0.415240    59A     -0.383351    60A     -0.334647

  @DF-RHF Final Energy:  -811.47037573693137

   => Energetics <=

    Nuclear Repulsion Energy =           1168.2668452328568947
    One-Electron Energy =               -3431.6305014514459799
    Two-Electron Energy =                1451.8932804816579392
    Total Energy =                       -811.4703757369313735
  Basis Set: (AUG-CC-PVTZ AUX)
    Blend: AUG-CC-PVTZ-RI
    Molecular point group: c1

    Geometry (in Angstrom), charge = 0, multiplicity = 1:

       Center              X                  Y                   Z               Mass
    ------------   -----------------  -----------------  -----------------  -----------------
         O            1.361545356003    -0.375576951387    -0.934669873950    15.994914619570
         O            3.201531356003     1.905647048613    -0.302338873950    15.994914619570
         O            2.798881356003    -2.744512951387    -0.403026873950    15.994914619570
         O           -1.362711643997     2.378439048613     0.151957126050    15.994914619570
         N           -0.798769643997     0.203852048613    -0.232081873950    14.003074004430
         N           -3.054697643997     0.809673048613     0.237186126050    14.003074004430
         N           -4.673935643997    -0.808000951387     0.409811126050    14.003074004430
         C            2.701069356003     0.879988048613     0.556648126050    12.000000000000
         C            1.236318356003     1.111660048613     0.885026126050    12.000000000000
         C            2.651293356003    -0.387856951387    -0.288295873950    12.000000000000
         C            0.573432356003     0.687438048613    -0.417741873950    12.000000000000
         C            2.811519456003    -1.739493551387     0.573122226050    12.000000000000
         C           -1.127862643997    -1.111384951387    -0.311101873950    12.000000000000
         C           -1.745213643997     1.208326048613     0.079219126050    12.000000000000
         C           -2.417832643997    -1.500126951387    -0.107367873950    12.000000000000
         C           -3.362517643997    -0.468725951387     0.165685126050    12.000000000000
         H            3.333855356003     0.761219048613     1.448027126050     1.007825032230
         H            0.904181356003     0.448263048613     1.690663126050     1.007825032230
         H            0.984803356003     2.138501048613     1.155321126050     1.007825032230
         H            0.526928356003     1.517688048613    -1.127738873950     1.007825032230
         H            3.416966356003    -0.359848951387    -1.069451873950     1.007825032230
         H            1.970223356003    -1.728749951387     1.240397126050     1.007825032230
         H            3.745563356003    -1.605080951387     1.085463126050     1.007825032230
         H            3.103325356003     2.750758048613     0.175157126050     1.007825032230
         H           -0.311265643997    -1.784766951387    -0.546523873950     1.007825032230
         H            2.909504356003    -3.560637951387     0.116386126050     1.007825032230
         H           -2.703993643997    -2.544649951387    -0.156075873950     1.007825032230
         H           -5.029236643997    -1.633307951387    -0.059544873950     1.007825032230
         H           -5.299996643997    -0.009363951387     0.383275126050     1.007825032230

  Basis Set: AUG-CC-PVTZ
    Blend: AUG-CC-PVTZ
  Basis Set: (AUG-CC-PVTZ AUX)
    Blend: AUG-CC-PVTZ-JKFIT
	 Reference Energy          =    -811.4703757369313735 [Eh]
	 Singles Energy            =      -0.0000000000000000 [Eh]
	 Same-Spin Energy          =      -0.8297396329638795 [Eh]
	 Opposite-Spin Energy      =      -2.5256398582000279 [Eh]
	 Correlation Energy        =      -3.3553794911639074 [Eh]
	 Total Energy              =    -814.8257552280953178 [Eh]

	 ================> DF-SCS-MP2 Energies <==================
	-----------------------------------------------------------
	 SCS Same-Spin Scale       =       0.3333333333333333 [-]
	 SCS Opposite-Spin Scale   =       1.2000000000000000 [-]
	 SCS Same-Spin Energy      =      -0.2765798776546265 [Eh]
	 SCS Opposite-Spin Energy  =      -3.0307678298400336 [Eh]
	 SCS Correlation Energy    =      -3.3073477074946602 [Eh]
	 SCS Total Energy          =    -814.7777234444259875 [Eh]
	-----------------------------------------------------------

  Dipole Moment: [D]
     X:     1.0880      Y:    -4.8307      Z:     2.4442     Total:     5.5221

*** Psi4 exiting successfully. Buy a developer a beer!
