                               Psi4 1.3.2 release

  ==> Input File <==

--------------------------------------------------------------------------
#psi4
#
memory 32 gb

molecule  {
0 1
  O        1.3620710    -0.3800110    -0.9318440
  O        3.2020570     1.9012130    -0.2995130
  O        2.7994070    -2.7489470    -0.4002010
  O       -1.3621860     2.3740050     0.1547830
  N       -0.7982440     0.1994180    -0.2292560
  N       -3.0541720     0.8052390     0.2400120
  N       -4.6734100    -0.8124350     0.4126370
  C        2.7015950     0.8755540     0.5594740
  C        1.2368440     1.1072260     0.8878520
  C        2.6518190    -0.3922910    -0.2854700
  C        0.5739580     0.6830040    -0.4149160
  C        2.8020980    -1.6600160     0.5224700
  C       -1.1273370    -1.1158190    -0.3082760
  C       -1.7446880     1.2038920     0.0820450
  C       -2.4173070    -1.5045610    -0.1045420
  C       -3.3643639    -0.4542859     0.1831818
  H        3.3343810     0.7567850     1.4508530
  H        0.9047070     0.4438290     1.6934890
  H        0.9853290     2.1340670     1.1581470
  H        0.5274540     1.5132540    -1.1249130
  H        3.4174920    -0.3642830    -1.0666260
  H        1.9707490    -1.7331840     1.2432230
  H        3.7460890    -1.6095150     1.0882890
  H        3.1038510     2.7463240     0.1779830
  H       -0.3107400    -1.7892010    -0.5436980
  H        2.9100300    -3.5650720     0.1192120
  H       -2.7034680    -2.5490840    -0.1532500
  H       -5.0444131    -1.6351981    -0.0489724
  H       -5.2994710    -0.0137980     0.3861010
units angstrom
no_reorient  #important for SAPT in psi4, default
symmetry c1  #important for SAPT in psi4, default
}

set PROPERTIES_ORIGIN ["COM"]
properties('MP2/aug-cc-pvtz', properties = ['dipole'])
--------------------------------------------------------------------------

    Molecular point group: c1
  Charge       = 0
  Multiplicity = 1
  Basis Set: AUG-CC-PVTZ
    Blend: AUG-CC-PVTZ
  Basis Set: (AUG-CC-PVTZ AUX)
    Blend: AUG-CC-PVTZ-JKFIT

    Orbital Energies [Eh]
    ---------------------

    Doubly Occupied:

       1A    -20.577409     2A    -20.574202     3A    -20.572482
       4A    -20.505032     5A    -15.620458     6A    -15.587662
       7A    -15.541411     8A    -11.371914     9A    -11.345056
      10A    -11.330394    11A    -11.315634    12A    -11.300656
      13A    -11.296543    14A    -11.292785    15A    -11.237204
      16A    -11.236583    17A     -1.416387    18A     -1.383562
      19A     -1.373304    20A     -1.365716    21A     -1.293879
      22A     -1.261793    23A     -1.173011    24A     -1.078090
      25A     -1.067425    26A     -1.026589    27A     -0.926021
      28A     -0.895410    29A     -0.871169    30A     -0.831239
      31A     -0.805863    32A     -0.753438    33A     -0.738012
      34A     -0.720705    35A     -0.707915    36A     -0.692535
      37A     -0.689826    38A     -0.675955    39A     -0.656211
      40A     -0.637290    41A     -0.627899    42A     -0.616941
      43A     -0.604727    44A     -0.594332    45A     -0.589152
      46A     -0.572740    47A     -0.568644    48A     -0.544768
      49A     -0.532814    50A     -0.523434    51A     -0.510225
      52A     -0.485637    53A     -0.482243    54A     -0.468191
      55A     -0.460930    56A     -0.445450    57A     -0.437479
      58A     -0.417043    59A     -0.385999    60A     -0.334042

  @DF-RHF Final Energy:  -811.47949665953604

   => Energetics <=

    Nuclear Repulsion Energy =           1169.9867294901534933
    One-Electron Energy =               -3435.0335250466810066
    Two-Electron Energy =                1453.5672988969913604
    Total Energy =                       -811.4794966595359256
  Basis Set: (AUG-CC-PVTZ AUX)
    Blend: AUG-CC-PVTZ-RI
    Molecular point group: c1

    Geometry (in Angstrom), charge = 0, multiplicity = 1:

       Center              X                  Y                   Z               Mass
    ------------   -----------------  -----------------  -----------------  -----------------
         O            1.362266006550    -0.381019678537    -0.932653584546    15.994914619570
         O            3.202252006550     1.900204321463    -0.300322584546    15.994914619570
         O            2.799602006550    -2.749955678537    -0.401010584546    15.994914619570
         O           -1.361990993450     2.372996321463     0.153973415454    15.994914619570
         N           -0.798048993450     0.198409321463    -0.230065584546    14.003074004430
         N           -3.053976993450     0.804230321463     0.239202415454    14.003074004430
         N           -4.673214993450    -0.813443678537     0.411827415454    14.003074004430
         C            2.701790006550     0.874545321463     0.558664415454    12.000000000000
         C            1.237039006550     1.106217321463     0.887042415454    12.000000000000
         C            2.652014006550    -0.393299678537    -0.286279584546    12.000000000000
         C            0.574153006550     0.681995321463    -0.415725584546    12.000000000000
         C            2.802293006550    -1.661024678537     0.521660415454    12.000000000000
         C           -1.127141993450    -1.116827678537    -0.309085584546    12.000000000000
         C           -1.744492993450     1.202883321463     0.081235415454    12.000000000000
         C           -2.417111993450    -1.505569678537    -0.105351584546    12.000000000000
         C           -3.364168893450    -0.455294578537     0.182372215454    12.000000000000
         H            3.334576006550     0.755776321463     1.450043415454     1.007825032230
         H            0.904902006550     0.442820321463     1.692679415454     1.007825032230
         H            0.985524006550     2.133058321463     1.157337415454     1.007825032230
         H            0.527649006550     1.512245321463    -1.125722584546     1.007825032230
         H            3.417687006550    -0.365291678537    -1.067435584546     1.007825032230
         H            1.970944006550    -1.734192678537     1.242413415454     1.007825032230
         H            3.746284006550    -1.610523678537     1.087479415454     1.007825032230
         H            3.104046006550     2.745315321463     0.177173415454     1.007825032230
         H           -0.310544993450    -1.790209678537    -0.544507584546     1.007825032230
         H            2.910225006550    -3.566080678537     0.118402415454     1.007825032230
         H           -2.703272993450    -2.550092678537    -0.154059584546     1.007825032230
         H           -5.044218093450    -1.636206778537    -0.049781984546     1.007825032230
         H           -5.299275993450    -0.014806678537     0.385291415454     1.007825032230

  Basis Set: AUG-CC-PVTZ
    Blend: AUG-CC-PVTZ
  Basis Set: (AUG-CC-PVTZ AUX)
    Blend: AUG-CC-PVTZ-JKFIT
	 Reference Energy          =    -811.4794966595360393 [Eh]
	 Singles Energy            =      -0.0000000000000000 [Eh]
	 Same-Spin Energy          =      -0.8292717854492151 [Eh]
	 Opposite-Spin Energy      =      -2.5247155217485648 [Eh]
	 Correlation Energy        =      -3.3539873071977802 [Eh]
	 Total Energy              =    -814.8334839667338656 [Eh]

	 ================> DF-SCS-MP2 Energies <==================
	-----------------------------------------------------------
	 SCS Same-Spin Scale       =       0.3333333333333333 [-]
	 SCS Opposite-Spin Scale   =       1.2000000000000000 [-]
	 SCS Same-Spin Energy      =      -0.2764239284830717 [Eh]
	 SCS Opposite-Spin Energy  =      -3.0296586260982776 [Eh]
	 SCS Correlation Energy    =      -3.3060825545813493 [Eh]
	 SCS Total Energy          =    -814.7855792141174334 [Eh]
	-----------------------------------------------------------

  Dipole Moment: [D]
     X:     1.0193      Y:    -4.6001      Z:     2.5168     Total:     5.3418

*** Psi4 exiting successfully. Buy a developer a beer!
