                               Psi4 1.3.2 release

  ==> Input File <==

--------------------------------------------------------------------------
#psi4
#
memory 32 gb

molecule  {
0 1
  O        1.3620710    -0.3800110    -0.9318440
  O        3.2020570     1.9012130    -0.2995130
  O        2.7994070    -2.7489470    -0.4002010
  O       -1.3621860     2.3740050     0.1547830
  N       -0.7982440     0.1994180    -0.2292560
  N       -3.0541720     0.8052390     0.2400120
  N       -4.6734100    -0.8124350     0.4126370
  C        2.7015950     0.8755540     0.5594740
  C        1.2368440     1.1072260     0.8878520
  C        2.6738192    -0.3983711    -0.2986719
  C        0.5739580     0.6830040    -0.4149160
  C        2.8020980    -1.6600160     0.5224700
  C       -1.1273370    -1.1158190    -0.3082760
  C       -1.7446880     1.2038920     0.0820450
  C       -2.4173070    -1.5045610    -0.1045420
  C       -3.3619920    -0.4731600     0.1685110
  H        3.3343810     0.7567850     1.4508530
  H        0.9047070     0.4438290     1.6934890
  H        0.9853290     2.1340670     1.1581470
  H        0.5274540     1.5132540    -1.1249130
  H        3.4174920    -0.3642830    -1.0666260
  H        1.9779797    -1.7498347     1.2496160
  H        3.7460890    -1.6095150     1.0882890
  H        3.1038510     2.7463240     0.1779830
  H       -0.3107400    -1.7892010    -0.5436980
  H        2.9100300    -3.5650720     0.1192120
  H       -2.7034680    -2.5490840    -0.1532500
  H       -5.0287110    -1.6377420    -0.0567190
  H       -5.2994710    -0.0137980     0.3861010
units angstrom
no_reorient  #important for SAPT in psi4, default
symmetry c1  #important for SAPT in psi4, default
}

set PROPERTIES_ORIGIN ["COM"]
properties('MP2/aug-cc-pvtz', properties = ['dipole'])
--------------------------------------------------------------------------

    Molecular point group: c1
  Charge       = 0
  Multiplicity = 1
  Basis Set: AUG-CC-PVTZ
    Blend: AUG-CC-PVTZ
  Basis Set: (AUG-CC-PVTZ AUX)
    Blend: AUG-CC-PVTZ-JKFIT

    Orbital Energies [Eh]
    ---------------------

    Doubly Occupied:

       1A    -20.577460     2A    -20.574181     3A    -20.570871
       4A    -20.502698     5A    -15.621287     6A    -15.588084
       7A    -15.540471     8A    -11.369541     9A    -11.344703
      10A    -11.329975    11A    -11.317841    12A    -11.301433
      13A    -11.297325    14A    -11.293396    15A    -11.236622
      16A    -11.236469    17A     -1.412799    18A     -1.381931
      19A     -1.373613    20A     -1.364418    21A     -1.291764
      22A     -1.260728    23A     -1.168721    24A     -1.077530
      25A     -1.067924    26A     -1.028079    27A     -0.926096
      28A     -0.897038    29A     -0.868559    30A     -0.829466
      31A     -0.809180    32A     -0.754059    33A     -0.737792
      34A     -0.719914    35A     -0.706382    36A     -0.693348
      37A     -0.688876    38A     -0.675556    39A     -0.656010
      40A     -0.636062    41A     -0.626729    42A     -0.618120
      43A     -0.604266    44A     -0.595109    45A     -0.587271
      46A     -0.572881    47A     -0.570386    48A     -0.544734
      49A     -0.531626    50A     -0.522612    51A     -0.511055
      52A     -0.484442    53A     -0.482268    54A     -0.468178
      55A     -0.461740    56A     -0.444559    57A     -0.437518
      58A     -0.416056    59A     -0.383404    60A     -0.334538

  @DF-RHF Final Energy:  -811.47864495808710

   => Energetics <=

    Nuclear Repulsion Energy =           1169.3620571675910469
    One-Electron Energy =               -3433.8300165283731076
    Two-Electron Energy =                1452.9893144026950722
    Total Energy =                       -811.4786449580869885
  Basis Set: (AUG-CC-PVTZ AUX)
    Blend: AUG-CC-PVTZ-RI
    Molecular point group: c1

    Geometry (in Angstrom), charge = 0, multiplicity = 1:

       Center              X                  Y                   Z               Mass
    ------------   -----------------  -----------------  -----------------  -----------------
         O            1.360876352193    -0.379615854732    -0.931174718475    15.994914619570
         O            3.200862352193     1.901608145268    -0.298843718475    15.994914619570
         O            2.798212352193    -2.748551854732    -0.399531718475    15.994914619570
         O           -1.363380647807     2.374400145268     0.155452281525    15.994914619570
         N           -0.799438647807     0.199813145268    -0.228586718475    14.003074004430
         N           -3.055366647807     0.805634145268     0.240681281525    14.003074004430
         N           -4.674604647807    -0.812039854732     0.413306281525    14.003074004430
         C            2.700400352193     0.875949145268     0.560143281525    12.000000000000
         C            1.235649352193     1.107621145268     0.888521281525    12.000000000000
         C            2.672624552193    -0.397975954732    -0.298002618475    12.000000000000
         C            0.572763352193     0.683399145268    -0.414246718475    12.000000000000
         C            2.800903352193    -1.659620854732     0.523139281525    12.000000000000
         C           -1.128531647807    -1.115423854732    -0.307606718475    12.000000000000
         C           -1.745882647807     1.204287145268     0.082714281525    12.000000000000
         C           -2.418501647807    -1.504165854732    -0.103872718475    12.000000000000
         C           -3.363186647807    -0.472764854732     0.169180281525    12.000000000000
         H            3.333186352193     0.757180145268     1.451522281525     1.007825032230
         H            0.903512352193     0.444224145268     1.694158281525     1.007825032230
         H            0.984134352193     2.134462145268     1.158816281525     1.007825032230
         H            0.526259352193     1.513649145268    -1.124243718475     1.007825032230
         H            3.416297352193    -0.363887854732    -1.065956718475     1.007825032230
         H            1.976785052193    -1.749439554732     1.250285281525     1.007825032230
         H            3.744894352193    -1.609119854732     1.088958281525     1.007825032230
         H            3.102656352193     2.746719145268     0.178652281525     1.007825032230
         H           -0.311934647807    -1.788805854732    -0.543028718475     1.007825032230
         H            2.908835352193    -3.564676854732     0.119881281525     1.007825032230
         H           -2.704662647807    -2.548688854732    -0.152580718475     1.007825032230
         H           -5.029905647807    -1.637346854732    -0.056049718475     1.007825032230
         H           -5.300665647807    -0.013402854732     0.386770281525     1.007825032230

  Basis Set: AUG-CC-PVTZ
    Blend: AUG-CC-PVTZ
  Basis Set: (AUG-CC-PVTZ AUX)
    Blend: AUG-CC-PVTZ-JKFIT
	 Reference Energy          =    -811.4786449580871022 [Eh]
	 Singles Energy            =      -0.0000000000000000 [Eh]
	 Same-Spin Energy          =      -0.8294614900584990 [Eh]
	 Opposite-Spin Energy      =      -2.5250836840843345 [Eh]
	 Correlation Energy        =      -3.3545451741428334 [Eh]
	 Total Energy              =    -814.8331901322299018 [Eh]

	 ================> DF-SCS-MP2 Energies <==================
	-----------------------------------------------------------
	 SCS Same-Spin Scale       =       0.3333333333333333 [-]
	 SCS Opposite-Spin Scale   =       1.2000000000000000 [-]
	 SCS Same-Spin Energy      =      -0.2764871633528330 [Eh]
	 SCS Opposite-Spin Energy  =      -3.0301004209012015 [Eh]
	 SCS Correlation Energy    =      -3.3065875842540344 [Eh]
	 SCS Total Energy          =    -814.7852325423411912 [Eh]
	-----------------------------------------------------------

  Dipole Moment: [D]
     X:     1.1407      Y:    -4.6983      Z:     2.4889     Total:     5.4378

*** Psi4 exiting successfully. Buy a developer a beer!
