                               Psi4 1.3.2 release

  ==> Input File <==

--------------------------------------------------------------------------
#psi4
#
memory 32 gb

molecule  {
0 1
  O        1.3620710    -0.3800110    -0.9318440
  O        3.2020570     1.9012130    -0.2995130
  O        2.7994070    -2.7489470    -0.4002010
  O       -1.3621860     2.3740050     0.1547830
  N       -0.7982440     0.1994180    -0.2292560
  N       -3.0541720     0.8052390     0.2400120
  N       -4.6734100    -0.8124350     0.4126370
  C        2.7015950     0.8755540     0.5594740
  C        1.2368440     1.1072260     0.8878520
  C        2.6518190    -0.3922910    -0.2854700
  C        0.5739580     0.6830040    -0.4149160
  C        2.8020980    -1.6600160     0.5224700
  C       -1.1273370    -1.1158190    -0.3082760
  C       -1.7446880     1.2038920     0.0820450
  C       -2.4173070    -1.5045610    -0.1045420
  C       -3.3619920    -0.4731600     0.1685110
  H        3.3343810     0.7567850     1.4508530
  H        0.9047070     0.4438290     1.6934890
  H        0.9853290     2.1340670     1.1581470
  H        0.5274540     1.5132540    -1.1249130
  H        3.4174920    -0.3642830    -1.0666260
  H        1.9707490    -1.7331840     1.2432230
  H        3.7460890    -1.6095150     1.0882890
  H        3.1038510     2.7463240     0.1779830
  H       -0.3107400    -1.7892010    -0.5436980
  H        2.9100300    -3.5650720     0.1192120
  H       -2.7298640    -2.6454327    -0.1577429
  H       -5.0287110    -1.6377420    -0.0567190
  H       -5.2994710    -0.0137980     0.3861010
units angstrom
no_reorient  #important for SAPT in psi4, default
symmetry c1  #important for SAPT in psi4, default
}

set PROPERTIES_ORIGIN ["COM"]
properties('MP2/aug-cc-pvtz', properties = ['dipole'])
--------------------------------------------------------------------------

    Molecular point group: c1
  Charge       = 0
  Multiplicity = 1
  Basis Set: AUG-CC-PVTZ
    Blend: AUG-CC-PVTZ
  Basis Set: (AUG-CC-PVTZ AUX)
    Blend: AUG-CC-PVTZ-JKFIT

    Orbital Energies [Eh]
    ---------------------

    Doubly Occupied:

       1A    -20.577782     2A    -20.574460     3A    -20.573061
       4A    -20.503362     5A    -15.622238     6A    -15.588255
       7A    -15.541559     8A    -11.370313     9A    -11.346089
      10A    -11.331041    11A    -11.319053    12A    -11.300989
      13A    -11.296926    14A    -11.293190    15A    -11.247884
      16A    -11.236968    17A     -1.416871    18A     -1.382760
      19A     -1.373640    20A     -1.365852    21A     -1.292546
      22A     -1.261733    23A     -1.169426    24A     -1.078524
      25A     -1.067899    26A     -1.026988    27A     -0.926580
      28A     -0.896787    29A     -0.868658    30A     -0.829683
      31A     -0.806504    32A     -0.754529    33A     -0.735624
      34A     -0.720508    35A     -0.706989    36A     -0.692843
      37A     -0.689212    38A     -0.675602    39A     -0.654333
      40A     -0.630381    41A     -0.627524    42A     -0.613945
      43A     -0.604476    44A     -0.594799    45A     -0.587647
      46A     -0.568960    47A     -0.568050    48A     -0.544954
      49A     -0.532643    50A     -0.523270    51A     -0.510566
      52A     -0.486018    53A     -0.482453    54A     -0.468573
      55A     -0.461232    56A     -0.444626    57A     -0.437823
      58A     -0.416549    59A     -0.384042    60A     -0.335347

  @DF-RHF Final Energy:  -811.47182987959957

   => Energetics <=

    Nuclear Repulsion Energy =           1169.3882643541169273
    One-Electron Energy =               -3433.8379126567715502
    Two-Electron Energy =                1452.9778184230549414
    Total Energy =                       -811.4718298795996816
  Basis Set: (AUG-CC-PVTZ AUX)
    Blend: AUG-CC-PVTZ-RI
    Molecular point group: c1

    Geometry (in Angstrom), charge = 0, multiplicity = 1:

       Center              X                  Y                   Z               Mass
    ------------   -----------------  -----------------  -----------------  -----------------
         O            1.362188129177    -0.379583442826    -0.931824026345    15.994914619570
         O            3.202174129177     1.901640557174    -0.299493026345    15.994914619570
         O            2.799524129177    -2.748519442826    -0.400181026345    15.994914619570
         O           -1.362068870823     2.374432557174     0.154802973655    15.994914619570
         N           -0.798126870823     0.199845557174    -0.229236026345    14.003074004430
         N           -3.054054870823     0.805666557174     0.240031973655    14.003074004430
         N           -4.673292870823    -0.812007442826     0.412656973655    14.003074004430
         C            2.701712129177     0.875981557174     0.559493973655    12.000000000000
         C            1.236961129177     1.107653557174     0.887871973655    12.000000000000
         C            2.651936129177    -0.391863442826    -0.285450026345    12.000000000000
         C            0.574075129177     0.683431557174    -0.414896026345    12.000000000000
         C            2.802215129177    -1.659588442826     0.522489973655    12.000000000000
         C           -1.127219870823    -1.115391442826    -0.308256026345    12.000000000000
         C           -1.744570870823     1.204319557174     0.082064973655    12.000000000000
         C           -2.417189870823    -1.504133442826    -0.104522026345    12.000000000000
         C           -3.361874870823    -0.472732442826     0.168530973655    12.000000000000
         H            3.334498129177     0.757212557174     1.450872973655     1.007825032230
         H            0.904824129177     0.444256557174     1.693508973655     1.007825032230
         H            0.985446129177     2.134494557174     1.158166973655     1.007825032230
         H            0.527571129177     1.513681557174    -1.124893026345     1.007825032230
         H            3.417609129177    -0.363855442826    -1.066606026345     1.007825032230
         H            1.970866129177    -1.732756442826     1.243242973655     1.007825032230
         H            3.746206129177    -1.609087442826     1.088308973655     1.007825032230
         H            3.103968129177     2.746751557174     0.178002973655     1.007825032230
         H           -0.310622870823    -1.788773442826    -0.543678026345     1.007825032230
         H            2.910147129177    -3.564644442826     0.119231973655     1.007825032230
         H           -2.729746870823    -2.645005142826    -0.157722926345     1.007825032230
         H           -5.028593870823    -1.637314442826    -0.056699026345     1.007825032230
         H           -5.299353870823    -0.013370442826     0.386120973655     1.007825032230

  Basis Set: AUG-CC-PVTZ
    Blend: AUG-CC-PVTZ
  Basis Set: (AUG-CC-PVTZ AUX)
    Blend: AUG-CC-PVTZ-JKFIT
	 Reference Energy          =    -811.4718298795995679 [Eh]
	 Singles Energy            =      -0.0000000000000000 [Eh]
	 Same-Spin Energy          =      -0.8298852663005833 [Eh]
	 Opposite-Spin Energy      =      -2.5260519837622137 [Eh]
	 Correlation Energy        =      -3.3559372500627971 [Eh]
	 Total Energy              =    -814.8277671296623339 [Eh]

	 ================> DF-SCS-MP2 Energies <==================
	-----------------------------------------------------------
	 SCS Same-Spin Scale       =       0.3333333333333333 [-]
	 SCS Opposite-Spin Scale   =       1.2000000000000000 [-]
	 SCS Same-Spin Energy      =      -0.2766284221001944 [Eh]
	 SCS Opposite-Spin Energy  =      -3.0312623805146566 [Eh]
	 SCS Correlation Energy    =      -3.3078908026148510 [Eh]
	 SCS Total Energy          =    -814.7797206822144744 [Eh]
	-----------------------------------------------------------

  Dipole Moment: [D]
     X:     1.0803      Y:    -4.6584      Z:     2.4933     Total:     5.3930

*** Psi4 exiting successfully. Buy a developer a beer!
