                               Psi4 1.3.2 release

  ==> Input File <==

--------------------------------------------------------------------------
#psi4
#
memory 32 gb

molecule  {
0 1
  O        1.3620710    -0.3800110    -0.9318440
  O        3.2020570     1.9012130    -0.2995130
  O        2.7994070    -2.7489470    -0.4002010
  O       -1.3621860     2.3740050     0.1547830
  N       -0.8065058     0.2172350    -0.2456753
  N       -3.0541720     0.8052390     0.2400120
  N       -4.6734100    -0.8124350     0.4126370
  C        2.7015950     0.8755540     0.5594740
  C        1.2368440     1.1072260     0.8878520
  C        2.6518190    -0.3922910    -0.2854700
  C        0.5739580     0.6830040    -0.4149160
  C        2.8020980    -1.6600160     0.5224700
  C       -1.1273370    -1.1158190    -0.3082760
  C       -1.7446880     1.2038920     0.0820450
  C       -2.4173070    -1.5045610    -0.1045420
  C       -3.3619920    -0.4731600     0.1685110
  H        3.3343810     0.7567850     1.4508530
  H        0.9047070     0.4438290     1.6934890
  H        0.9853290     2.1340670     1.1581470
  H        0.5085414     1.5109839    -1.1260724
  H        3.4174920    -0.3642830    -1.0666260
  H        1.9707490    -1.7331840     1.2432230
  H        3.7460890    -1.6095150     1.0882890
  H        3.1038510     2.7463240     0.1779830
  H       -0.3107400    -1.7892010    -0.5436980
  H        2.9100300    -3.5650720     0.1192120
  H       -2.7034680    -2.5490840    -0.1532500
  H       -5.0287110    -1.6377420    -0.0567190
  H       -5.2994710    -0.0137980     0.3861010
units angstrom
no_reorient  #important for SAPT in psi4, default
symmetry c1  #important for SAPT in psi4, default
}

set PROPERTIES_ORIGIN ["COM"]
properties('MP2/aug-cc-pvtz', properties = ['dipole'])
--------------------------------------------------------------------------

    Molecular point group: c1
  Charge       = 0
  Multiplicity = 1
  Basis Set: AUG-CC-PVTZ
    Blend: AUG-CC-PVTZ
  Basis Set: (AUG-CC-PVTZ AUX)
    Blend: AUG-CC-PVTZ-JKFIT

    Orbital Energies [Eh]
    ---------------------

    Doubly Occupied:

       1A    -20.577878     2A    -20.574099     3A    -20.573302
       4A    -20.500550     5A    -15.620843     6A    -15.588843
       7A    -15.540863     8A    -11.367680     9A    -11.345479
      10A    -11.330138    11A    -11.319438    12A    -11.300821
      13A    -11.296980    14A    -11.293221    15A    -11.238994
      16A    -11.236865    17A     -1.416498    18A     -1.382519
      19A     -1.373562    20A     -1.365580    21A     -1.291186
      22A     -1.259908    23A     -1.169057    24A     -1.078802
      25A     -1.069184    26A     -1.028728    27A     -0.926611
      28A     -0.898359    29A     -0.869207    30A     -0.830282
      31A     -0.806529    32A     -0.754525    33A     -0.737443
      34A     -0.720733    35A     -0.707130    36A     -0.692644
      37A     -0.688743    38A     -0.676152    39A     -0.657708
      40A     -0.637464    41A     -0.627827    42A     -0.618170
      43A     -0.604855    44A     -0.595328    45A     -0.588330
      46A     -0.571677    47A     -0.568790    48A     -0.544727
      49A     -0.532917    50A     -0.523083    51A     -0.510270
      52A     -0.485718    53A     -0.479700    54A     -0.468520
      55A     -0.460720    56A     -0.443691    57A     -0.437714
      58A     -0.416402    59A     -0.383543    60A     -0.336235

  @DF-RHF Final Energy:  -811.47887583822103

   => Energetics <=

    Nuclear Repulsion Energy =           1169.8644949116221596
    One-Electron Energy =               -3434.8012123834905651
    Two-Electron Energy =                1453.4578416336471491
    Total Energy =                       -811.4788758382210290
  Basis Set: (AUG-CC-PVTZ AUX)
    Blend: AUG-CC-PVTZ-RI
    Molecular point group: c1

    Geometry (in Angstrom), charge = 0, multiplicity = 1:

       Center              X                  Y                   Z               Mass
    ------------   -----------------  -----------------  -----------------  -----------------
         O            1.362664364812    -0.381099610948    -0.930826358091    15.994914619570
         O            3.202650364812     1.900124389052    -0.298495358091    15.994914619570
         O            2.800000364812    -2.750035610948    -0.399183358091    15.994914619570
         O           -1.361592635188     2.372916389052     0.155800641909    15.994914619570
         N           -0.805912435188     0.216146389052    -0.244657658091    14.003074004430
         N           -3.053578635188     0.804150389052     0.241029641909    14.003074004430
         N           -4.672816635188    -0.813523610948     0.413654641909    14.003074004430
         C            2.702188364812     0.874465389052     0.560491641909    12.000000000000
         C            1.237437364812     1.106137389052     0.888869641909    12.000000000000
         C            2.652412364812    -0.393379610948    -0.284452358091    12.000000000000
         C            0.574551364812     0.681915389052    -0.413898358091    12.000000000000
         C            2.802691364812    -1.661104610948     0.523487641909    12.000000000000
         C           -1.126743635188    -1.116907610948    -0.307258358091    12.000000000000
         C           -1.744094635188     1.202803389052     0.083062641909    12.000000000000
         C           -2.416713635188    -1.505649610948    -0.103524358091    12.000000000000
         C           -3.361398635188    -0.474248610948     0.169528641909    12.000000000000
         H            3.334974364812     0.755696389052     1.451870641909     1.007825032230
         H            0.905300364812     0.442740389052     1.694506641909     1.007825032230
         H            0.985922364812     2.132978389052     1.159164641909     1.007825032230
         H            0.509134764812     1.509895289052    -1.125054758091     1.007825032230
         H            3.418085364812    -0.365371610948    -1.065608358091     1.007825032230
         H            1.971342364812    -1.734272610948     1.244240641909     1.007825032230
         H            3.746682364812    -1.610603610948     1.089306641909     1.007825032230
         H            3.104444364812     2.745235389052     0.179000641909     1.007825032230
         H           -0.310146635188    -1.790289610948    -0.542680358091     1.007825032230
         H            2.910623364812    -3.566160610948     0.120229641909     1.007825032230
         H           -2.702874635188    -2.550172610948    -0.152232358091     1.007825032230
         H           -5.028117635188    -1.638830610948    -0.055701358091     1.007825032230
         H           -5.298877635188    -0.014886610948     0.387118641909     1.007825032230

  Basis Set: AUG-CC-PVTZ
    Blend: AUG-CC-PVTZ
  Basis Set: (AUG-CC-PVTZ AUX)
    Blend: AUG-CC-PVTZ-JKFIT
	 Reference Energy          =    -811.4788758382210290 [Eh]
	 Singles Energy            =      -0.0000000000000000 [Eh]
	 Same-Spin Energy          =      -0.8295518813824847 [Eh]
	 Opposite-Spin Energy      =      -2.5250942196031918 [Eh]
	 Correlation Energy        =      -3.3546461009856765 [Eh]
	 Total Energy              =    -814.8335219392066620 [Eh]

	 ================> DF-SCS-MP2 Energies <==================
	-----------------------------------------------------------
	 SCS Same-Spin Scale       =       0.3333333333333333 [-]
	 SCS Opposite-Spin Scale   =       1.2000000000000000 [-]
	 SCS Same-Spin Energy      =      -0.2765172937941616 [Eh]
	 SCS Opposite-Spin Energy  =      -3.0301130635238303 [Eh]
	 SCS Correlation Energy    =      -3.3066303573179918 [Eh]
	 SCS Total Energy          =    -814.7855061955390283 [Eh]
	-----------------------------------------------------------

  Dipole Moment: [D]
     X:     1.0448      Y:    -4.7665      Z:     2.4947     Total:     5.4804

*** Psi4 exiting successfully. Buy a developer a beer!
