                               Psi4 1.3.2 release

  ==> Input File <==

--------------------------------------------------------------------------
#psi4
#
memory 32 gb

molecule  {
0 1
  O        1.3620710    -0.3800110    -0.9318440
  O        3.2020570     1.9012130    -0.2995130
  O        2.7994070    -2.7489470    -0.4002010
  O       -1.3621860     2.3740050     0.1547830
  N       -0.7982440     0.1994180    -0.2292560
  N       -3.0541720     0.8052390     0.2400120
  N       -4.6734100    -0.8124350     0.4126370
  C        2.7015950     0.8755540     0.5594740
  C        1.2368440     1.1072260     0.8878520
  C        2.6518190    -0.3922910    -0.2854700
  C        0.5816973     0.6589026    -0.4187270
  C        2.8020980    -1.6600160     0.5224700
  C       -1.1046399    -1.1210184    -0.3127066
  C       -1.7446880     1.2038920     0.0820450
  C       -2.4173070    -1.5045610    -0.1045420
  C       -3.3619920    -0.4731600     0.1685110
  H        3.3343810     0.7567850     1.4508530
  H        0.9047070     0.4438290     1.6934890
  H        0.9853290     2.1340670     1.1581470
  H        0.5274540     1.5132540    -1.1249130
  H        3.4174920    -0.3642830    -1.0666260
  H        1.9707490    -1.7331840     1.2432230
  H        3.7460890    -1.6095150     1.0882890
  H        3.1038510     2.7463240     0.1779830
  H       -0.3107400    -1.7892010    -0.5436980
  H        2.9100300    -3.5650720     0.1192120
  H       -2.7034680    -2.5490840    -0.1532500
  H       -5.0287110    -1.6377420    -0.0567190
  H       -5.2994710    -0.0137980     0.3861010
units angstrom
no_reorient  #important for SAPT in psi4, default
symmetry c1  #important for SAPT in psi4, default
}

set PROPERTIES_ORIGIN ["COM"]
properties('MP2/aug-cc-pvtz', properties = ['dipole'])
--------------------------------------------------------------------------

    Molecular point group: c1
  Charge       = 0
  Multiplicity = 1
  Basis Set: AUG-CC-PVTZ
    Blend: AUG-CC-PVTZ
  Basis Set: (AUG-CC-PVTZ AUX)
    Blend: AUG-CC-PVTZ-JKFIT

    Orbital Energies [Eh]
    ---------------------

    Doubly Occupied:

       1A    -20.578908     2A    -20.575832     3A    -20.574529
       4A    -20.502789     5A    -15.622757     6A    -15.587410
       7A    -15.540445     8A    -11.370427     9A    -11.344159
      10A    -11.330501    11A    -11.320109    12A    -11.301247
      13A    -11.298218    14A    -11.295151    15A    -11.238150
      16A    -11.236670    17A     -1.423957    18A     -1.382304
      19A     -1.374412    20A     -1.368060    21A     -1.291457
      22A     -1.261779    23A     -1.168582    24A     -1.077978
      25A     -1.067431    26A     -1.026860    27A     -0.926520
      28A     -0.900664    29A     -0.868872    30A     -0.830418
      31A     -0.807467    32A     -0.753250    33A     -0.740237
      34A     -0.722093    35A     -0.707896    36A     -0.694314
      37A     -0.689346    38A     -0.677347    39A     -0.659330
      40A     -0.636131    41A     -0.627282    42A     -0.619614
      43A     -0.605841    44A     -0.596286    45A     -0.591040
      46A     -0.570996    47A     -0.569852    48A     -0.546201
      49A     -0.532503    50A     -0.524156    51A     -0.509172
      52A     -0.487644    53A     -0.481436    54A     -0.469626
      55A     -0.461520    56A     -0.443691    57A     -0.436420
      58A     -0.416615    59A     -0.382699    60A     -0.331647

  @DF-RHF Final Energy:  -811.47748345670254

   => Energetics <=

    Nuclear Repulsion Energy =           1170.0726038846553365
    One-Electron Energy =               -3435.1436788273185812
    Two-Electron Energy =                1453.5935914859608147
    Total Energy =                       -811.4774834567026573
  Basis Set: (AUG-CC-PVTZ AUX)
    Blend: AUG-CC-PVTZ-RI
    Molecular point group: c1

    Geometry (in Angstrom), charge = 0, multiplicity = 1:

       Center              X                  Y                   Z               Mass
    ------------   -----------------  -----------------  -----------------  -----------------
         O            1.360462653356    -0.378462714087    -0.931408460309    15.994914619570
         O            3.200448653356     1.902761285913    -0.299077460309    15.994914619570
         O            2.797798653356    -2.747398714087    -0.399765460309    15.994914619570
         O           -1.363794346644     2.375553285913     0.155218539691    15.994914619570
         N           -0.799852346644     0.200966285913    -0.228820460309    14.003074004430
         N           -3.055780346644     0.806787285913     0.240447539691    14.003074004430
         N           -4.675018346644    -0.810886714087     0.413072539691    14.003074004430
         C            2.699986653356     0.877102285913     0.559909539691    12.000000000000
         C            1.235235653356     1.108774285913     0.888287539691    12.000000000000
         C            2.650210653356    -0.390742714087    -0.285034460309    12.000000000000
         C            0.580088953356     0.660450885913    -0.418291460309    12.000000000000
         C            2.800489653356    -1.658467714087     0.522905539691    12.000000000000
         C           -1.106248246644    -1.119470114087    -0.312271060309    12.000000000000
         C           -1.746296346644     1.205440285913     0.082480539691    12.000000000000
         C           -2.418915346644    -1.503012714087    -0.104106460309    12.000000000000
         C           -3.363600346644    -0.471611714087     0.168946539691    12.000000000000
         H            3.332772653356     0.758333285913     1.451288539691     1.007825032230
         H            0.903098653356     0.445377285913     1.693924539691     1.007825032230
         H            0.983720653356     2.135615285913     1.158582539691     1.007825032230
         H            0.525845653356     1.514802285913    -1.124477460309     1.007825032230
         H            3.415883653356    -0.362734714087    -1.066190460309     1.007825032230
         H            1.969140653356    -1.731635714087     1.243658539691     1.007825032230
         H            3.744480653356    -1.607966714087     1.088724539691     1.007825032230
         H            3.102242653356     2.747872285913     0.178418539691     1.007825032230
         H           -0.312348346644    -1.787652714087    -0.543262460309     1.007825032230
         H            2.908421653356    -3.563523714087     0.119647539691     1.007825032230
         H           -2.705076346644    -2.547535714087    -0.152814460309     1.007825032230
         H           -5.030319346644    -1.636193714087    -0.056283460309     1.007825032230
         H           -5.301079346644    -0.012249714087     0.386536539691     1.007825032230

  Basis Set: AUG-CC-PVTZ
    Blend: AUG-CC-PVTZ
  Basis Set: (AUG-CC-PVTZ AUX)
    Blend: AUG-CC-PVTZ-JKFIT
	 Reference Energy          =    -811.4774834567025437 [Eh]
	 Singles Energy            =      -0.0000000000000000 [Eh]
	 Same-Spin Energy          =      -0.8299204421276087 [Eh]
	 Opposite-Spin Energy      =      -2.5253454833207289 [Eh]
	 Correlation Energy        =      -3.3552659254483377 [Eh]
	 Total Energy              =    -814.8327493821508369 [Eh]

	 ================> DF-SCS-MP2 Energies <==================
	-----------------------------------------------------------
	 SCS Same-Spin Scale       =       0.3333333333333333 [-]
	 SCS Opposite-Spin Scale   =       1.2000000000000000 [-]
	 SCS Same-Spin Energy      =      -0.2766401473758696 [Eh]
	 SCS Opposite-Spin Energy  =      -3.0304145799848747 [Eh]
	 SCS Correlation Energy    =      -3.3070547273607445 [Eh]
	 SCS Total Energy          =    -814.7845381840633081 [Eh]
	-----------------------------------------------------------

  Dipole Moment: [D]
     X:     1.1995      Y:    -4.7303      Z:     2.4729     Total:     5.4708

*** Psi4 exiting successfully. Buy a developer a beer!
