                               Psi4 1.3.2 release

  ==> Input File <==

--------------------------------------------------------------------------
#psi4
#
memory 32 gb

molecule  {
0 1
  O        1.3620710    -0.3800110    -0.9318440
  O        3.2020570     1.9012130    -0.2995130
  O        2.7994070    -2.7489470    -0.4002010
  O       -1.3621860     2.3740050     0.1547830
  N       -0.7982440     0.1994180    -0.2292560
  N       -3.0541720     0.8052390     0.2400120
  N       -4.6734100    -0.8124350     0.4126370
  C        2.7015950     0.8755540     0.5594740
  C        1.2368440     1.1072260     0.8878520
  C        2.6518190    -0.3922910    -0.2854700
  C        0.5739580     0.6830040    -0.4149160
  C        2.8020980    -1.6600160     0.5224700
  C       -1.1273370    -1.1158190    -0.3082760
  C       -1.7662888     1.2720676     0.0915054
  C       -2.4173070    -1.5045610    -0.1045420
  C       -3.4278176    -0.4560856     0.1798551
  H        3.3343810     0.7567850     1.4508530
  H        0.9047070     0.4438290     1.6934890
  H        0.9853290     2.1340670     1.1581470
  H        0.5274540     1.5132540    -1.1249130
  H        3.4174920    -0.3642830    -1.0666260
  H        1.9707490    -1.7331840     1.2432230
  H        3.7460890    -1.6095150     1.0882890
  H        3.1038510     2.7463240     0.1779830
  H       -0.3107400    -1.7892010    -0.5436980
  H        2.9100300    -3.5650720     0.1192120
  H       -2.7034680    -2.5490840    -0.1532500
  H       -5.0287110    -1.6377420    -0.0567190
  H       -5.2994710    -0.0137980     0.3861010
units angstrom
no_reorient  #important for SAPT in psi4, default
symmetry c1  #important for SAPT in psi4, default
}

set PROPERTIES_ORIGIN ["COM"]
properties('MP2/aug-cc-pvtz', properties = ['dipole'])
--------------------------------------------------------------------------

    Molecular point group: c1
  Charge       = 0
  Multiplicity = 1
  Basis Set: AUG-CC-PVTZ
    Blend: AUG-CC-PVTZ
  Basis Set: (AUG-CC-PVTZ AUX)
    Blend: AUG-CC-PVTZ-JKFIT

    Orbital Energies [Eh]
    ---------------------

    Doubly Occupied:

       1A    -20.574538     2A    -20.572162     3A    -20.567415
       4A    -20.518903     5A    -15.604053     6A    -15.596883
       7A    -15.532515     8A    -11.373415     9A    -11.347224
      10A    -11.323557    11A    -11.306337    12A    -11.297929
      13A    -11.293463    14A    -11.289275    15A    -11.233377
      16A    -11.229633    17A     -1.419309    18A     -1.404084
      19A     -1.370708    20A     -1.364517    21A     -1.303822
      22A     -1.259259    23A     -1.171988    24A     -1.073071
      25A     -1.058166    26A     -1.016302    27A     -0.920486
      28A     -0.879827    29A     -0.867553    30A     -0.827685
      31A     -0.801832    32A     -0.754161    33A     -0.730378
      34A     -0.723301    35A     -0.714702    36A     -0.690030
      37A     -0.688353    38A     -0.676058    39A     -0.654891
      40A     -0.633618    41A     -0.631081    42A     -0.621282
      43A     -0.602355    44A     -0.593965    45A     -0.584752
      46A     -0.570176    47A     -0.565902    48A     -0.545249
      49A     -0.540245    50A     -0.519944    51A     -0.514407
      52A     -0.485958    53A     -0.482147    54A     -0.465319
      55A     -0.461603    56A     -0.450896    57A     -0.433764
      58A     -0.399627    59A     -0.382968    60A     -0.324657

  @DF-RHF Final Energy:  -811.46965730027728

   => Energetics <=

    Nuclear Repulsion Energy =           1168.5362454117644120
    One-Electron Energy =               -3432.3296534894443539
    Two-Electron Energy =                1452.3237507774026653
    Total Energy =                       -811.4696573002772766
  Basis Set: (AUG-CC-PVTZ AUX)
    Blend: AUG-CC-PVTZ-RI
    Molecular point group: c1

    Geometry (in Angstrom), charge = 0, multiplicity = 1:

       Center              X                  Y                   Z               Mass
    ------------   -----------------  -----------------  -----------------  -----------------
         O            1.366690800022    -0.384515846908    -0.932943324328    15.994914619570
         O            3.206676800022     1.896708153092    -0.300612324328    15.994914619570
         O            2.804026800022    -2.753451846908    -0.401300324328    15.994914619570
         O           -1.357566199978     2.369500153092     0.153683675672    15.994914619570
         N           -0.793624199978     0.194913153092    -0.230355324328    14.003074004430
         N           -3.049552199978     0.800734153092     0.238912675672    14.003074004430
         N           -4.668790199978    -0.816939846908     0.411537675672    14.003074004430
         C            2.706214800022     0.871049153092     0.558374675672    12.000000000000
         C            1.241463800022     1.102721153092     0.886752675672    12.000000000000
         C            2.656438800022    -0.396795846908    -0.286569324328    12.000000000000
         C            0.578577800022     0.678499153092    -0.416015324328    12.000000000000
         C            2.806717800022    -1.664520846908     0.521370675672    12.000000000000
         C           -1.122717199978    -1.120323846908    -0.309375324328    12.000000000000
         C           -1.761668999978     1.267562753092     0.090406075672    12.000000000000
         C           -2.412687199978    -1.509065846908    -0.105641324328    12.000000000000
         C           -3.423197799978    -0.460590446908     0.178755775672    12.000000000000
         H            3.339000800022     0.752280153092     1.449753675672     1.007825032230
         H            0.909326800022     0.439324153092     1.692389675672     1.007825032230
         H            0.989948800022     2.129562153092     1.157047675672     1.007825032230
         H            0.532073800022     1.508749153092    -1.126012324328     1.007825032230
         H            3.422111800022    -0.368787846908    -1.067725324328     1.007825032230
         H            1.975368800022    -1.737688846908     1.242123675672     1.007825032230
         H            3.750708800022    -1.614019846908     1.087189675672     1.007825032230
         H            3.108470800022     2.741819153092     0.176883675672     1.007825032230
         H           -0.306120199978    -1.793705846908    -0.544797324328     1.007825032230
         H            2.914649800022    -3.569576846908     0.118112675672     1.007825032230
         H           -2.698848199978    -2.553588846908    -0.154349324328     1.007825032230
         H           -5.024091199978    -1.642246846908    -0.057818324328     1.007825032230
         H           -5.294851199978    -0.018302846908     0.385001675672     1.007825032230

  Basis Set: AUG-CC-PVTZ
    Blend: AUG-CC-PVTZ
  Basis Set: (AUG-CC-PVTZ AUX)
    Blend: AUG-CC-PVTZ-JKFIT
	 Reference Energy          =    -811.4696573002772766 [Eh]
	 Singles Energy            =      -0.0000000000000000 [Eh]
	 Same-Spin Energy          =      -0.8286098244590969 [Eh]
	 Opposite-Spin Energy      =      -2.5232890426805232 [Eh]
	 Correlation Energy        =      -3.3518988671396199 [Eh]
	 Total Energy              =    -814.8215561674169294 [Eh]

	 ================> DF-SCS-MP2 Energies <==================
	-----------------------------------------------------------
	 SCS Same-Spin Scale       =       0.3333333333333333 [-]
	 SCS Opposite-Spin Scale   =       1.2000000000000000 [-]
	 SCS Same-Spin Energy      =      -0.2762032748196990 [Eh]
	 SCS Opposite-Spin Energy  =      -3.0279468512166279 [Eh]
	 SCS Correlation Energy    =      -3.3041501260363271 [Eh]
	 SCS Total Energy          =    -814.7738074263136241 [Eh]
	-----------------------------------------------------------

  Dipole Moment: [D]
     X:     0.3779      Y:    -4.0947      Z:     2.6526     Total:     4.8934

*** Psi4 exiting successfully. Buy a developer a beer!
