                               Psi4 1.3.2 release

  ==> Input File <==

--------------------------------------------------------------------------
#psi4
#
memory 32 gb

molecule  {
0 1
  O        1.3620710    -0.3800110    -0.9318440
  O        3.2020570     1.9012130    -0.2995130
  O        2.7994070    -2.7489470    -0.4002010
  O       -1.3722246     2.3770911     0.1571315
  N       -0.8071516     0.1908948    -0.2285908
  N       -3.0541720     0.8052390     0.2400120
  N       -4.6734100    -0.8124350     0.4126370
  C        2.7015950     0.8755540     0.5594740
  C        1.2368440     1.1072260     0.8878520
  C        2.6518190    -0.3922910    -0.2854700
  C        0.5739580     0.6830040    -0.4149160
  C        2.8020980    -1.6600160     0.5224700
  C       -1.1273370    -1.1158190    -0.3082760
  C       -1.7446880     1.2038920     0.0820450
  C       -2.4173070    -1.5045610    -0.1045420
  C       -3.3619920    -0.4731600     0.1685110
  H        3.3343810     0.7567850     1.4508530
  H        0.9047070     0.4438290     1.6934890
  H        0.9853290     2.1340670     1.1581470
  H        0.5274540     1.5132540    -1.1249130
  H        3.4174920    -0.3642830    -1.0666260
  H        1.9707490    -1.7331840     1.2432230
  H        3.7460890    -1.6095150     1.0882890
  H        3.1038510     2.7463240     0.1779830
  H       -0.3107400    -1.7892010    -0.5436980
  H        2.9100300    -3.5650720     0.1192120
  H       -2.7034680    -2.5490840    -0.1532500
  H       -5.0287110    -1.6377420    -0.0567190
  H       -5.2994710    -0.0137980     0.3861010
units angstrom
no_reorient  #important for SAPT in psi4, default
symmetry c1  #important for SAPT in psi4, default
}

set PROPERTIES_ORIGIN ["COM"]
properties('MP2/aug-cc-pvtz', properties = ['dipole'])
--------------------------------------------------------------------------

    Molecular point group: c1
  Charge       = 0
  Multiplicity = 1
  Basis Set: AUG-CC-PVTZ
    Blend: AUG-CC-PVTZ
  Basis Set: (AUG-CC-PVTZ AUX)
    Blend: AUG-CC-PVTZ-JKFIT

    Orbital Energies [Eh]
    ---------------------

    Doubly Occupied:

       1A    -20.578041     2A    -20.574924     3A    -20.573578
       4A    -20.503610     5A    -15.622508     6A    -15.587419
       7A    -15.539707     8A    -11.369950     9A    -11.343866
      10A    -11.332414    11A    -11.317231    12A    -11.301540
      13A    -11.297237    14A    -11.293603    15A    -11.237754
      16A    -11.235726    17A     -1.416991    18A     -1.382554
      19A     -1.373985    20A     -1.366152    21A     -1.292961
      22A     -1.262070    23A     -1.168063    24A     -1.079259
      25A     -1.068878    26A     -1.028325    27A     -0.926620
      28A     -0.898397    29A     -0.868876    30A     -0.831013
      31A     -0.806666    32A     -0.753836    33A     -0.739558
      34A     -0.721405    35A     -0.706285    36A     -0.693106
      37A     -0.689423    38A     -0.675619    39A     -0.656532
      40A     -0.637199    41A     -0.628060    42A     -0.618544
      43A     -0.604741    44A     -0.595055    45A     -0.588991
      46A     -0.572664    47A     -0.569120    48A     -0.545180
      49A     -0.532333    50A     -0.524164    51A     -0.510836
      52A     -0.486622    53A     -0.483349    54A     -0.468938
      55A     -0.461879    56A     -0.444459    57A     -0.437961
      58A     -0.415940    59A     -0.383231    60A     -0.334164

  @DF-RHF Final Energy:  -811.47913195875299

   => Energetics <=

    Nuclear Repulsion Energy =           1169.7508853256929342
    One-Electron Energy =               -3434.5418101474192554
    Two-Electron Energy =                1453.3117928629735616
    Total Energy =                       -811.4791319587529870
  Basis Set: (AUG-CC-PVTZ AUX)
    Blend: AUG-CC-PVTZ-RI
    Molecular point group: c1

    Geometry (in Angstrom), charge = 0, multiplicity = 1:

       Center              X                  Y                   Z               Mass
    ------------   -----------------  -----------------  -----------------  -----------------
         O            1.363327312285    -0.379702838066    -0.932050398364    15.994914619570
         O            3.203313312285     1.901521161934    -0.299719398364    15.994914619570
         O            2.800663312285    -2.748638838066    -0.400407398364    15.994914619570
         O           -1.370968287715     2.377399261934     0.156925101636    15.994914619570
         N           -0.805895287715     0.191202961934    -0.228797198364    14.003074004430
         N           -3.052915687715     0.805547161934     0.239805601636    14.003074004430
         N           -4.672153687715    -0.812126838066     0.412430601636    14.003074004430
         C            2.702851312285     0.875862161934     0.559267601636    12.000000000000
         C            1.238100312285     1.107534161934     0.887645601636    12.000000000000
         C            2.653075312285    -0.391982838066    -0.285676398364    12.000000000000
         C            0.575214312285     0.683312161934    -0.415122398364    12.000000000000
         C            2.803354312285    -1.659707838066     0.522263601636    12.000000000000
         C           -1.126080687715    -1.115510838066    -0.308482398364    12.000000000000
         C           -1.743431687715     1.204200161934     0.081838601636    12.000000000000
         C           -2.416050687715    -1.504252838066    -0.104748398364    12.000000000000
         C           -3.360735687715    -0.472851838066     0.168304601636    12.000000000000
         H            3.335637312285     0.757093161934     1.450646601636     1.007825032230
         H            0.905963312285     0.444137161934     1.693282601636     1.007825032230
         H            0.986585312285     2.134375161934     1.157940601636     1.007825032230
         H            0.528710312285     1.513562161934    -1.125119398364     1.007825032230
         H            3.418748312285    -0.363974838066    -1.066832398364     1.007825032230
         H            1.972005312285    -1.732875838066     1.243016601636     1.007825032230
         H            3.747345312285    -1.609206838066     1.088082601636     1.007825032230
         H            3.105107312285     2.746632161934     0.177776601636     1.007825032230
         H           -0.309483687715    -1.788892838066    -0.543904398364     1.007825032230
         H            2.911286312285    -3.564763838066     0.119005601636     1.007825032230
         H           -2.702211687715    -2.548775838066    -0.153456398364     1.007825032230
         H           -5.027454687715    -1.637433838066    -0.056925398364     1.007825032230
         H           -5.298214687715    -0.013489838066     0.385894601636     1.007825032230

  Basis Set: AUG-CC-PVTZ
    Blend: AUG-CC-PVTZ
  Basis Set: (AUG-CC-PVTZ AUX)
    Blend: AUG-CC-PVTZ-JKFIT
	 Reference Energy          =    -811.4791319587529870 [Eh]
	 Singles Energy            =      -0.0000000000000000 [Eh]
	 Same-Spin Energy          =      -0.8297033945706092 [Eh]
	 Opposite-Spin Energy      =      -2.5251479152247702 [Eh]
	 Correlation Energy        =      -3.3548513097953796 [Eh]
	 Total Energy              =    -814.8339832685484225 [Eh]

	 ================> DF-SCS-MP2 Energies <==================
	-----------------------------------------------------------
	 SCS Same-Spin Scale       =       0.3333333333333333 [-]
	 SCS Opposite-Spin Scale   =       1.2000000000000000 [-]
	 SCS Same-Spin Energy      =      -0.2765677981902031 [Eh]
	 SCS Opposite-Spin Energy  =      -3.0301774982697243 [Eh]
	 SCS Correlation Energy    =      -3.3067452964599271 [Eh]
	 SCS Total Energy          =    -814.7858772552128812 [Eh]
	-----------------------------------------------------------

  Dipole Moment: [D]
     X:     1.1714      Y:    -4.6548      Z:     2.4816     Total:     5.4034

*** Psi4 exiting successfully. Buy a developer a beer!
