                               Psi4 1.4a3.dev225

  ==> Input File <==

--------------------------------------------------------------------------
#psi4
#
memory 32 gb

molecule  {
0 1
  O       -1.4695130     0.3030610    -1.0874480
  O       -3.6436400    -1.4204040    -0.2669360
  O       -1.6911330     2.8536240     0.0000030
  O        1.1857770    -2.4961310     0.0874550
  N        0.6842480    -0.3150290    -0.3399290
  N        2.9133760    -0.9647370     0.2108410
  N        4.5636770     0.6178870     0.3785230
  C       -2.7686820    -0.6858470     0.5863090
  C       -1.3787780    -1.3118450     0.6568060
  C       -2.4925280     0.6283540    -0.1295840
  C       -0.6939390    -0.7805590    -0.6115670
  C       -2.0562750     1.6961080     0.7778220
  C        1.0545030     0.9838330    -0.4888120
  C        1.6080830    -1.3384950     0.0010630
  C        2.3487550     1.3478080    -0.2622830
  C        3.2578570     0.3046130     0.0876290
  H       -3.2188600    -0.5381750     1.5798200
  H       -0.8341690    -0.9801840     1.5464130
  H       -1.3950130    -2.4033150     0.6754970
  H       -0.6263030    -1.5384450    -1.3968420
  H       -3.3591510     0.9641520    -0.7058050
  H       -1.1849610     1.3939850     1.4098140
  H       -2.8667900     1.9743150     1.4948250
  H       -3.6905400    -2.3294490     0.0774600
  H        0.2668220     1.6750250    -0.7707300
  H       -1.4321050     3.5760960     0.5972330
  H        2.6621150     2.3809760    -0.3596430
  H        4.9550500     1.4416620    -0.0591730
  H        5.1797170    -0.1867780     0.4106900
units angstrom
no_reorient  #important for SAPT in psi4, default
symmetry c1  #important for SAPT in psi4, default
}

set PROPERTIES_ORIGIN ["COM"]
properties('MP2/aug-cc-pvtz', properties = ['dipole'])
--------------------------------------------------------------------------

    Molecular point group: c1
  Charge       = 0
  Multiplicity = 1
  Basis Set: AUG-CC-PVTZ
    Blend: AUG-CC-PVTZ
  Basis Set: (AUG-CC-PVTZ AUX)
    Blend: AUG-CC-PVTZ-JKFIT

    Orbital Energies [Eh]
    ---------------------

    Doubly Occupied:

       1A    -20.580767     2A    -20.574903     3A    -20.573511
       4A    -20.501948     5A    -15.619107     6A    -15.588861
       7A    -15.539789     8A    -11.368805     9A    -11.345760
      10A    -11.333603    11A    -11.314420    12A    -11.302421
      13A    -11.300958    14A    -11.293626    15A    -11.237784
      16A    -11.235185    17A     -1.419951    18A     -1.380284
      19A     -1.373717    20A     -1.365560    21A     -1.290261
      22A     -1.258721    23A     -1.168510    24A     -1.079363
      25A     -1.071322    26A     -1.028722    27A     -0.930430
      28A     -0.894759    29A     -0.867771    30A     -0.831063
      31A     -0.805628    32A     -0.753728    33A     -0.737779
      34A     -0.725565    35A     -0.708424    36A     -0.700451
      37A     -0.691322    38A     -0.672815    39A     -0.650689
      40A     -0.639881    41A     -0.623019    42A     -0.617734
      43A     -0.609098    44A     -0.596812    45A     -0.587283
      46A     -0.573028    47A     -0.563526    48A     -0.548420
      49A     -0.526645    50A     -0.523400    51A     -0.511388
      52A     -0.485619    53A     -0.480515    54A     -0.468540
      55A     -0.461703    56A     -0.451086    57A     -0.440952
      58A     -0.413856    59A     -0.382438    60A     -0.333901

  @DF-RHF Final Energy:  -811.47628530494501

   => Energetics <=

    Nuclear Repulsion Energy =           1185.9319663261728692
    One-Electron Energy =               -3466.9022466856886240
    Two-Electron Energy =                1469.4939950545704050
    Total Energy =                       -811.4762853049451223
  Basis Set: (AUG-CC-PVTZ AUX)
    Blend: AUG-CC-PVTZ-RI
    Molecular point group: c1

    Geometry (in Angstrom), charge = 0, multiplicity = 1:

       Center              X                  Y                   Z               Mass
    ------------   -----------------  -----------------  -----------------  -----------------
         O           -1.493186857665     0.328698707913    -1.066187093053    15.994914619570
         O           -3.667313857665    -1.394766292087    -0.245675093053    15.994914619570
         O           -1.714806857665     2.879261707913     0.021263906947    15.994914619570
         O            1.162103142335    -2.470493292087     0.108715906947    15.994914619570
         N            0.660574142335    -0.289391292087    -0.318668093053    14.003074004430
         N            2.889702142335    -0.939099292087     0.232101906947    14.003074004430
         N            4.540003142335     0.643524707913     0.399783906947    14.003074004430
         C           -2.792355857665    -0.660209292087     0.607569906947    12.000000000000
         C           -1.402451857665    -1.286207292087     0.678066906947    12.000000000000
         C           -2.516201857665     0.653991707913    -0.108323093053    12.000000000000
         C           -0.717612857665    -0.754921292087    -0.590306093053    12.000000000000
         C           -2.079948857665     1.721745707913     0.799082906947    12.000000000000
         C            1.030829142335     1.009470707913    -0.467551093053    12.000000000000
         C            1.584409142335    -1.312857292087     0.022323906947    12.000000000000
         C            2.325081142335     1.373445707913    -0.241022093053    12.000000000000
         C            3.234183142335     0.330250707913     0.108889906947    12.000000000000
         H           -3.242533857665    -0.512537292087     1.601080906947     1.007825032230
         H           -0.857842857665    -0.954546292087     1.567673906947     1.007825032230
         H           -1.418686857665    -2.377677292087     0.696757906947     1.007825032230
         H           -0.649976857665    -1.512807292087    -1.375581093053     1.007825032230
         H           -3.382824857665     0.989789707913    -0.684544093053     1.007825032230
         H           -1.208634857665     1.419622707913     1.431074906947     1.007825032230
         H           -2.890463857665     1.999952707913     1.516085906947     1.007825032230
         H           -3.714213857665    -2.303811292087     0.098720906947     1.007825032230
         H            0.243148142335     1.700662707913    -0.749469093053     1.007825032230
         H           -1.455778857665     3.601733707913     0.618493906947     1.007825032230
         H            2.638441142335     2.406613707913    -0.338382093053     1.007825032230
         H            4.931376142335     1.467299707913    -0.037912093053     1.007825032230
         H            5.156043142335    -0.161140292087     0.431950906947     1.007825032230

  Basis Set: AUG-CC-PVTZ
    Blend: AUG-CC-PVTZ
  Basis Set: (AUG-CC-PVTZ AUX)
    Blend: AUG-CC-PVTZ-JKFIT
	 Reference Energy          =    -811.4762853049450086 [Eh]
	 Singles Energy            =      -0.0000000000000000 [Eh]
	 Same-Spin Energy          =      -0.8311263790052486 [Eh]
	 Opposite-Spin Energy      =      -2.5273922380738783 [Eh]
	 Correlation Energy        =      -3.3585186170791266 [Eh]
	 Total Energy              =    -814.8348039220240935 [Eh]

	 ================> DF-SCS-MP2 Energies <==================
	-----------------------------------------------------------
	 SCS Same-Spin Scale       =       0.3333333333333333 [-]
	 SCS Opposite-Spin Scale   =       1.2000000000000000 [-]
	 SCS Same-Spin Energy      =      -0.2770421263350829 [Eh]
	 SCS Opposite-Spin Energy  =      -3.0328706856886538 [Eh]
	 SCS Correlation Energy    =      -3.3099128120237364 [Eh]
	 SCS Total Energy          =    -814.7861981169687624 [Eh]
	-----------------------------------------------------------

  Dipole Moment: [D]
     X:    -0.3573      Y:     4.5225      Z:     2.4187     Total:     5.1411

*** Psi4 exiting successfully. Buy a developer a beer!
