                               Psi4 1.4a3.dev225

  ==> Input File <==

--------------------------------------------------------------------------
#psi4
#
memory 32 gb

molecule  {
0 1
  O       -1.4695130     0.3030610    -1.0874480
  O       -3.6436400    -1.4204040    -0.2669360
  O       -1.6911330     2.8536240     0.0000030
  O        1.1857770    -2.4961310     0.0874550
  N        0.6842480    -0.3150290    -0.3399290
  N        2.9133760    -0.9647370     0.2108410
  N        4.5636770     0.6178870     0.3785230
  C       -2.7686820    -0.6858470     0.5863090
  C       -1.3787780    -1.3118450     0.6568060
  C       -2.4925280     0.6283540    -0.1295840
  C       -0.6939390    -0.7805590    -0.6115670
  C       -2.0414120     1.7324860     0.8087370
  C        1.0545030     0.9838330    -0.4888120
  C        1.6080830    -1.3384950     0.0010630
  C        2.3487550     1.3478080    -0.2622830
  C        3.2578570     0.3046130     0.0876290
  H       -3.2188600    -0.5381750     1.5798200
  H       -0.8341690    -0.9801840     1.5464130
  H       -1.3950130    -2.4033150     0.6754970
  H       -0.6263030    -1.5384450    -1.3968420
  H       -3.3591510     0.9641520    -0.7058050
  H       -1.1849610     1.3939850     1.4098140
  H       -2.8667900     1.9743150     1.4948250
  H       -3.6905400    -2.3294490     0.0774600
  H        0.2668220     1.6750250    -0.7707300
  H       -1.4321050     3.5760960     0.5972330
  H        2.6476615     2.3333217    -0.3551523
  H        4.9550500     1.4416620    -0.0591730
  H        5.1797170    -0.1867780     0.4106900
units angstrom
no_reorient  #important for SAPT in psi4, default
symmetry c1  #important for SAPT in psi4, default
}

set PROPERTIES_ORIGIN ["COM"]
properties('MP2/aug-cc-pvtz', properties = ['dipole'])
--------------------------------------------------------------------------

    Molecular point group: c1
  Charge       = 0
  Multiplicity = 1
  Basis Set: AUG-CC-PVTZ
    Blend: AUG-CC-PVTZ
  Basis Set: (AUG-CC-PVTZ AUX)
    Blend: AUG-CC-PVTZ-JKFIT

    Orbital Energies [Eh]
    ---------------------

    Doubly Occupied:

       1A    -20.583579     2A    -20.574338     3A    -20.572599
       4A    -20.501747     5A    -15.618852     6A    -15.588945
       7A    -15.539469     8A    -11.368574     9A    -11.345332
      10A    -11.333014    11A    -11.314239    12A    -11.300228
      13A    -11.299454    14A    -11.294712    15A    -11.237163
      16A    -11.229514    17A     -1.418773    18A     -1.381599
      19A     -1.377478    20A     -1.366029    21A     -1.290128
      22A     -1.258468    23A     -1.168324    24A     -1.076570
      25A     -1.068718    26A     -1.025484    27A     -0.930217
      28A     -0.895593    29A     -0.868218    30A     -0.830905
      31A     -0.805209    32A     -0.753610    33A     -0.739809
      34A     -0.725703    35A     -0.707238    36A     -0.701975
      37A     -0.690557    38A     -0.674504    39A     -0.653291
      40A     -0.644192    41A     -0.622822    42A     -0.620421
      43A     -0.606755    44A     -0.596023    45A     -0.587750
      46A     -0.573564    47A     -0.565782    48A     -0.551215
      49A     -0.526678    50A     -0.520735    51A     -0.510781
      52A     -0.485034    53A     -0.480612    54A     -0.472370
      55A     -0.459435    56A     -0.448179    57A     -0.440749
      58A     -0.413503    59A     -0.382274    60A     -0.333767

  @DF-RHF Final Energy:  -811.47844730311544

   => Energetics <=

    Nuclear Repulsion Energy =           1185.4433440233513011
    One-Electron Energy =               -3465.9379876522511950
    Two-Electron Energy =                1469.0161963257846764
    Total Energy =                       -811.4784473031154448
  Basis Set: (AUG-CC-PVTZ AUX)
    Blend: AUG-CC-PVTZ-RI
    Molecular point group: c1

    Geometry (in Angstrom), charge = 0, multiplicity = 1:

       Center              X                  Y                   Z               Mass
    ------------   -----------------  -----------------  -----------------  -----------------
         O           -1.493908108992     0.326987898247    -1.067840643795    15.994914619570
         O           -3.668035108992    -1.396477101753    -0.247328643795    15.994914619570
         O           -1.715528108992     2.877550898247     0.019610356205    15.994914619570
         O            1.161381891008    -2.472204101753     0.107062356205    15.994914619570
         N            0.659852891008    -0.291102101753    -0.320321643795    14.003074004430
         N            2.888980891008    -0.940810101753     0.230448356205    14.003074004430
         N            4.539281891008     0.641813898247     0.398130356205    14.003074004430
         C           -2.793077108992    -0.661920101753     0.605916356205    12.000000000000
         C           -1.403173108992    -1.287918101753     0.676413356205    12.000000000000
         C           -2.516923108992     0.652280898247    -0.109976643795    12.000000000000
         C           -0.718334108992    -0.756632101753    -0.591959643795    12.000000000000
         C           -2.065807108992     1.756412898247     0.828344356205    12.000000000000
         C            1.030107891008     1.007759898247    -0.469204643795    12.000000000000
         C            1.583687891008    -1.314568101753     0.020670356205    12.000000000000
         C            2.324359891008     1.371734898247    -0.242675643795    12.000000000000
         C            3.233461891008     0.328539898247     0.107236356205    12.000000000000
         H           -3.243255108992    -0.514248101753     1.599427356205     1.007825032230
         H           -0.858564108992    -0.956257101753     1.566020356205     1.007825032230
         H           -1.419408108992    -2.379388101753     0.695104356205     1.007825032230
         H           -0.650698108992    -1.514518101753    -1.377234643795     1.007825032230
         H           -3.383546108992     0.988078898247    -0.686197643795     1.007825032230
         H           -1.209356108992     1.417911898247     1.429421356205     1.007825032230
         H           -2.891185108992     1.998241898247     1.514432356205     1.007825032230
         H           -3.714935108992    -2.305522101753     0.097067356205     1.007825032230
         H            0.242426891008     1.698951898247    -0.751122643795     1.007825032230
         H           -1.456500108992     3.600022898247     0.616840356205     1.007825032230
         H            2.623266391008     2.357248598247    -0.335544943795     1.007825032230
         H            4.930654891008     1.465588898247    -0.039565643795     1.007825032230
         H            5.155321891008    -0.162851101753     0.430297356205     1.007825032230

  Basis Set: AUG-CC-PVTZ
    Blend: AUG-CC-PVTZ
  Basis Set: (AUG-CC-PVTZ AUX)
    Blend: AUG-CC-PVTZ-JKFIT
	 Reference Energy          =    -811.4784473031154448 [Eh]
	 Singles Energy            =      -0.0000000000000000 [Eh]
	 Same-Spin Energy          =      -0.8307037728912104 [Eh]
	 Opposite-Spin Energy      =      -2.5266930403306112 [Eh]
	 Correlation Energy        =      -3.3573968132218215 [Eh]
	 Total Energy              =    -814.8358441163372845 [Eh]

	 ================> DF-SCS-MP2 Energies <==================
	-----------------------------------------------------------
	 SCS Same-Spin Scale       =       0.3333333333333333 [-]
	 SCS Opposite-Spin Scale   =       1.2000000000000000 [-]
	 SCS Same-Spin Energy      =      -0.2769012576304035 [Eh]
	 SCS Opposite-Spin Energy  =      -3.0320316483967331 [Eh]
	 SCS Correlation Energy    =      -3.3089329060271364 [Eh]
	 SCS Total Energy          =    -814.7873802091426114 [Eh]
	-----------------------------------------------------------

  Dipole Moment: [D]
     X:    -0.3272      Y:     4.6058      Z:     2.4060     Total:     5.2066

*** Psi4 exiting successfully. Buy a developer a beer!
