                               Psi4 1.3.2 release

  ==> Input File <==

--------------------------------------------------------------------------
#psi4
#
memory 32 gb

molecule  {
0 1
  O        1.3620710    -0.3800110    -0.9318440
  O        3.2020570     1.9012130    -0.2995130
  O        2.7994070    -2.7489470    -0.4002010
  O       -1.3621860     2.3740050     0.1547830
  N       -0.7982440     0.1994180    -0.2292560
  N       -3.0541720     0.8052390     0.2400120
  N       -4.6734100    -0.8124350     0.4126370
  C        2.7015950     0.8755540     0.5594740
  C        1.2368440     1.1072260     0.8878520
  C        2.6518190    -0.3922910    -0.2854700
  C        0.5739580     0.6830040    -0.4149160
  C        2.7961459    -1.6287006     0.4841841
  C       -1.1273370    -1.1158190    -0.3082760
  C       -1.7446880     1.2038920     0.0820450
  C       -2.4173070    -1.5045610    -0.1045420
  C       -3.3619920    -0.4731600     0.1685110
  H        3.3343810     0.7567850     1.4508530
  H        0.9047070     0.4438290     1.6934890
  H        0.9853290     2.1340670     1.1581470
  H        0.5274540     1.5132540    -1.1249130
  H        3.4174920    -0.3642830    -1.0666260
  H        1.9707490    -1.7331840     1.2432230
  H        3.7460890    -1.6095150     1.0882890
  H        3.1038510     2.7463240     0.1779830
  H       -0.3107400    -1.7892010    -0.5436980
  H        2.9087062    -3.5829288     0.0903246
  H       -2.7034680    -2.5490840    -0.1532500
  H       -5.0287110    -1.6377420    -0.0567190
  H       -5.2994710    -0.0137980     0.3861010
units angstrom
no_reorient  #important for SAPT in psi4, default
symmetry c1  #important for SAPT in psi4, default
}

set PROPERTIES_ORIGIN ["COM"]
properties('MP2/aug-cc-pvtz', properties = ['dipole'])
--------------------------------------------------------------------------

    Molecular point group: c1
  Charge       = 0
  Multiplicity = 1
  Basis Set: AUG-CC-PVTZ
    Blend: AUG-CC-PVTZ
  Basis Set: (AUG-CC-PVTZ AUX)
    Blend: AUG-CC-PVTZ-JKFIT

    Orbital Energies [Eh]
    ---------------------

    Doubly Occupied:

       1A    -20.575449     2A    -20.575092     3A    -20.572948
       4A    -20.503097     5A    -15.621783     6A    -15.588342
       7A    -15.540791     8A    -11.369936     9A    -11.345024
      10A    -11.330993    11A    -11.318246    12A    -11.302275
      13A    -11.299321    14A    -11.291755    15A    -11.237054
      16A    -11.236973    17A     -1.417675    18A     -1.382556
      19A     -1.372590    20A     -1.364980    21A     -1.292266
      22A     -1.261544    23A     -1.169167    24A     -1.080068
      25A     -1.072914    26A     -1.032195    27A     -0.927164
      28A     -0.896977    29A     -0.869030    30A     -0.831309
      31A     -0.806236    32A     -0.754270    33A     -0.738672
      34A     -0.723562    35A     -0.707978    36A     -0.693616
      37A     -0.688867    38A     -0.675469    39A     -0.655846
      40A     -0.636024    41A     -0.627747    42A     -0.618178
      43A     -0.608117    44A     -0.595921    45A     -0.588377
      46A     -0.573029    47A     -0.567381    48A     -0.540916
      49A     -0.532765    50A     -0.524894    51A     -0.511359
      52A     -0.487275    53A     -0.482096    54A     -0.464917
      55A     -0.459660    56A     -0.444766    57A     -0.439311
      58A     -0.416489    59A     -0.383773    60A     -0.334948

  @DF-RHF Final Energy:  -811.47642563763134

   => Energetics <=

    Nuclear Repulsion Energy =           1170.8079354238893757
    One-Electron Energy =               -3436.6447768635816828
    Two-Electron Energy =                1454.3604158020609702
    Total Energy =                       -811.4764256376313369
  Basis Set: (AUG-CC-PVTZ AUX)
    Blend: AUG-CC-PVTZ-RI
    Molecular point group: c1

    Geometry (in Angstrom), charge = 0, multiplicity = 1:

       Center              X                  Y                   Z               Mass
    ------------   -----------------  -----------------  -----------------  -----------------
         O            1.362391382011    -0.381586567965    -0.929692647172    15.994914619570
         O            3.202377382011     1.899637432035    -0.297361647172    15.994914619570
         O            2.799727382011    -2.750522567965    -0.398049647172    15.994914619570
         O           -1.361865617989     2.372429432035     0.156934352828    15.994914619570
         N           -0.797923617989     0.197842432035    -0.227104647172    14.003074004430
         N           -3.053851617989     0.803663432035     0.242163352828    14.003074004430
         N           -4.673089617989    -0.814010567965     0.414788352828    14.003074004430
         C            2.701915382011     0.873978432035     0.561625352828    12.000000000000
         C            1.237164382011     1.105650432035     0.890003352828    12.000000000000
         C            2.652139382011    -0.393866567965    -0.283318647172    12.000000000000
         C            0.574278382011     0.681428432035    -0.412764647172    12.000000000000
         C            2.796466282011    -1.630276167965     0.486335452828    12.000000000000
         C           -1.127016617989    -1.117394567965    -0.306124647172    12.000000000000
         C           -1.744367617989     1.202316432035     0.084196352828    12.000000000000
         C           -2.416986617989    -1.506136567965    -0.102390647172    12.000000000000
         C           -3.361671617989    -0.474735567965     0.170662352828    12.000000000000
         H            3.334701382011     0.755209432035     1.453004352828     1.007825032230
         H            0.905027382011     0.442253432035     1.695640352828     1.007825032230
         H            0.985649382011     2.132491432035     1.160298352828     1.007825032230
         H            0.527774382011     1.511678432035    -1.122761647172     1.007825032230
         H            3.417812382011    -0.365858567965    -1.064474647172     1.007825032230
         H            1.971069382011    -1.734759567965     1.245374352828     1.007825032230
         H            3.746409382011    -1.611090567965     1.090440352828     1.007825032230
         H            3.104171382011     2.744748432035     0.180134352828     1.007825032230
         H           -0.310419617989    -1.790776567965    -0.541546647172     1.007825032230
         H            2.909026582011    -3.584504367965     0.092475952828     1.007825032230
         H           -2.703147617989    -2.550659567965    -0.151098647172     1.007825032230
         H           -5.028390617989    -1.639317567965    -0.054567647172     1.007825032230
         H           -5.299150617989    -0.015373567965     0.388252352828     1.007825032230

  Basis Set: AUG-CC-PVTZ
    Blend: AUG-CC-PVTZ
  Basis Set: (AUG-CC-PVTZ AUX)
    Blend: AUG-CC-PVTZ-JKFIT
	 Reference Energy          =    -811.4764256376313369 [Eh]
	 Singles Energy            =      -0.0000000000000000 [Eh]
	 Same-Spin Energy          =      -0.8298905628155311 [Eh]
	 Opposite-Spin Energy      =      -2.5251439292192495 [Eh]
	 Correlation Energy        =      -3.3550344920347808 [Eh]
	 Total Energy              =    -814.8314601296660840 [Eh]

	 ================> DF-SCS-MP2 Energies <==================
	-----------------------------------------------------------
	 SCS Same-Spin Scale       =       0.3333333333333333 [-]
	 SCS Opposite-Spin Scale   =       1.2000000000000000 [-]
	 SCS Same-Spin Energy      =      -0.2766301876051770 [Eh]
	 SCS Opposite-Spin Energy  =      -3.0301727150630993 [Eh]
	 SCS Correlation Energy    =      -3.3068029026682764 [Eh]
	 SCS Total Energy          =    -814.7832285402996604 [Eh]
	-----------------------------------------------------------

  Dipole Moment: [D]
     X:     1.0707      Y:    -4.6653      Z:     2.4444     Total:     5.3746

*** Psi4 exiting successfully. Buy a developer a beer!
