                               Psi4 1.3.2 release

  ==> Input File <==

--------------------------------------------------------------------------
#psi4
#
memory 32 gb

molecule  {
0 1
  O        1.3620710    -0.3800110    -0.9318440
  O        3.2020570     1.9012130    -0.2995130
  O        2.7994070    -2.7489470    -0.4002010
  O       -1.3621860     2.3740050     0.1547830
  N       -0.7982440     0.1994180    -0.2292560
  N       -3.0541720     0.8052390     0.2400120
  N       -4.6734100    -0.8124350     0.4126370
  C        2.7015950     0.8755540     0.5594740
  C        1.2368440     1.1072260     0.8878520
  C        2.6518190    -0.3922910    -0.2854700
  C        0.5739580     0.6830040    -0.4149160
  C        2.8020980    -1.6600160     0.5224700
  C       -1.1273370    -1.1158190    -0.3082760
  C       -1.7446880     1.2038920     0.0820450
  C       -2.4173070    -1.5045610    -0.1045420
  C       -3.3600196    -0.4921374     0.1539145
  H        3.3343810     0.7567850     1.4508530
  H        0.9047070     0.4438290     1.6934890
  H        0.9853290     2.1340670     1.1581470
  H        0.5274540     1.5132540    -1.1249130
  H        3.4174920    -0.3642830    -1.0666260
  H        1.9707490    -1.7331840     1.2432230
  H        3.7460890    -1.6095150     1.0882890
  H        3.1038510     2.7463240     0.1779830
  H       -0.3107400    -1.7892010    -0.5436980
  H        2.9100300    -3.5650720     0.1192120
  H       -2.7034680    -2.5490840    -0.1532500
  H       -5.0129007    -1.6400346    -0.0643227
  H       -5.2994710    -0.0137980     0.3861010
units angstrom
no_reorient  #important for SAPT in psi4, default
symmetry c1  #important for SAPT in psi4, default
}

set PROPERTIES_ORIGIN ["COM"]
properties('MP2/aug-cc-pvtz', properties = ['dipole'])
--------------------------------------------------------------------------

    Molecular point group: c1
  Charge       = 0
  Multiplicity = 1
  Basis Set: AUG-CC-PVTZ
    Blend: AUG-CC-PVTZ
  Basis Set: (AUG-CC-PVTZ AUX)
    Blend: AUG-CC-PVTZ-JKFIT

    Orbital Energies [Eh]
    ---------------------

    Doubly Occupied:

       1A    -20.578106     2A    -20.574495     3A    -20.573301
       4A    -20.501054     5A    -15.623066     6A    -15.588999
       7A    -15.540092     8A    -11.367865     9A    -11.344896
      10A    -11.331107    11A    -11.320960    12A    -11.301073
      13A    -11.297200    14A    -11.293381    15A    -11.237012
      16A    -11.236759    17A     -1.416967    18A     -1.381368
      19A     -1.373856    20A     -1.365672    21A     -1.290857
      22A     -1.261064    23A     -1.165038    24A     -1.080071
      25A     -1.070317    26A     -1.029285    27A     -0.927816
      28A     -0.899368    29A     -0.866831    30A     -0.830297
      31A     -0.806877    32A     -0.754952    33A     -0.739457
      34A     -0.721225    35A     -0.706336    36A     -0.693296
      37A     -0.688817    38A     -0.674969    39A     -0.656959
      40A     -0.636828    41A     -0.627374    42A     -0.620238
      43A     -0.604467    44A     -0.596132    45A     -0.587781
      46A     -0.572593    47A     -0.568867    48A     -0.544973
      49A     -0.532286    50A     -0.524026    51A     -0.510607
      52A     -0.486127    53A     -0.481893    54A     -0.468825
      55A     -0.461316    56A     -0.443542    57A     -0.437927
      58A     -0.415434    59A     -0.381584    60A     -0.335641

  @DF-RHF Final Energy:  -811.47775689323839

   => Energetics <=

    Nuclear Repulsion Energy =           1169.8867919951503609
    One-Electron Energy =               -3434.8300484368974139
    Two-Electron Energy =                1453.4654995485086602
    Total Energy =                       -811.4777568932383929
  Basis Set: (AUG-CC-PVTZ AUX)
    Blend: AUG-CC-PVTZ-RI
    Molecular point group: c1

    Geometry (in Angstrom), charge = 0, multiplicity = 1:

       Center              X                  Y                   Z               Mass
    ------------   -----------------  -----------------  -----------------  -----------------
         O            1.361896591949    -0.378998052217    -0.931038907377    15.994914619570
         O            3.201882591949     1.902225947783    -0.298707907377    15.994914619570
         O            2.799232591949    -2.747934052217    -0.399395907377    15.994914619570
         O           -1.362360408051     2.375017947783     0.155588092623    15.994914619570
         N           -0.798418408051     0.200430947783    -0.228450907377    14.003074004430
         N           -3.054346408051     0.806251947783     0.240817092623    14.003074004430
         N           -4.673584408051    -0.811422052217     0.413442092623    14.003074004430
         C            2.701420591949     0.876566947783     0.560279092623    12.000000000000
         C            1.236669591949     1.108238947783     0.888657092623    12.000000000000
         C            2.651644591949    -0.391278052217    -0.284664907377    12.000000000000
         C            0.573783591949     0.684016947783    -0.414110907377    12.000000000000
         C            2.801923591949    -1.659003052217     0.523275092623    12.000000000000
         C           -1.127511408051    -1.114806052217    -0.307470907377    12.000000000000
         C           -1.744862408051     1.204904947783     0.082850092623    12.000000000000
         C           -2.417481408051    -1.503548052217    -0.103736907377    12.000000000000
         C           -3.360194008051    -0.491124452217     0.154719592623    12.000000000000
         H            3.334206591949     0.757797947783     1.451658092623     1.007825032230
         H            0.904532591949     0.444841947783     1.694294092623     1.007825032230
         H            0.985154591949     2.135079947783     1.158952092623     1.007825032230
         H            0.527279591949     1.514266947783    -1.124107907377     1.007825032230
         H            3.417317591949    -0.363270052217    -1.065820907377     1.007825032230
         H            1.970574591949    -1.732171052217     1.244028092623     1.007825032230
         H            3.745914591949    -1.608502052217     1.089094092623     1.007825032230
         H            3.103676591949     2.747336947783     0.178788092623     1.007825032230
         H           -0.310914408051    -1.788188052217    -0.542892907377     1.007825032230
         H            2.909855591949    -3.564059052217     0.120017092623     1.007825032230
         H           -2.703642408051    -2.548071052217    -0.152444907377     1.007825032230
         H           -5.013075108051    -1.639021652217    -0.063517607377     1.007825032230
         H           -5.299645408051    -0.012785052217     0.386906092623     1.007825032230

  Basis Set: AUG-CC-PVTZ
    Blend: AUG-CC-PVTZ
  Basis Set: (AUG-CC-PVTZ AUX)
    Blend: AUG-CC-PVTZ-JKFIT
	 Reference Energy          =    -811.4777568932383929 [Eh]
	 Singles Energy            =      -0.0000000000000000 [Eh]
	 Same-Spin Energy          =      -0.8300751413117047 [Eh]
	 Opposite-Spin Energy      =      -2.5256649077586042 [Eh]
	 Correlation Energy        =      -3.3557400490703087 [Eh]
	 Total Energy              =    -814.8334969423086704 [Eh]

	 ================> DF-SCS-MP2 Energies <==================
	-----------------------------------------------------------
	 SCS Same-Spin Scale       =       0.3333333333333333 [-]
	 SCS Opposite-Spin Scale   =       1.2000000000000000 [-]
	 SCS Same-Spin Energy      =      -0.2766917137705682 [Eh]
	 SCS Opposite-Spin Energy  =      -3.0307978893103251 [Eh]
	 SCS Correlation Energy    =      -3.3074896030808931 [Eh]
	 SCS Total Energy          =    -814.7852464963192460 [Eh]
	-----------------------------------------------------------

  Dipole Moment: [D]
     X:     1.1322      Y:    -4.7542      Z:     2.4633     Total:     5.4729

*** Psi4 exiting successfully. Buy a developer a beer!
