                               Psi4 1.3.2 release

  ==> Input File <==

--------------------------------------------------------------------------
#psi4
#
memory 32 gb

molecule  {
0 1
  O        1.3620710    -0.3800110    -0.9318440
  O        3.2020570     1.9012130    -0.2995130
  O        2.7994070    -2.7489470    -0.4002010
  O       -1.3621860     2.3740050     0.1547830
  N       -0.7982440     0.1994180    -0.2292560
  N       -3.0541720     0.8052390     0.2400120
  N       -4.6734100    -0.8124350     0.4126370
  C        2.7015950     0.8755540     0.5594740
  C        1.2368440     1.1072260     0.8878520
  C        2.6518190    -0.3922910    -0.2854700
  C        0.5739580     0.6830040    -0.4149160
  C        2.8024751    -1.5074267     0.6517617
  C       -1.1273370    -1.1158190    -0.3082760
  C       -1.7446880     1.2038920     0.0820450
  C       -2.4173070    -1.5045610    -0.1045420
  C       -3.3619920    -0.4731600     0.1685110
  H        3.3343810     0.7567850     1.4508530
  H        0.9047070     0.4438290     1.6934890
  H        0.9853290     2.1340670     1.1581470
  H        0.5274540     1.5132540    -1.1249130
  H        3.4174920    -0.3642830    -1.0666260
  H        1.9707490    -1.7331840     1.2432230
  H        3.7460890    -1.6095150     1.0882890
  H        3.1038510     2.7463240     0.1779830
  H       -0.3107400    -1.7892010    -0.5436980
  H        2.9100300    -3.5650720     0.1192120
  H       -2.7034680    -2.5490840    -0.1532500
  H       -5.0287110    -1.6377420    -0.0567190
  H       -5.2994710    -0.0137980     0.3861010
units angstrom
no_reorient  #important for SAPT in psi4, default
symmetry c1  #important for SAPT in psi4, default
}

set PROPERTIES_ORIGIN ["COM"]
properties('MP2/aug-cc-pvtz', properties = ['dipole'])
--------------------------------------------------------------------------

    Molecular point group: c1
  Charge       = 0
  Multiplicity = 1
  Basis Set: AUG-CC-PVTZ
    Blend: AUG-CC-PVTZ
  Basis Set: (AUG-CC-PVTZ AUX)
    Blend: AUG-CC-PVTZ-JKFIT

    Orbital Energies [Eh]
    ---------------------

    Doubly Occupied:

       1A    -20.577860     2A    -20.576502     3A    -20.555711
       4A    -20.504482     5A    -15.623336     6A    -15.589142
       7A    -15.541872     8A    -11.371287     9A    -11.346015
      10A    -11.333619    11A    -11.319043    12A    -11.303098
      13A    -11.300434    14A    -11.298120    15A    -11.240378
      16A    -11.237925    17A     -1.419536    18A     -1.383548
      19A     -1.370623    20A     -1.308395    21A     -1.293291
      22A     -1.262716    23A     -1.170223    24A     -1.089294
      25A     -1.076490    26A     -1.035068    27A     -0.934255
      28A     -0.900431    29A     -0.871467    30A     -0.833659
      31A     -0.814222    32A     -0.756305    33A     -0.740989
      34A     -0.717888    35A     -0.709955    36A     -0.694047
      37A     -0.683088    38A     -0.666369    39A     -0.654139
      40A     -0.640086    41A     -0.630047    42A     -0.619272
      43A     -0.603845    44A     -0.595384    45A     -0.587294
      46A     -0.574542    47A     -0.570650    48A     -0.535133
      49A     -0.528221    50A     -0.516456    51A     -0.511305
      52A     -0.485456    53A     -0.479036    54A     -0.470718
      55A     -0.463850    56A     -0.450858    57A     -0.441621
      58A     -0.417765    59A     -0.384996    60A     -0.336171

  @DF-RHF Final Energy:  -811.44693774521693

   => Energetics <=

    Nuclear Repulsion Energy =           1169.7601645520271632
    One-Electron Energy =               -3434.5191536507022647
    Two-Electron Energy =                1453.3120513534581733
    Total Energy =                       -811.4469377452169283
  Basis Set: (AUG-CC-PVTZ AUX)
    Blend: AUG-CC-PVTZ-RI
    Molecular point group: c1

    Geometry (in Angstrom), charge = 0, multiplicity = 1:

       Center              X                  Y                   Z               Mass
    ------------   -----------------  -----------------  -----------------  -----------------
         O            1.362051057238    -0.388074213388    -0.938676042309    15.994914619570
         O            3.202037057238     1.893149786612    -0.306345042309    15.994914619570
         O            2.799387057238    -2.757010213388    -0.407033042309    15.994914619570
         O           -1.362205942762     2.365941786612     0.147950957691    15.994914619570
         N           -0.798263942762     0.191354786612    -0.236088042309    14.003074004430
         N           -3.054191942762     0.797175786612     0.233179957691    14.003074004430
         N           -4.673429942762    -0.820498213388     0.405804957691    14.003074004430
         C            2.701575057238     0.867490786612     0.552641957691    12.000000000000
         C            1.236824057238     1.099162786612     0.881019957691    12.000000000000
         C            2.651799057238    -0.400354213388    -0.292302042309    12.000000000000
         C            0.573938057238     0.674940786612    -0.421748042309    12.000000000000
         C            2.802455157238    -1.515489913388     0.644929657691    12.000000000000
         C           -1.127356942762    -1.123882213388    -0.315108042309    12.000000000000
         C           -1.744707942762     1.195828786612     0.075212957691    12.000000000000
         C           -2.417326942762    -1.512624213388    -0.111374042309    12.000000000000
         C           -3.362011942762    -0.481223213388     0.161678957691    12.000000000000
         H            3.334361057238     0.748721786612     1.444020957691     1.007825032230
         H            0.904687057238     0.435765786612     1.686656957691     1.007825032230
         H            0.985309057238     2.126003786612     1.151314957691     1.007825032230
         H            0.527434057238     1.505190786612    -1.131745042309     1.007825032230
         H            3.417472057238    -0.372346213388    -1.073458042309     1.007825032230
         H            1.970729057238    -1.741247213388     1.236390957691     1.007825032230
         H            3.746069057238    -1.617578213388     1.081456957691     1.007825032230
         H            3.103831057238     2.738260786612     0.171150957691     1.007825032230
         H           -0.310759942762    -1.797264213388    -0.550530042309     1.007825032230
         H            2.910010057238    -3.573135213388     0.112379957691     1.007825032230
         H           -2.703487942762    -2.557147213388    -0.160082042309     1.007825032230
         H           -5.028730942762    -1.645805213388    -0.063551042309     1.007825032230
         H           -5.299490942762    -0.021861213388     0.379268957691     1.007825032230

  Basis Set: AUG-CC-PVTZ
    Blend: AUG-CC-PVTZ
  Basis Set: (AUG-CC-PVTZ AUX)
    Blend: AUG-CC-PVTZ-JKFIT
	 Reference Energy          =    -811.4469377452169283 [Eh]
	 Singles Energy            =      -0.0000000000000000 [Eh]
	 Same-Spin Energy          =      -0.8314159180135643 [Eh]
	 Opposite-Spin Energy      =      -2.5306016338108885 [Eh]
	 Correlation Energy        =      -3.3620175518244526 [Eh]
	 Total Energy              =    -814.8089552970413934 [Eh]

	 ================> DF-SCS-MP2 Energies <==================
	-----------------------------------------------------------
	 SCS Same-Spin Scale       =       0.3333333333333333 [-]
	 SCS Opposite-Spin Scale   =       1.2000000000000000 [-]
	 SCS Same-Spin Energy      =      -0.2771386393378548 [Eh]
	 SCS Opposite-Spin Energy  =      -3.0367219605730660 [Eh]
	 SCS Correlation Energy    =      -3.3138605999109210 [Eh]
	 SCS Total Energy          =    -814.7607983451277960 [Eh]
	-----------------------------------------------------------

  Dipole Moment: [D]
     X:     0.9792      Y:    -4.1066      Z:     2.7958     Total:     5.0635

*** Psi4 exiting successfully. Buy a developer a beer!
