                               Psi4 1.3.2 release

  ==> Input File <==

--------------------------------------------------------------------------
#psi4
#
memory 32 gb

molecule  {
0 1
  O        1.3620710    -0.3800110    -0.9318440
  O        3.2020570     1.9012130    -0.2995130
  O        2.7994070    -2.7489470    -0.4002010
  O       -1.3621860     2.3740050     0.1547830
  N       -0.7982440     0.1994180    -0.2292560
  N       -3.0541720     0.8052390     0.2400120
  N       -4.6734100    -0.8124350     0.4126370
  C        2.7015950     0.8755540     0.5594740
  C        1.2368440     1.1072260     0.8878520
  C        2.6518190    -0.3922910    -0.2854700
  C        0.5739580     0.6830040    -0.4149160
  C        2.8020980    -1.6600160     0.5224700
  C       -1.1273370    -1.1158190    -0.3082760
  C       -1.7446880     1.2038920     0.0820450
  C       -2.4173070    -1.5045610    -0.1045420
  C       -3.3619920    -0.4731600     0.1685110
  H        3.3343810     0.7567850     1.4508530
  H        0.9047070     0.4438290     1.6934890
  H        0.9853290     2.1340670     1.1581470
  H        0.5274540     1.5132540    -1.1249130
  H        3.4174920    -0.3642830    -1.0666260
  H        1.9707490    -1.7331840     1.2432230
  H        3.7460890    -1.6095150     1.0882890
  H        3.1239828     2.5730803     0.0800986
  H       -0.3107400    -1.7892010    -0.5436980
  H        2.9100300    -3.5650720     0.1192120
  H       -2.7034680    -2.5490840    -0.1532500
  H       -5.0287110    -1.6377420    -0.0567190
  H       -5.2994710    -0.0137980     0.3861010
units angstrom
no_reorient  #important for SAPT in psi4, default
symmetry c1  #important for SAPT in psi4, default
}

set PROPERTIES_ORIGIN ["COM"]
properties('MP2/aug-cc-pvtz', properties = ['dipole'])
--------------------------------------------------------------------------

    Molecular point group: c1
  Charge       = 0
  Multiplicity = 1
  Basis Set: AUG-CC-PVTZ
    Blend: AUG-CC-PVTZ
  Basis Set: (AUG-CC-PVTZ AUX)
    Blend: AUG-CC-PVTZ-JKFIT

    Orbital Energies [Eh]
    ---------------------

    Doubly Occupied:

       1A    -20.578350     2A    -20.573801     3A    -20.553060
       4A    -20.503428     5A    -15.622304     6A    -15.588672
       7A    -15.541168     8A    -11.370300     9A    -11.345418
      10A    -11.331730    11A    -11.318763    12A    -11.303363
      13A    -11.297486    14A    -11.294042    15A    -11.238333
      16A    -11.237477    17A     -1.439686    18A     -1.409791
      19A     -1.381078    20A     -1.369978    21A     -1.292673
      22A     -1.261960    23A     -1.169494    24A     -1.086632
      25A     -1.072259    26A     -1.028843    27A     -0.932892
      28A     -0.899181    29A     -0.875282    30A     -0.836489
      31A     -0.808263    32A     -0.755416    33A     -0.743197
      34A     -0.732729    35A     -0.719306    36A     -0.700778
      37A     -0.692917    38A     -0.676557    39A     -0.657505
      40A     -0.639829    41A     -0.629907    42A     -0.620027
      43A     -0.605951    44A     -0.597032    45A     -0.589833
      46A     -0.575069    47A     -0.572689    48A     -0.546626
      49A     -0.534572    50A     -0.524783    51A     -0.511847
      52A     -0.491439    53A     -0.483924    54A     -0.470444
      55A     -0.464460    56A     -0.445281    57A     -0.438654
      58A     -0.416817    59A     -0.384170    60A     -0.335408

  @DF-RHF Final Energy:  -811.43504070711072

   => Energetics <=

    Nuclear Repulsion Energy =           1171.4836989423185969
    One-Electron Energy =               -3437.5987484380448223
    Two-Electron Energy =                1454.6800087886158508
    Total Energy =                       -811.4350407071106019
  Basis Set: (AUG-CC-PVTZ AUX)
    Blend: AUG-CC-PVTZ-RI
    Molecular point group: c1

    Geometry (in Angstrom), charge = 0, multiplicity = 1:

       Center              X                  Y                   Z               Mass
    ------------   -----------------  -----------------  -----------------  -----------------
         O            1.361981639431    -0.379242183858    -0.931409556133    15.994914619570
         O            3.201967639431     1.901981816142    -0.299078556133    15.994914619570
         O            2.799317639431    -2.748178183858    -0.399766556133    15.994914619570
         O           -1.362275360569     2.374773816142     0.155217443867    15.994914619570
         N           -0.798333360569     0.200186816142    -0.228821556133    14.003074004430
         N           -3.054261360569     0.806007816142     0.240446443867    14.003074004430
         N           -4.673499360569    -0.811666183858     0.413071443867    14.003074004430
         C            2.701505639431     0.876322816142     0.559908443867    12.000000000000
         C            1.236754639431     1.107994816142     0.888286443867    12.000000000000
         C            2.651729639431    -0.391522183858    -0.285035556133    12.000000000000
         C            0.573868639431     0.683772816142    -0.414481556133    12.000000000000
         C            2.802008639431    -1.659247183858     0.522904443867    12.000000000000
         C           -1.127426360569    -1.115050183858    -0.307841556133    12.000000000000
         C           -1.744777360569     1.204660816142     0.082479443867    12.000000000000
         C           -2.417396360569    -1.503792183858    -0.104107556133    12.000000000000
         C           -3.362081360569    -0.472391183858     0.168945443867    12.000000000000
         H            3.334291639431     0.757553816142     1.451287443867     1.007825032230
         H            0.904617639431     0.444597816142     1.693923443867     1.007825032230
         H            0.985239639431     2.134835816142     1.158581443867     1.007825032230
         H            0.527364639431     1.514022816142    -1.124478556133     1.007825032230
         H            3.417402639431    -0.363514183858    -1.066191556133     1.007825032230
         H            1.970659639431    -1.732415183858     1.243657443867     1.007825032230
         H            3.745999639431    -1.608746183858     1.088723443867     1.007825032230
         H            3.123893439431     2.573849116142     0.080533043867     1.007825032230
         H           -0.310829360569    -1.788432183858    -0.543263556133     1.007825032230
         H            2.909940639431    -3.564303183858     0.119646443867     1.007825032230
         H           -2.703557360569    -2.548315183858    -0.152815556133     1.007825032230
         H           -5.028800360569    -1.636973183858    -0.056284556133     1.007825032230
         H           -5.299560360569    -0.013029183858     0.386535443867     1.007825032230

  Basis Set: AUG-CC-PVTZ
    Blend: AUG-CC-PVTZ
  Basis Set: (AUG-CC-PVTZ AUX)
    Blend: AUG-CC-PVTZ-JKFIT
	 Reference Energy          =    -811.4350407071107156 [Eh]
	 Singles Energy            =      -0.0000000000000000 [Eh]
	 Same-Spin Energy          =      -0.8272600224872366 [Eh]
	 Opposite-Spin Energy      =      -2.5194242396920443 [Eh]
	 Correlation Energy        =      -3.3466842621792807 [Eh]
	 Total Energy              =    -814.7817249692900532 [Eh]

	 ================> DF-SCS-MP2 Energies <==================
	-----------------------------------------------------------
	 SCS Same-Spin Scale       =       0.3333333333333333 [-]
	 SCS Opposite-Spin Scale   =       1.2000000000000000 [-]
	 SCS Same-Spin Energy      =      -0.2757533408290789 [Eh]
	 SCS Opposite-Spin Energy  =      -3.0233090876304529 [Eh]
	 SCS Correlation Energy    =      -3.2990624284595320 [Eh]
	 SCS Total Energy          =    -814.7341031355701944 [Eh]
	-----------------------------------------------------------

  Dipole Moment: [D]
     X:     1.0328      Y:    -4.8626      Z:     2.4508     Total:     5.5424

*** Psi4 exiting successfully. Buy a developer a beer!
