                               Psi4 1.3.2 release

  ==> Input File <==

--------------------------------------------------------------------------
#psi4
#
memory 32 gb

molecule  {
0 1
  O        1.3620710    -0.3800110    -0.9318440
  O        3.2020570     1.9012130    -0.2995130
  O        2.7994070    -2.7489470    -0.4002010
  O       -1.3621860     2.3740050     0.1547830
  N       -0.7982440     0.1994180    -0.2292560
  N       -3.0541720     0.8052390     0.2400120
  N       -4.6734100    -0.8124350     0.4126370
  C        2.7015950     0.8755540     0.5594740
  C        1.2368440     1.1072260     0.8878520
  C        2.6518190    -0.3922910    -0.2854700
  C        0.5739580     0.6830040    -0.4149160
  C        2.8020980    -1.6600160     0.5224700
  C       -1.1273370    -1.1158190    -0.3082760
  C       -1.7446880     1.2038920     0.0820450
  C       -2.4040881    -1.5495839    -0.1123035
  C       -3.3619920    -0.4731600     0.1685110
  H        3.3343810     0.7567850     1.4508530
  H        0.9047070     0.4438290     1.6934890
  H        0.9853290     2.1340670     1.1581470
  H        0.5274540     1.5132540    -1.1249130
  H        3.4174920    -0.3642830    -1.0666260
  H        1.9707490    -1.7331840     1.2432230
  H        3.7460890    -1.6095150     1.0882890
  H        3.1038510     2.7463240     0.1779830
  H       -0.3350934    -1.8181407    -0.5423525
  H        2.9100300    -3.5650720     0.1192120
  H       -2.7034680    -2.5490840    -0.1532500
  H       -5.0287110    -1.6377420    -0.0567190
  H       -5.2994710    -0.0137980     0.3861010
units angstrom
no_reorient  #important for SAPT in psi4, default
symmetry c1  #important for SAPT in psi4, default
}

set PROPERTIES_ORIGIN ["COM"]
properties('MP2/aug-cc-pvtz', properties = ['dipole'])
--------------------------------------------------------------------------

    Molecular point group: c1
  Charge       = 0
  Multiplicity = 1
  Basis Set: AUG-CC-PVTZ
    Blend: AUG-CC-PVTZ
  Basis Set: (AUG-CC-PVTZ AUX)
    Blend: AUG-CC-PVTZ-JKFIT

    Orbital Energies [Eh]
    ---------------------

    Doubly Occupied:

       1A    -20.576975     2A    -20.573883     3A    -20.571608
       4A    -20.504653     5A    -15.621116     6A    -15.589680
       7A    -15.542489     8A    -11.371179     9A    -11.349294
      10A    -11.330274    11A    -11.316267    12A    -11.300271
      13A    -11.296056    14A    -11.292231    15A    -11.237442
      16A    -11.236232    17A     -1.415587    18A     -1.382647
      19A     -1.372900    20A     -1.365157    21A     -1.291006
      22A     -1.260906    23A     -1.169742    24A     -1.078037
      25A     -1.067784    26A     -1.026871    27A     -0.924909
      28A     -0.893187    29A     -0.869383    30A     -0.831704
      31A     -0.805401    32A     -0.752705    33A     -0.739788
      34A     -0.720427    35A     -0.705646    36A     -0.692255
      37A     -0.689097    38A     -0.676174    39A     -0.660720
      40A     -0.641651    41A     -0.626899    42A     -0.616955
      43A     -0.603144    44A     -0.593005    45A     -0.585477
      46A     -0.574801    47A     -0.567859    48A     -0.544075
      49A     -0.531918    50A     -0.523470    51A     -0.509906
      52A     -0.485190    53A     -0.482044    54A     -0.467757
      55A     -0.460661    56A     -0.445181    57A     -0.437310
      58A     -0.416191    59A     -0.383696    60A     -0.335596

  @DF-RHF Final Energy:  -811.47738609520945

   => Energetics <=

    Nuclear Repulsion Energy =           1169.0022900779827069
    One-Electron Energy =               -3433.0904210666963081
    Two-Electron Energy =                1452.6107448935040338
    Total Energy =                       -811.4773860952095674
  Basis Set: (AUG-CC-PVTZ AUX)
    Blend: AUG-CC-PVTZ-RI
    Molecular point group: c1

    Geometry (in Angstrom), charge = 0, multiplicity = 1:

       Center              X                  Y                   Z               Mass
    ------------   -----------------  -----------------  -----------------  -----------------
         O            1.361480546480    -0.377503487468    -0.931439801229    15.994914619570
         O            3.201466546480     1.903720512532    -0.299108801229    15.994914619570
         O            2.798816546480    -2.746439487468    -0.399796801229    15.994914619570
         O           -1.362776453520     2.376512512532     0.155187198771    15.994914619570
         N           -0.798834453520     0.201925512532    -0.228851801229    14.003074004430
         N           -3.054762453520     0.807746512532     0.240416198771    14.003074004430
         N           -4.674000453520    -0.809927487468     0.413041198771    14.003074004430
         C            2.701004546480     0.878061512532     0.559878198771    12.000000000000
         C            1.236253546480     1.109733512532     0.888256198771    12.000000000000
         C            2.651228546480    -0.389783487468    -0.285065801229    12.000000000000
         C            0.573367546480     0.685511512532    -0.414511801229    12.000000000000
         C            2.801507546480    -1.657508487468     0.522874198771    12.000000000000
         C           -1.127927453520    -1.113311487468    -0.307871801229    12.000000000000
         C           -1.745278453520     1.206399512532     0.082449198771    12.000000000000
         C           -2.404678553520    -1.547076387468    -0.111899301229    12.000000000000
         C           -3.362582453520    -0.470652487468     0.168915198771    12.000000000000
         H            3.333790546480     0.759292512532     1.451257198771     1.007825032230
         H            0.904116546480     0.446336512532     1.693893198771     1.007825032230
         H            0.984738546480     2.136574512532     1.158551198771     1.007825032230
         H            0.526863546480     1.515761512532    -1.124508801229     1.007825032230
         H            3.416901546480    -0.361775487468    -1.066221801229     1.007825032230
         H            1.970158546480    -1.730676487468     1.243627198771     1.007825032230
         H            3.745498546480    -1.607007487468     1.088693198771     1.007825032230
         H            3.103260546480     2.748831512532     0.178387198771     1.007825032230
         H           -0.335683853520    -1.815633187468    -0.541948301229     1.007825032230
         H            2.909439546480    -3.562564487468     0.119616198771     1.007825032230
         H           -2.704058453520    -2.546576487468    -0.152845801229     1.007825032230
         H           -5.029301453520    -1.635234487468    -0.056314801229     1.007825032230
         H           -5.300061453520    -0.011290487468     0.386505198771     1.007825032230

  Basis Set: AUG-CC-PVTZ
    Blend: AUG-CC-PVTZ
  Basis Set: (AUG-CC-PVTZ AUX)
    Blend: AUG-CC-PVTZ-JKFIT
	 Reference Energy          =    -811.4773860952094537 [Eh]
	 Singles Energy            =      -0.0000000000000000 [Eh]
	 Same-Spin Energy          =      -0.8289551384329552 [Eh]
	 Opposite-Spin Energy      =      -2.5246968224000286 [Eh]
	 Correlation Energy        =      -3.3536519608329840 [Eh]
	 Total Energy              =    -814.8310380560424164 [Eh]

	 ================> DF-SCS-MP2 Energies <==================
	-----------------------------------------------------------
	 SCS Same-Spin Scale       =       0.3333333333333333 [-]
	 SCS Opposite-Spin Scale   =       1.2000000000000000 [-]
	 SCS Same-Spin Energy      =      -0.2763183794776517 [Eh]
	 SCS Opposite-Spin Energy  =      -3.0296361868800341 [Eh]
	 SCS Correlation Energy    =      -3.3059545663576859 [Eh]
	 SCS Total Energy          =    -814.7833406615671947 [Eh]
	-----------------------------------------------------------

  Dipole Moment: [D]
     X:     0.9289      Y:    -4.6434      Z:     2.5135     Total:     5.3611

*** Psi4 exiting successfully. Buy a developer a beer!
