                               Psi4 1.3.2 release

  ==> Input File <==

--------------------------------------------------------------------------
#psi4
#
memory 32 gb

molecule  {
0 1
  O        1.3620710    -0.3800110    -0.9318440
  O        3.2020570     1.9012130    -0.2995130
  O        2.7994070    -2.7489470    -0.4002010
  O       -1.3621860     2.3740050     0.1547830
  N       -0.7982440     0.1994180    -0.2292560
  N       -3.0541720     0.8052390     0.2400120
  N       -4.6734100    -0.8124350     0.4126370
  C        2.7015950     0.8755540     0.5594740
  C        1.2368440     1.1072260     0.8878520
  C        2.6518190    -0.3922910    -0.2854700
  C        0.5739580     0.6830040    -0.4149160
  C        2.8020980    -1.6600160     0.5224700
  C       -1.1273370    -1.1158190    -0.3082760
  C       -1.7446880     1.2038920     0.0820450
  C       -2.4173070    -1.5045610    -0.1045420
  C       -3.3619920    -0.4731600     0.1685110
  H        3.3343810     0.7567850     1.4508530
  H        0.9047070     0.4438290     1.6934890
  H        0.9853290     2.1340670     1.1581470
  H        0.5274540     1.5132540    -1.1249130
  H        3.4174920    -0.3642830    -1.0666260
  H        1.9707490    -1.7331840     1.2432230
  H        3.7460890    -1.6095150     1.0882890
  H        3.1038510     2.7463240     0.1779830
  H       -0.3107400    -1.7892010    -0.5436980
  H        2.9100300    -3.5650720     0.1192120
  H       -2.7034680    -2.5490840    -0.1532500
  H       -5.0213061    -1.6420909    -0.0545940
  H       -5.2935673    -0.0090660     0.3907086
units angstrom
no_reorient  #important for SAPT in psi4, default
symmetry c1  #important for SAPT in psi4, default
}

set PROPERTIES_ORIGIN ["COM"]
properties('MP2/aug-cc-pvtz', properties = ['dipole'])
--------------------------------------------------------------------------

    Molecular point group: c1
  Charge       = 0
  Multiplicity = 1
  Basis Set: AUG-CC-PVTZ
    Blend: AUG-CC-PVTZ
  Basis Set: (AUG-CC-PVTZ AUX)
    Blend: AUG-CC-PVTZ-JKFIT

    Orbital Energies [Eh]
    ---------------------

    Doubly Occupied:

       1A    -20.577755     2A    -20.574339     3A    -20.572876
       4A    -20.503023     5A    -15.621688     6A    -15.588399
       7A    -15.540724     8A    -11.369873     9A    -11.344820
      10A    -11.330727    11A    -11.318279    12A    -11.300854
      13A    -11.296867    14A    -11.293073    15A    -11.236996
      16A    -11.236781    17A     -1.416652    18A     -1.382409
      19A     -1.373575    20A     -1.365706    21A     -1.292263
      22A     -1.261474    23A     -1.169048    24A     -1.078976
      25A     -1.068921    26A     -1.027925    27A     -0.926692
      28A     -0.897451    29A     -0.868807    30A     -0.830675
      31A     -0.806362    32A     -0.754705    33A     -0.738707
      34A     -0.720956    35A     -0.706250    36A     -0.692807
      37A     -0.689153    38A     -0.676398    39A     -0.656903
      40A     -0.637184    41A     -0.627573    42A     -0.618460
      43A     -0.604628    44A     -0.595071    45A     -0.588741
      46A     -0.572730    47A     -0.568752    48A     -0.544854
      49A     -0.532517    50A     -0.523728    51A     -0.510391
      52A     -0.485870    53A     -0.482075    54A     -0.468503
      55A     -0.461102    56A     -0.444450    57A     -0.437834
      58A     -0.416310    59A     -0.383589    60A     -0.334941

  @DF-RHF Final Energy:  -811.47937507380777

   => Energetics <=

    Nuclear Repulsion Energy =           1169.9678486795157824
    One-Electron Energy =               -3434.9960630928553655
    Two-Electron Energy =                1453.5488393395319235
    Total Energy =                       -811.4793750738078870
  Basis Set: (AUG-CC-PVTZ AUX)
    Blend: AUG-CC-PVTZ-RI
    Molecular point group: c1

    Geometry (in Angstrom), charge = 0, multiplicity = 1:

       Center              X                  Y                   Z               Mass
    ------------   -----------------  -----------------  -----------------  -----------------
         O            1.362011920700    -0.380012737244    -0.931873844962    15.994914619570
         O            3.201997920700     1.901211262756    -0.299542844962    15.994914619570
         O            2.799347920700    -2.748948737244    -0.400230844962    15.994914619570
         O           -1.362245079300     2.374003262756     0.154753155038    15.994914619570
         N           -0.798303079300     0.199416262756    -0.229285844962    14.003074004430
         N           -3.054231079300     0.805237262756     0.239982155038    14.003074004430
         N           -4.673469079300    -0.812436737244     0.412607155038    14.003074004430
         C            2.701535920700     0.875552262756     0.559444155038    12.000000000000
         C            1.236784920700     1.107224262756     0.887822155038    12.000000000000
         C            2.651759920700    -0.392292737244    -0.285499844962    12.000000000000
         C            0.573898920700     0.683002262756    -0.414945844962    12.000000000000
         C            2.802038920700    -1.660017737244     0.522440155038    12.000000000000
         C           -1.127396079300    -1.115820737244    -0.308305844962    12.000000000000
         C           -1.744747079300     1.203890262756     0.082015155038    12.000000000000
         C           -2.417366079300    -1.504562737244    -0.104571844962    12.000000000000
         C           -3.362051079300    -0.473161737244     0.168481155038    12.000000000000
         H            3.334321920700     0.756783262756     1.450823155038     1.007825032230
         H            0.904647920700     0.443827262756     1.693459155038     1.007825032230
         H            0.985269920700     2.134065262756     1.158117155038     1.007825032230
         H            0.527394920700     1.513252262756    -1.124942844962     1.007825032230
         H            3.417432920700    -0.364284737244    -1.066655844962     1.007825032230
         H            1.970689920700    -1.733185737244     1.243193155038     1.007825032230
         H            3.746029920700    -1.609516737244     1.088259155038     1.007825032230
         H            3.103791920700     2.746322262756     0.177953155038     1.007825032230
         H           -0.310799079300    -1.789202737244    -0.543727844962     1.007825032230
         H            2.909970920700    -3.565073737244     0.119182155038     1.007825032230
         H           -2.703527079300    -2.549085737244    -0.153279844962     1.007825032230
         H           -5.021365179300    -1.642092637244    -0.054623844962     1.007825032230
         H           -5.293626379300    -0.009067737244     0.390678755038     1.007825032230

  Basis Set: AUG-CC-PVTZ
    Blend: AUG-CC-PVTZ
  Basis Set: (AUG-CC-PVTZ AUX)
    Blend: AUG-CC-PVTZ-JKFIT
	 Reference Energy          =    -811.4793750738077733 [Eh]
	 Singles Energy            =      -0.0000000000000000 [Eh]
	 Same-Spin Energy          =      -0.8296666654061204 [Eh]
	 Opposite-Spin Energy      =      -2.5251484119313994 [Eh]
	 Correlation Energy        =      -3.3548150773375198 [Eh]
	 Total Energy              =    -814.8341901511453216 [Eh]

	 ================> DF-SCS-MP2 Energies <==================
	-----------------------------------------------------------
	 SCS Same-Spin Scale       =       0.3333333333333333 [-]
	 SCS Opposite-Spin Scale   =       1.2000000000000000 [-]
	 SCS Same-Spin Energy      =      -0.2765555551353734 [Eh]
	 SCS Opposite-Spin Energy  =      -3.0301780943176793 [Eh]
	 SCS Correlation Energy    =      -3.3067336494530526 [Eh]
	 SCS Total Energy          =    -814.7861087232607815 [Eh]
	-----------------------------------------------------------

  Dipole Moment: [D]
     X:     1.0789      Y:    -4.6816      Z:     2.4992     Total:     5.4155

*** Psi4 exiting successfully. Buy a developer a beer!
