                               Psi4 1.3.2 release

  ==> Input File <==

--------------------------------------------------------------------------
#psi4
#
memory 32 gb

molecule  {
0 1
  O        1.3620710    -0.3800110    -0.9318440
  O        3.2020570     1.9012130    -0.2995130
  O        2.7994070    -2.7489470    -0.4002010
  O       -1.3621860     2.3740050     0.1547830
  N       -0.7982440     0.1994180    -0.2292560
  N       -3.0541720     0.8052390     0.2400120
  N       -4.6734100    -0.8124350     0.4126370
  C        2.7015950     0.8755540     0.5594740
  C        1.2368440     1.1072260     0.8878520
  C        2.6518190    -0.3922910    -0.2854700
  C        0.5739580     0.6830040    -0.4149160
  C        2.8219921    -1.8278391     0.6294262
  C       -1.1273370    -1.1158190    -0.3082760
  C       -1.7446880     1.2038920     0.0820450
  C       -2.4173070    -1.5045610    -0.1045420
  C       -3.3619920    -0.4731600     0.1685110
  H        3.3343810     0.7567850     1.4508530
  H        0.9047070     0.4438290     1.6934890
  H        0.9853290     2.1340670     1.1581470
  H        0.5274540     1.5132540    -1.1249130
  H        3.4174920    -0.3642830    -1.0666260
  H        1.9707490    -1.7331840     1.2432230
  H        3.7460890    -1.6095150     1.0882890
  H        3.1038510     2.7463240     0.1779830
  H       -0.3107400    -1.7892010    -0.5436980
  H        2.9100300    -3.5650720     0.1192120
  H       -2.7034680    -2.5490840    -0.1532500
  H       -5.0287110    -1.6377420    -0.0567190
  H       -5.2994710    -0.0137980     0.3861010
units angstrom
no_reorient  #important for SAPT in psi4, default
symmetry c1  #important for SAPT in psi4, default
}

set PROPERTIES_ORIGIN ["COM"]
properties('MP2/aug-cc-pvtz', properties = ['dipole'])
--------------------------------------------------------------------------

    Molecular point group: c1
  Charge       = 0
  Multiplicity = 1
  Basis Set: AUG-CC-PVTZ
    Blend: AUG-CC-PVTZ
  Basis Set: (AUG-CC-PVTZ AUX)
    Blend: AUG-CC-PVTZ-JKFIT

    Orbital Energies [Eh]
    ---------------------

    Doubly Occupied:

       1A    -20.588890     2A    -20.571887     3A    -20.571353
       4A    -20.502438     5A    -15.621066     6A    -15.588116
       7A    -15.540448     8A    -11.369320     9A    -11.344725
      10A    -11.329213    11A    -11.318113    12A    -11.296381
      13A    -11.296019    14A    -11.294900    15A    -11.236837
      16A    -11.234918    17A     -1.414559    18A     -1.397390
      19A     -1.379830    20A     -1.364862    21A     -1.291715
      22A     -1.260668    23A     -1.168610    24A     -1.076799
      25A     -1.058221    26A     -1.010291    27A     -0.925635
      28A     -0.898446    29A     -0.868745    30A     -0.828343
      31A     -0.803208    32A     -0.753540    33A     -0.738003
      34A     -0.720891    35A     -0.704260    36A     -0.696752
      37A     -0.686244    38A     -0.679359    39A     -0.661063
      40A     -0.642187    41A     -0.626394    42A     -0.618885
      43A     -0.609477    44A     -0.597531    45A     -0.593256
      46A     -0.572410    47A     -0.568320    48A     -0.546440
      49A     -0.531638    50A     -0.517247    51A     -0.501442
      52A     -0.485466    53A     -0.480993    54A     -0.477184
      55A     -0.455089    56A     -0.442371    57A     -0.418379
      58A     -0.406600    59A     -0.382771    60A     -0.334445

  @DF-RHF Final Energy:  -811.44631929486275

   => Energetics <=

    Nuclear Repulsion Energy =           1166.6138075372753065
    One-Electron Energy =               -3428.3190817459912978
    Two-Electron Energy =                1450.2589549138535858
    Total Energy =                       -811.4463192948626329
  Basis Set: (AUG-CC-PVTZ AUX)
    Blend: AUG-CC-PVTZ-RI
    Molecular point group: c1

    Geometry (in Angstrom), charge = 0, multiplicity = 1:

       Center              X                  Y                   Z               Mass
    ------------   -----------------  -----------------  -----------------  -----------------
         O            1.361019733203    -0.371142871008    -0.937495782127    15.994914619570
         O            3.201005733203     1.910081128992    -0.305164782127    15.994914619570
         O            2.798355733203    -2.740078871008    -0.405852782127    15.994914619570
         O           -1.363237266797     2.382873128992     0.149131217873    15.994914619570
         N           -0.799295266797     0.208286128992    -0.234907782127    14.003074004430
         N           -3.055223266797     0.814107128992     0.234360217873    14.003074004430
         N           -4.674461266797    -0.803566871008     0.406985217873    14.003074004430
         C            2.700543733203     0.884422128992     0.553822217873    12.000000000000
         C            1.235792733203     1.116094128992     0.882200217873    12.000000000000
         C            2.650767733203    -0.383422871008    -0.291121782127    12.000000000000
         C            0.572906733203     0.691872128992    -0.420567782127    12.000000000000
         C            2.820940833203    -1.818970971008     0.623774417873    12.000000000000
         C           -1.128388266797    -1.106950871008    -0.313927782127    12.000000000000
         C           -1.745739266797     1.212760128992     0.076393217873    12.000000000000
         C           -2.418358266797    -1.495692871008    -0.110193782127    12.000000000000
         C           -3.363043266797    -0.464291871008     0.162859217873    12.000000000000
         H            3.333329733203     0.765653128992     1.445201217873     1.007825032230
         H            0.903655733203     0.452697128992     1.687837217873     1.007825032230
         H            0.984277733203     2.142935128992     1.152495217873     1.007825032230
         H            0.526402733203     1.522122128992    -1.130564782127     1.007825032230
         H            3.416440733203    -0.355414871008    -1.072277782127     1.007825032230
         H            1.969697733203    -1.724315871008     1.237571217873     1.007825032230
         H            3.745037733203    -1.600646871008     1.082637217873     1.007825032230
         H            3.102799733203     2.755192128992     0.172331217873     1.007825032230
         H           -0.311791266797    -1.780332871008    -0.549349782127     1.007825032230
         H            2.908978733203    -3.556203871008     0.113560217873     1.007825032230
         H           -2.704519266797    -2.540215871008    -0.158901782127     1.007825032230
         H           -5.029762266797    -1.628873871008    -0.062370782127     1.007825032230
         H           -5.300522266797    -0.004929871008     0.380449217873     1.007825032230

  Basis Set: AUG-CC-PVTZ
    Blend: AUG-CC-PVTZ
  Basis Set: (AUG-CC-PVTZ AUX)
    Blend: AUG-CC-PVTZ-JKFIT
	 Reference Energy          =    -811.4463192948627466 [Eh]
	 Singles Energy            =      -0.0000000000000000 [Eh]
	 Same-Spin Energy          =      -0.8307042953989616 [Eh]
	 Opposite-Spin Energy      =      -2.5277896063588479 [Eh]
	 Correlation Energy        =      -3.3584939017578095 [Eh]
	 Total Energy              =    -814.8048131966205574 [Eh]

	 ================> DF-SCS-MP2 Energies <==================
	-----------------------------------------------------------
	 SCS Same-Spin Scale       =       0.3333333333333333 [-]
	 SCS Opposite-Spin Scale   =       1.2000000000000000 [-]
	 SCS Same-Spin Energy      =      -0.2769014317996539 [Eh]
	 SCS Opposite-Spin Energy  =      -3.0333475276306174 [Eh]
	 SCS Correlation Energy    =      -3.3102489594302713 [Eh]
	 SCS Total Energy          =    -814.7565682542930290 [Eh]
	-----------------------------------------------------------

  Dipole Moment: [D]
     X:     1.0809      Y:    -4.9370      Z:     2.3764     Total:     5.5848

*** Psi4 exiting successfully. Buy a developer a beer!
