                               Psi4 1.3.2 release

  ==> Input File <==

--------------------------------------------------------------------------
#psi4
#
memory 32 gb

molecule  {
0 1
  O        1.3521153    -0.3873977    -0.9316838
  O        3.2020570     1.9012130    -0.2995130
  O        2.7994070    -2.7489470    -0.4002010
  O       -1.3621860     2.3740050     0.1547830
  N       -0.7947231     0.1879166    -0.2336317
  N       -3.0541720     0.8052390     0.2400120
  N       -4.6734100    -0.8124350     0.4126370
  C        2.7015950     0.8755540     0.5594740
  C        1.2368440     1.1072260     0.8878520
  C        2.6518190    -0.3922910    -0.2854700
  C        0.5739580     0.6830040    -0.4149160
  C        2.8020980    -1.6600160     0.5224700
  C       -1.1273370    -1.1158190    -0.3082760
  C       -1.7446880     1.2038920     0.0820450
  C       -2.4173070    -1.5045610    -0.1045420
  C       -3.3619920    -0.4731600     0.1685110
  H        3.3343810     0.7567850     1.4508530
  H        0.9047070     0.4438290     1.6934890
  H        0.9853290     2.1340670     1.1581470
  H        0.5274540     1.5132540    -1.1249130
  H        3.4174920    -0.3642830    -1.0666260
  H        1.9707490    -1.7331840     1.2432230
  H        3.7460890    -1.6095150     1.0882890
  H        3.1038510     2.7463240     0.1779830
  H       -0.3107400    -1.7892010    -0.5436980
  H        2.9100300    -3.5650720     0.1192120
  H       -2.7034680    -2.5490840    -0.1532500
  H       -5.0287110    -1.6377420    -0.0567190
  H       -5.2994710    -0.0137980     0.3861010
units angstrom
no_reorient  #important for SAPT in psi4, default
symmetry c1  #important for SAPT in psi4, default
}

set PROPERTIES_ORIGIN ["COM"]
properties('MP2/aug-cc-pvtz', properties = ['dipole'])
--------------------------------------------------------------------------

    Molecular point group: c1
  Charge       = 0
  Multiplicity = 1
  Basis Set: AUG-CC-PVTZ
    Blend: AUG-CC-PVTZ
  Basis Set: (AUG-CC-PVTZ AUX)
    Blend: AUG-CC-PVTZ-JKFIT

    Orbital Energies [Eh]
    ---------------------

    Doubly Occupied:

       1A    -20.577854     2A    -20.574904     3A    -20.572956
       4A    -20.504752     5A    -15.621572     6A    -15.587722
       7A    -15.540396     8A    -11.371177     9A    -11.344354
      10A    -11.330874    11A    -11.316706    12A    -11.301692
      13A    -11.297245    14A    -11.293970    15A    -11.237422
      16A    -11.235090    17A     -1.415399    18A     -1.382100
      19A     -1.373869    20A     -1.365647    21A     -1.292640
      22A     -1.261811    23A     -1.168774    24A     -1.079286
      25A     -1.068945    26A     -1.027038    27A     -0.926926
      28A     -0.896190    29A     -0.868900    30A     -0.830766
      31A     -0.806435    32A     -0.753539    33A     -0.739130
      34A     -0.720881    35A     -0.706379    36A     -0.692829
      37A     -0.689425    38A     -0.675367    39A     -0.655539
      40A     -0.636810    41A     -0.627322    42A     -0.618467
      43A     -0.603871    44A     -0.594270    45A     -0.588421
      46A     -0.573919    47A     -0.568722    48A     -0.544743
      49A     -0.532297    50A     -0.523687    51A     -0.510695
      52A     -0.487293    53A     -0.483566    54A     -0.468703
      55A     -0.461977    56A     -0.445073    57A     -0.438055
      58A     -0.415884    59A     -0.383591    60A     -0.333606

  @DF-RHF Final Energy:  -811.47856277733467

   => Energetics <=

    Nuclear Repulsion Energy =           1169.8438306707009815
    One-Electron Energy =               -3434.7498365151191138
    Two-Electron Energy =                1453.4274430670836864
    Total Energy =                       -811.4785627773346732
  Basis Set: (AUG-CC-PVTZ AUX)
    Blend: AUG-CC-PVTZ-RI
    Molecular point group: c1

    Geometry (in Angstrom), charge = 0, multiplicity = 1:

       Center              X                  Y                   Z               Mass
    ------------   -----------------  -----------------  -----------------  -----------------
         O            1.352599395473    -0.386168251621    -0.931425230793    15.994914619570
         O            3.202541095473     1.902442448379    -0.299254430793    15.994914619570
         O            2.799891095473    -2.747717551621    -0.399942430793    15.994914619570
         O           -1.361701904527     2.375234448379     0.155041569207    15.994914619570
         N           -0.794239004527     0.189146048379    -0.233373130793    14.003074004430
         N           -3.053687904527     0.806468448379     0.240270569207    14.003074004430
         N           -4.672925904527    -0.811205551621     0.412895569207    14.003074004430
         C            2.702079095473     0.876783448379     0.559732569207    12.000000000000
         C            1.237328095473     1.108455448379     0.888110569207    12.000000000000
         C            2.652303095473    -0.391061551621    -0.285211430793    12.000000000000
         C            0.574442095473     0.684233448379    -0.414657430793    12.000000000000
         C            2.802582095473    -1.658786551621     0.522728569207    12.000000000000
         C           -1.126852904527    -1.114589551621    -0.308017430793    12.000000000000
         C           -1.744203904527     1.205121448379     0.082303569207    12.000000000000
         C           -2.416822904527    -1.503331551621    -0.104283430793    12.000000000000
         C           -3.361507904527    -0.471930551621     0.168769569207    12.000000000000
         H            3.334865095473     0.758014448379     1.451111569207     1.007825032230
         H            0.905191095473     0.445058448379     1.693747569207     1.007825032230
         H            0.985813095473     2.135296448379     1.158405569207     1.007825032230
         H            0.527938095473     1.514483448379    -1.124654430793     1.007825032230
         H            3.417976095473    -0.363053551621    -1.066367430793     1.007825032230
         H            1.971233095473    -1.731954551621     1.243481569207     1.007825032230
         H            3.746573095473    -1.608285551621     1.088547569207     1.007825032230
         H            3.104335095473     2.747553448379     0.178241569207     1.007825032230
         H           -0.310255904527    -1.787971551621    -0.543439430793     1.007825032230
         H            2.910514095473    -3.563842551621     0.119470569207     1.007825032230
         H           -2.702983904527    -2.547854551621    -0.152991430793     1.007825032230
         H           -5.028226904527    -1.636512551621    -0.056460430793     1.007825032230
         H           -5.298986904527    -0.012568551621     0.386359569207     1.007825032230

  Basis Set: AUG-CC-PVTZ
    Blend: AUG-CC-PVTZ
  Basis Set: (AUG-CC-PVTZ AUX)
    Blend: AUG-CC-PVTZ-JKFIT
	 Reference Energy          =    -811.4785627773346732 [Eh]
	 Singles Energy            =      -0.0000000000000000 [Eh]
	 Same-Spin Energy          =      -0.8298273100504747 [Eh]
	 Opposite-Spin Energy      =      -2.5254749450334950 [Eh]
	 Correlation Energy        =      -3.3553022550839700 [Eh]
	 Total Energy              =    -814.8338650324186574 [Eh]

	 ================> DF-SCS-MP2 Energies <==================
	-----------------------------------------------------------
	 SCS Same-Spin Scale       =       0.3333333333333333 [-]
	 SCS Opposite-Spin Scale   =       1.2000000000000000 [-]
	 SCS Same-Spin Energy      =      -0.2766091033501582 [Eh]
	 SCS Opposite-Spin Energy  =      -3.0305699340401939 [Eh]
	 SCS Correlation Energy    =      -3.3071790373903522 [Eh]
	 SCS Total Energy          =    -814.7857418147250428 [Eh]
	-----------------------------------------------------------

  Dipole Moment: [D]
     X:     1.1477      Y:    -4.6044      Z:     2.5004     Total:     5.3637

*** Psi4 exiting successfully. Buy a developer a beer!
