                               Psi4 1.3.2 release

  ==> Input File <==

--------------------------------------------------------------------------
#psi4
#
memory 32 gb

molecule  {
0 1
  O        1.3311362    -0.3829986    -0.9704852
  O        3.2020570     1.9012130    -0.2995130
  O        2.7994070    -2.7489470    -0.4002010
  O       -1.3621860     2.3740050     0.1547830
  N       -0.7982440     0.1994180    -0.2292560
  N       -3.0541720     0.8052390     0.2400120
  N       -4.6734100    -0.8124350     0.4126370
  C        2.7015950     0.8755540     0.5594740
  C        1.1990551     1.1440575     0.8940034
  C        2.6518190    -0.3922910    -0.2854700
  C        0.5739580     0.6830040    -0.4149160
  C        2.8020980    -1.6600160     0.5224700
  C       -1.1273370    -1.1158190    -0.3082760
  C       -1.7446880     1.2038920     0.0820450
  C       -2.4173070    -1.5045610    -0.1045420
  C       -3.3619920    -0.4731600     0.1685110
  H        3.3343810     0.7567850     1.4508530
  H        0.9047070     0.4438290     1.6934890
  H        0.9853290     2.1340670     1.1581470
  H        0.5274540     1.5132540    -1.1249130
  H        3.4174920    -0.3642830    -1.0666260
  H        1.9707490    -1.7331840     1.2432230
  H        3.7460890    -1.6095150     1.0882890
  H        3.1038510     2.7463240     0.1779830
  H       -0.3107400    -1.7892010    -0.5436980
  H        2.9100300    -3.5650720     0.1192120
  H       -2.7034680    -2.5490840    -0.1532500
  H       -5.0287110    -1.6377420    -0.0567190
  H       -5.2994710    -0.0137980     0.3861010
units angstrom
no_reorient  #important for SAPT in psi4, default
symmetry c1  #important for SAPT in psi4, default
}

set PROPERTIES_ORIGIN ["COM"]
properties('MP2/aug-cc-pvtz', properties = ['dipole'])
--------------------------------------------------------------------------

    Molecular point group: c1
  Charge       = 0
  Multiplicity = 1
  Basis Set: AUG-CC-PVTZ
    Blend: AUG-CC-PVTZ
  Basis Set: (AUG-CC-PVTZ AUX)
    Blend: AUG-CC-PVTZ-JKFIT

    Orbital Energies [Eh]
    ---------------------

    Doubly Occupied:

       1A    -20.579252     2A    -20.575112     3A    -20.575018
       4A    -20.501786     5A    -15.619212     6A    -15.587213
       7A    -15.539413     8A    -11.368207     9A    -11.343620
      10A    -11.328841    11A    -11.316529    12A    -11.305388
      13A    -11.300039    14A    -11.298177    15A    -11.237674
      16A    -11.235476    17A     -1.408595    18A     -1.381002
      19A     -1.374682    20A     -1.363825    21A     -1.290488
      22A     -1.258853    23A     -1.167585    24A     -1.077122
      25A     -1.068038    26A     -1.026195    27A     -0.925208
      28A     -0.895755    29A     -0.869601    30A     -0.829715
      31A     -0.806141    32A     -0.753132    33A     -0.736109
      34A     -0.720728    35A     -0.706036    36A     -0.694137
      37A     -0.689263    38A     -0.673541    39A     -0.653969
      40A     -0.634646    41A     -0.626027    42A     -0.616950
      43A     -0.603596    44A     -0.592784    45A     -0.588268
      46A     -0.570967    47A     -0.567037    48A     -0.550534
      49A     -0.532443    50A     -0.526949    51A     -0.510296
      52A     -0.489409    53A     -0.480932    54A     -0.469007
      55A     -0.458935    56A     -0.443214    57A     -0.438105
      58A     -0.414655    59A     -0.382221    60A     -0.333419

  @DF-RHF Final Energy:  -811.47299902802479

   => Energetics <=

    Nuclear Repulsion Energy =           1168.3891312332530106
    One-Electron Energy =               -3431.9021207568816862
    Two-Electron Energy =                1452.0399904956038881
    Total Energy =                       -811.4729990280247875
  Basis Set: (AUG-CC-PVTZ AUX)
    Blend: AUG-CC-PVTZ-RI
    Molecular point group: c1

    Geometry (in Angstrom), charge = 0, multiplicity = 1:

       Center              X                  Y                   Z               Mass
    ------------   -----------------  -----------------  -----------------  -----------------
         O            1.335311901884    -0.384734471043    -0.968088563358    15.994914619570
         O            3.206232701884     1.899477128957    -0.297116363358    15.994914619570
         O            2.803582701884    -2.750682871043    -0.397804363358    15.994914619570
         O           -1.358010298116     2.372269128957     0.157179636642    15.994914619570
         N           -0.794068298116     0.197682128957    -0.226859363358    14.003074004430
         N           -3.049996298116     0.803503128957     0.242408636642    14.003074004430
         N           -4.669234298116    -0.814170871043     0.415033636642    14.003074004430
         C            2.705770701884     0.873818128957     0.561870636642    12.000000000000
         C            1.203230801884     1.142321628957     0.896400036642    12.000000000000
         C            2.655994701884    -0.394026871043    -0.283073363358    12.000000000000
         C            0.578133701884     0.681268128957    -0.412519363358    12.000000000000
         C            2.806273701884    -1.661751871043     0.524866636642    12.000000000000
         C           -1.123161298116    -1.117554871043    -0.305879363358    12.000000000000
         C           -1.740512298116     1.202156128957     0.084441636642    12.000000000000
         C           -2.413131298116    -1.506296871043    -0.102145363358    12.000000000000
         C           -3.357816298116    -0.474895871043     0.170907636642    12.000000000000
         H            3.338556701884     0.755049128957     1.453249636642     1.007825032230
         H            0.908882701884     0.442093128957     1.695885636642     1.007825032230
         H            0.989504701884     2.132331128957     1.160543636642     1.007825032230
         H            0.531629701884     1.511518128957    -1.122516363358     1.007825032230
         H            3.421667701884    -0.366018871043    -1.064229363358     1.007825032230
         H            1.974924701884    -1.734919871043     1.245619636642     1.007825032230
         H            3.750264701884    -1.611250871043     1.090685636642     1.007825032230
         H            3.108026701884     2.744588128957     0.180379636642     1.007825032230
         H           -0.306564298116    -1.790936871043    -0.541301363358     1.007825032230
         H            2.914205701884    -3.566807871043     0.121608636642     1.007825032230
         H           -2.699292298116    -2.550819871043    -0.150853363358     1.007825032230
         H           -5.024535298116    -1.639477871043    -0.054322363358     1.007825032230
         H           -5.295295298116    -0.015533871043     0.388497636642     1.007825032230

  Basis Set: AUG-CC-PVTZ
    Blend: AUG-CC-PVTZ
  Basis Set: (AUG-CC-PVTZ AUX)
    Blend: AUG-CC-PVTZ-JKFIT
	 Reference Energy          =    -811.4729990280247875 [Eh]
	 Singles Energy            =      -0.0000000000000000 [Eh]
	 Same-Spin Energy          =      -0.8297974683823501 [Eh]
	 Opposite-Spin Energy      =      -2.5265276084955537 [Eh]
	 Correlation Energy        =      -3.3563250768779040 [Eh]
	 Total Energy              =    -814.8293241049026392 [Eh]

	 ================> DF-SCS-MP2 Energies <==================
	-----------------------------------------------------------
	 SCS Same-Spin Scale       =       0.3333333333333333 [-]
	 SCS Opposite-Spin Scale   =       1.2000000000000000 [-]
	 SCS Same-Spin Energy      =      -0.2765991561274500 [Eh]
	 SCS Opposite-Spin Energy  =      -3.0318331301946642 [Eh]
	 SCS Correlation Energy    =      -3.3084322863221143 [Eh]
	 SCS Total Energy          =    -814.7814313143469462 [Eh]
	-----------------------------------------------------------

  Dipole Moment: [D]
     X:     1.3236      Y:    -4.6825      Z:     2.5730     Total:     5.5044

*** Psi4 exiting successfully. Buy a developer a beer!
