                               Psi4 1.3.2 release

  ==> Input File <==

--------------------------------------------------------------------------
#psi4
#
memory 32 gb

molecule  {
0 1
  O        1.3620710    -0.3800110    -0.9318440
  O        3.2020570     1.9012130    -0.2995130
  O        2.7994070    -2.7489470    -0.4002010
  O       -1.3621860     2.3740050     0.1547830
  N       -0.7982440     0.1994180    -0.2292560
  N       -3.0541720     0.8052390     0.2400120
  N       -4.6734100    -0.8124350     0.4126370
  C        2.7015950     0.8755540     0.5594740
  C        1.2368440     1.1072260     0.8878520
  C        2.6518190    -0.3922910    -0.2854700
  C        0.5739580     0.6830040    -0.4149160
  C        2.8022865    -1.5837213     0.5871159
  C       -1.1273370    -1.1158190    -0.3082760
  C       -1.7446880     1.2038920     0.0820450
  C       -2.4173070    -1.5045610    -0.1045420
  C       -3.3619920    -0.4731600     0.1685110
  H        3.3343810     0.7567850     1.4508530
  H        0.9047070     0.4438290     1.6934890
  H        0.9853290     2.1340670     1.1581470
  H        0.5274540     1.5132540    -1.1249130
  H        3.4174920    -0.3642830    -1.0666260
  H        1.9707490    -1.7331840     1.2432230
  H        3.7460890    -1.6095150     1.0882890
  H        3.1038510     2.7463240     0.1779830
  H       -0.3107400    -1.7892010    -0.5436980
  H        2.9100300    -3.5650720     0.1192120
  H       -2.7034680    -2.5490840    -0.1532500
  H       -5.0287110    -1.6377420    -0.0567190
  H       -5.2994710    -0.0137980     0.3861010
units angstrom
no_reorient  #important for SAPT in psi4, default
symmetry c1  #important for SAPT in psi4, default
}

set PROPERTIES_ORIGIN ["COM"]
properties('MP2/aug-cc-pvtz', properties = ['dipole'])
--------------------------------------------------------------------------

    Molecular point group: c1
  Charge       = 0
  Multiplicity = 1
  Basis Set: AUG-CC-PVTZ
    Blend: AUG-CC-PVTZ
  Basis Set: (AUG-CC-PVTZ AUX)
    Blend: AUG-CC-PVTZ-JKFIT

    Orbital Energies [Eh]
    ---------------------

    Doubly Occupied:

       1A    -20.575273     2A    -20.575251     3A    -20.567205
       4A    -20.503729     5A    -15.622498     6A    -15.588733
       7A    -15.541314     8A    -11.370558     9A    -11.345506
      10A    -11.332103    11A    -11.318649    12A    -11.301668
      13A    -11.296783    14A    -11.295115    15A    -11.238445
      16A    -11.237460    17A     -1.417774    18A     -1.382636
      19A     -1.369454    20A     -1.336494    21A     -1.292789
      22A     -1.262066    23A     -1.169643    24A     -1.082464
      25A     -1.073712    26A     -1.031945    27A     -0.930566
      28A     -0.898964    29A     -0.870059    30A     -0.832157
      31A     -0.810323    32A     -0.755203    33A     -0.739686
      34A     -0.716179    35A     -0.707532    36A     -0.691688
      37A     -0.681025    38A     -0.675015    39A     -0.657045
      40A     -0.637767    41A     -0.628639    42A     -0.618907
      43A     -0.602881    44A     -0.594090    45A     -0.585906
      46A     -0.573232    47A     -0.568772    48A     -0.536706
      49A     -0.530046    50A     -0.525629    51A     -0.512847
      52A     -0.485363    53A     -0.482604    54A     -0.472977
      55A     -0.463879    56A     -0.447652    57A     -0.440589
      58A     -0.417056    59A     -0.384354    60A     -0.335525

  @DF-RHF Final Energy:  -811.46948689181204

   => Energetics <=

    Nuclear Repulsion Energy =           1169.8289665067497936
    One-Electron Energy =               -3434.7166503674652631
    Two-Electron Energy =                1453.4181969689036578
    Total Energy =                       -811.4694868918120392
  Basis Set: (AUG-CC-PVTZ AUX)
    Blend: AUG-CC-PVTZ-RI
    Molecular point group: c1

    Geometry (in Angstrom), charge = 0, multiplicity = 1:

       Center              X                  Y                   Z               Mass
    ------------   -----------------  -----------------  -----------------  -----------------
         O            1.362061023304    -0.384042627862    -0.935260006684    15.994914619570
         O            3.202047023304     1.897181372138    -0.302929006684    15.994914619570
         O            2.799397023304    -2.752978627862    -0.403617006684    15.994914619570
         O           -1.362195976696     2.369973372138     0.151366993316    15.994914619570
         N           -0.798253976696     0.195386372138    -0.232672006684    14.003074004430
         N           -3.054181976696     0.801207372138     0.236595993316    14.003074004430
         N           -4.673419976696    -0.816466627862     0.409220993316    14.003074004430
         C            2.701585023304     0.871522372138     0.556057993316    12.000000000000
         C            1.236834023304     1.103194372138     0.884435993316    12.000000000000
         C            2.651809023304    -0.396322627862    -0.288886006684    12.000000000000
         C            0.573948023304     0.678972372138    -0.418332006684    12.000000000000
         C            2.802276523304    -1.587752927862     0.583699893316    12.000000000000
         C           -1.127346976696    -1.119850627862    -0.311692006684    12.000000000000
         C           -1.744697976696     1.199860372138     0.078628993316    12.000000000000
         C           -2.417316976696    -1.508592627862    -0.107958006684    12.000000000000
         C           -3.362001976696    -0.477191627862     0.165094993316    12.000000000000
         H            3.334371023304     0.752753372138     1.447436993316     1.007825032230
         H            0.904697023304     0.439797372138     1.690072993316     1.007825032230
         H            0.985319023304     2.130035372138     1.154730993316     1.007825032230
         H            0.527444023304     1.509222372138    -1.128329006684     1.007825032230
         H            3.417482023304    -0.368314627862    -1.070042006684     1.007825032230
         H            1.970739023304    -1.737215627862     1.239806993316     1.007825032230
         H            3.746079023304    -1.613546627862     1.084872993316     1.007825032230
         H            3.103841023304     2.742292372138     0.174566993316     1.007825032230
         H           -0.310749976696    -1.793232627862    -0.547114006684     1.007825032230
         H            2.910020023304    -3.569103627862     0.115795993316     1.007825032230
         H           -2.703477976696    -2.553115627862    -0.156666006684     1.007825032230
         H           -5.028720976696    -1.641773627862    -0.060135006684     1.007825032230
         H           -5.299480976696    -0.017829627862     0.382684993316     1.007825032230

  Basis Set: AUG-CC-PVTZ
    Blend: AUG-CC-PVTZ
  Basis Set: (AUG-CC-PVTZ AUX)
    Blend: AUG-CC-PVTZ-JKFIT
	 Reference Energy          =    -811.4694868918120392 [Eh]
	 Singles Energy            =      -0.0000000000000000 [Eh]
	 Same-Spin Energy          =      -0.8302560541320401 [Eh]
	 Opposite-Spin Energy      =      -2.5274022347583416 [Eh]
	 Correlation Energy        =      -3.3576582888903816 [Eh]
	 Total Energy              =    -814.8271451807024732 [Eh]

	 ================> DF-SCS-MP2 Energies <==================
	-----------------------------------------------------------
	 SCS Same-Spin Scale       =       0.3333333333333333 [-]
	 SCS Opposite-Spin Scale   =       1.2000000000000000 [-]
	 SCS Same-Spin Energy      =      -0.2767520180440133 [Eh]
	 SCS Opposite-Spin Energy  =      -3.0328826817100096 [Eh]
	 SCS Correlation Energy    =      -3.3096346997540231 [Eh]
	 SCS Total Energy          =    -814.7791215915660814 [Eh]
	-----------------------------------------------------------

  Dipole Moment: [D]
     X:     1.0292      Y:    -4.3802      Z:     2.6655     Total:     5.2298

*** Psi4 exiting successfully. Buy a developer a beer!
