                               Psi4 1.3.2 release

  ==> Input File <==

--------------------------------------------------------------------------
#psi4
#
memory 32 gb

molecule  {
0 1
  O        1.3620710    -0.3800110    -0.9318440
  O        3.2020570     1.9012130    -0.2995130
  O        2.7994070    -2.7489470    -0.4002010
  O       -1.4228275     2.3911768     0.1687844
  N       -0.8527465     0.1494487    -0.2249113
  N       -3.0541720     0.8052390     0.2400120
  N       -4.6734100    -0.8124350     0.4126370
  C        2.7015950     0.8755540     0.5594740
  C        1.2368440     1.1072260     0.8878520
  C        2.6518190    -0.3922910    -0.2854700
  C        0.5739580     0.6830040    -0.4149160
  C        2.8020980    -1.6600160     0.5224700
  C       -1.1273370    -1.1158190    -0.3082760
  C       -1.7446880     1.2038920     0.0820450
  C       -2.4173070    -1.5045610    -0.1045420
  C       -3.3619920    -0.4731600     0.1685110
  H        3.3343810     0.7567850     1.4508530
  H        0.9047070     0.4438290     1.6934890
  H        0.9853290     2.1340670     1.1581470
  H        0.5274540     1.5132540    -1.1249130
  H        3.4174920    -0.3642830    -1.0666260
  H        1.9707490    -1.7331840     1.2432230
  H        3.7460890    -1.6095150     1.0882890
  H        3.1038510     2.7463240     0.1779830
  H       -0.3107400    -1.7892010    -0.5436980
  H        2.9100300    -3.5650720     0.1192120
  H       -2.7034680    -2.5490840    -0.1532500
  H       -5.0287110    -1.6377420    -0.0567190
  H       -5.2994710    -0.0137980     0.3861010
units angstrom
no_reorient  #important for SAPT in psi4, default
symmetry c1  #important for SAPT in psi4, default
}

set PROPERTIES_ORIGIN ["COM"]
properties('MP2/aug-cc-pvtz', properties = ['dipole'])
--------------------------------------------------------------------------

    Molecular point group: c1
  Charge       = 0
  Multiplicity = 1
  Basis Set: AUG-CC-PVTZ
    Blend: AUG-CC-PVTZ
  Basis Set: (AUG-CC-PVTZ AUX)
    Blend: AUG-CC-PVTZ-JKFIT

    Orbital Energies [Eh]
    ---------------------

    Doubly Occupied:

       1A    -20.579489     2A    -20.577828     3A    -20.577219
       4A    -20.506394     5A    -15.626023     6A    -15.582719
       7A    -15.534320     8A    -11.370692     9A    -11.340594
      10A    -11.337968    11A    -11.311789    12A    -11.304952
      13A    -11.299107    14A    -11.296281    15A    -11.242543
      16A    -11.229186    17A     -1.418975    18A     -1.383853
      19A     -1.376068    20A     -1.368378    21A     -1.299917
      22A     -1.263165    23A     -1.163245    24A     -1.081341
      25A     -1.068263    26A     -1.029691    27A     -0.926352
      28A     -0.903770    29A     -0.867504    30A     -0.832217
      31A     -0.808353    32A     -0.752496    33A     -0.743331
      34A     -0.723770    35A     -0.704881    36A     -0.694771
      37A     -0.689157    38A     -0.674975    39A     -0.655672
      40A     -0.637791    41A     -0.631117    42A     -0.618442
      43A     -0.606212    44A     -0.595667    45A     -0.590499
      46A     -0.573921    47A     -0.566613    48A     -0.546938
      49A     -0.531442    50A     -0.525462    51A     -0.512899
      52A     -0.491686    53A     -0.488616    54A     -0.471257
      55A     -0.465285    56A     -0.445889    57A     -0.437555
      58A     -0.412721    59A     -0.380278    60A     -0.329859

  @DF-RHF Final Energy:  -811.46977885980198

   => Energetics <=

    Nuclear Repulsion Energy =           1168.9016798181864942
    One-Electron Energy =               -3432.7281298784814680
    Two-Electron Energy =                1452.3566712004931105
    Total Energy =                       -811.4697788598018633
  Basis Set: (AUG-CC-PVTZ AUX)
    Blend: AUG-CC-PVTZ-RI
    Molecular point group: c1

    Geometry (in Angstrom), charge = 0, multiplicity = 1:

       Center              X                  Y                   Z               Mass
    ------------   -----------------  -----------------  -----------------  -----------------
         O            1.369702995762    -0.378139262878    -0.933098048267    15.994914619570
         O            3.209688995762     1.903084737122    -0.300767048267    15.994914619570
         O            2.807038995762    -2.747075262878    -0.401455048267    15.994914619570
         O           -1.415195504238     2.393048537122     0.167530351733    15.994914619570
         N           -0.845114504238     0.151320437122    -0.226165348267    14.003074004430
         N           -3.046540004238     0.807110737122     0.238757951733    14.003074004430
         N           -4.665778004238    -0.810563262878     0.411382951733    14.003074004430
         C            2.709226995762     0.877425737122     0.558219951733    12.000000000000
         C            1.244475995762     1.109097737122     0.886597951733    12.000000000000
         C            2.659450995762    -0.390419262878    -0.286724048267    12.000000000000
         C            0.581589995762     0.684875737122    -0.416170048267    12.000000000000
         C            2.809729995762    -1.658144262878     0.521215951733    12.000000000000
         C           -1.119705004238    -1.113947262878    -0.309530048267    12.000000000000
         C           -1.737056004238     1.205763737122     0.080790951733    12.000000000000
         C           -2.409675004238    -1.502689262878    -0.105796048267    12.000000000000
         C           -3.354360004238    -0.471288262878     0.167256951733    12.000000000000
         H            3.342012995762     0.758656737122     1.449598951733     1.007825032230
         H            0.912338995762     0.445700737122     1.692234951733     1.007825032230
         H            0.992960995762     2.135938737122     1.156892951733     1.007825032230
         H            0.535085995762     1.515125737122    -1.126167048267     1.007825032230
         H            3.425123995762    -0.362411262878    -1.067880048267     1.007825032230
         H            1.978380995762    -1.731312262878     1.241968951733     1.007825032230
         H            3.753720995762    -1.607643262878     1.087034951733     1.007825032230
         H            3.111482995762     2.748195737122     0.176728951733     1.007825032230
         H           -0.303108004238    -1.787329262878    -0.544952048267     1.007825032230
         H            2.917661995762    -3.563200262878     0.117957951733     1.007825032230
         H           -2.695836004238    -2.547212262878    -0.154504048267     1.007825032230
         H           -5.021079004238    -1.635870262878    -0.057973048267     1.007825032230
         H           -5.291839004238    -0.011926262878     0.384846951733     1.007825032230

  Basis Set: AUG-CC-PVTZ
    Blend: AUG-CC-PVTZ
  Basis Set: (AUG-CC-PVTZ AUX)
    Blend: AUG-CC-PVTZ-JKFIT
	 Reference Energy          =    -811.4697788598019770 [Eh]
	 Singles Energy            =      -0.0000000000000000 [Eh]
	 Same-Spin Energy          =      -0.8303039901022702 [Eh]
	 Opposite-Spin Energy      =      -2.5258245059305944 [Eh]
	 Correlation Energy        =      -3.3561284960328646 [Eh]
	 Total Energy              =    -814.8259073558348291 [Eh]

	 ================> DF-SCS-MP2 Energies <==================
	-----------------------------------------------------------
	 SCS Same-Spin Scale       =       0.3333333333333333 [-]
	 SCS Opposite-Spin Scale   =       1.2000000000000000 [-]
	 SCS Same-Spin Energy      =      -0.2767679967007567 [Eh]
	 SCS Opposite-Spin Energy  =      -3.0309894071167132 [Eh]
	 SCS Correlation Energy    =      -3.3077574038174697 [Eh]
	 SCS Total Energy          =    -814.7775362636194814 [Eh]
	-----------------------------------------------------------

  Dipole Moment: [D]
     X:     1.6548      Y:    -4.5333      Z:     2.4420     Total:     5.4086

*** Psi4 exiting successfully. Buy a developer a beer!
