                               Psi4 1.3.2 release

  ==> Input File <==

--------------------------------------------------------------------------
#psi4
#
memory 32 gb

molecule  {
0 1
  O        1.3620710    -0.3800110    -0.9318440
  O        3.2020570     1.9012130    -0.2995130
  O        2.7994070    -2.7489470    -0.4002010
  O       -1.3621860     2.3740050     0.1547830
  N       -0.7982440     0.1994180    -0.2292560
  N       -3.0541720     0.8052390     0.2400120
  N       -4.6734100    -0.8124350     0.4126370
  C        2.6982582     0.9132096     0.5223035
  C        1.2368440     1.1072260     0.8878520
  C        2.6518190    -0.3922910    -0.2854700
  C        0.5739580     0.6830040    -0.4149160
  C        2.8020980    -1.6600160     0.5224700
  C       -1.1273370    -1.1158190    -0.3082760
  C       -1.7446880     1.2038920     0.0820450
  C       -2.4173070    -1.5045610    -0.1045420
  C       -3.3619920    -0.4731600     0.1685110
  H        3.3343810     0.7567850     1.4508530
  H        0.8698752     0.4593879     1.6910340
  H        0.9853290     2.1340670     1.1581470
  H        0.5274540     1.5132540    -1.1249130
  H        3.4174920    -0.3642830    -1.0666260
  H        1.9707490    -1.7331840     1.2432230
  H        3.7460890    -1.6095150     1.0882890
  H        3.1038510     2.7463240     0.1779830
  H       -0.3107400    -1.7892010    -0.5436980
  H        2.9100300    -3.5650720     0.1192120
  H       -2.7034680    -2.5490840    -0.1532500
  H       -5.0287110    -1.6377420    -0.0567190
  H       -5.2994710    -0.0137980     0.3861010
units angstrom
no_reorient  #important for SAPT in psi4, default
symmetry c1  #important for SAPT in psi4, default
}

set PROPERTIES_ORIGIN ["COM"]
properties('MP2/aug-cc-pvtz', properties = ['dipole'])
--------------------------------------------------------------------------

    Molecular point group: c1
  Charge       = 0
  Multiplicity = 1
  Basis Set: AUG-CC-PVTZ
    Blend: AUG-CC-PVTZ
  Basis Set: (AUG-CC-PVTZ AUX)
    Blend: AUG-CC-PVTZ-JKFIT

    Orbital Energies [Eh]
    ---------------------

    Doubly Occupied:

       1A    -20.580381     2A    -20.577375     3A    -20.571572
       4A    -20.502744     5A    -15.621322     6A    -15.588127
       7A    -15.540543     8A    -11.369582     9A    -11.344755
      10A    -11.329666    11A    -11.317916    12A    -11.302584
      13A    -11.296369    14A    -11.291992    15A    -11.236685
      16A    -11.235311    17A     -1.419057    18A     -1.391539
      19A     -1.379148    20A     -1.368236    21A     -1.291938
      22A     -1.261083    23A     -1.168839    24A     -1.077637
      25A     -1.065814    26A     -1.027240    27A     -0.926135
      28A     -0.897272    29A     -0.869117    30A     -0.831203
      31A     -0.803212    32A     -0.754081    33A     -0.737389
      34A     -0.721162    35A     -0.709747    36A     -0.697587
      37A     -0.691281    38A     -0.676070    39A     -0.657132
      40A     -0.638666    41A     -0.628097    42A     -0.619921
      43A     -0.604377    44A     -0.597272    45A     -0.589022
      46A     -0.573662    47A     -0.570559    48A     -0.545148
      49A     -0.534734    50A     -0.522618    51A     -0.512010
      52A     -0.482013    53A     -0.478281    54A     -0.467688
      55A     -0.457778    56A     -0.442674    57A     -0.436664
      58A     -0.415889    59A     -0.383219    60A     -0.334516

  @DF-RHF Final Energy:  -811.47678769520905

   => Energetics <=

    Nuclear Repulsion Energy =           1170.3254054293845456
    One-Electron Energy =               -3435.6770902236712573
    Two-Electron Energy =                1453.8748970990775433
    Total Energy =                       -811.4767876952089409
  Basis Set: (AUG-CC-PVTZ AUX)
    Blend: AUG-CC-PVTZ-RI
    Molecular point group: c1

    Geometry (in Angstrom), charge = 0, multiplicity = 1:

       Center              X                  Y                   Z               Mass
    ------------   -----------------  -----------------  -----------------  -----------------
         O            1.362401891478    -0.382069897421    -0.929868894156    15.994914619570
         O            3.202387891478     1.899154102579    -0.297537894156    15.994914619570
         O            2.799737891478    -2.751005897421    -0.398225894156    15.994914619570
         O           -1.361855108522     2.371946102579     0.156758105844    15.994914619570
         N           -0.797913108522     0.197359102579    -0.227280894156    14.003074004430
         N           -3.053841108522     0.803180102579     0.241987105844    14.003074004430
         N           -4.673079108522    -0.814493897421     0.414612105844    14.003074004430
         C            2.698589091478     0.911150702579     0.524278605844    12.000000000000
         C            1.237174891478     1.105167102579     0.889827105844    12.000000000000
         C            2.652149891478    -0.394349897421    -0.283494894156    12.000000000000
         C            0.574288891478     0.680945102579    -0.412940894156    12.000000000000
         C            2.802428891478    -1.662074897421     0.524445105844    12.000000000000
         C           -1.127006108522    -1.117877897421    -0.306300894156    12.000000000000
         C           -1.744357108522     1.201833102579     0.084020105844    12.000000000000
         C           -2.416976108522    -1.506619897421    -0.102566894156    12.000000000000
         C           -3.361661108522    -0.475218897421     0.170486105844    12.000000000000
         H            3.334711891478     0.754726102579     1.452828105844     1.007825032230
         H            0.870206091478     0.457329002579     1.693009105844     1.007825032230
         H            0.985659891478     2.132008102579     1.160122105844     1.007825032230
         H            0.527784891478     1.511195102579    -1.122937894156     1.007825032230
         H            3.417822891478    -0.366341897421    -1.064650894156     1.007825032230
         H            1.971079891478    -1.735242897421     1.245198105844     1.007825032230
         H            3.746419891478    -1.611573897421     1.090264105844     1.007825032230
         H            3.104181891478     2.744265102579     0.179958105844     1.007825032230
         H           -0.310409108522    -1.791259897421    -0.541722894156     1.007825032230
         H            2.910360891478    -3.567130897421     0.121187105844     1.007825032230
         H           -2.703137108522    -2.551142897421    -0.151274894156     1.007825032230
         H           -5.028380108522    -1.639800897421    -0.054743894156     1.007825032230
         H           -5.299140108522    -0.015856897421     0.388076105844     1.007825032230

  Basis Set: AUG-CC-PVTZ
    Blend: AUG-CC-PVTZ
  Basis Set: (AUG-CC-PVTZ AUX)
    Blend: AUG-CC-PVTZ-JKFIT
	 Reference Energy          =    -811.4767876952090546 [Eh]
	 Singles Energy            =      -0.0000000000000000 [Eh]
	 Same-Spin Energy          =      -0.8297496010737713 [Eh]
	 Opposite-Spin Energy      =      -2.5246443840619808 [Eh]
	 Correlation Energy        =      -3.3543939851357520 [Eh]
	 Total Energy              =    -814.8311816803447982 [Eh]

	 ================> DF-SCS-MP2 Energies <==================
	-----------------------------------------------------------
	 SCS Same-Spin Scale       =       0.3333333333333333 [-]
	 SCS Opposite-Spin Scale   =       1.2000000000000000 [-]
	 SCS Same-Spin Energy      =      -0.2765832003579237 [Eh]
	 SCS Opposite-Spin Energy  =      -3.0295732608743768 [Eh]
	 SCS Correlation Energy    =      -3.3061564612323004 [Eh]
	 SCS Total Energy          =    -814.7829441564413173 [Eh]
	-----------------------------------------------------------

  Dipole Moment: [D]
     X:     1.1270      Y:    -4.5281      Z:     2.3852     Total:     5.2405

*** Psi4 exiting successfully. Buy a developer a beer!
