                               Psi4 1.4a3.dev225

  ==> Input File <==

--------------------------------------------------------------------------
#psi4
#
memory 32 gb

molecule  {
0 1
  O       -1.4695130     0.3030610    -1.0874480
  O       -3.6436400    -1.4204040    -0.2669360
  O       -1.6911330     2.8536240     0.0000030
  O        1.1857770    -2.4961310     0.0874550
  N        0.6842480    -0.3150290    -0.3399290
  N        2.9133760    -0.9647370     0.2108410
  N        4.5636770     0.6178870     0.3785230
  C       -2.7686820    -0.6858470     0.5863090
  C       -1.3787780    -1.3118450     0.6568060
  C       -2.4925280     0.6283540    -0.1295840
  C       -0.6939390    -0.7805590    -0.6115670
  C       -2.0414120     1.7324860     0.8087370
  C        1.0545030     0.9838330    -0.4888120
  C        1.6080830    -1.3384950     0.0010630
  C        2.3487550     1.3478080    -0.2622830
  C        3.2578570     0.3046130     0.0876290
  H       -3.2188600    -0.5381750     1.5798200
  H       -0.8341690    -0.9801840     1.5464130
  H       -1.3950130    -2.4033150     0.6754970
  H       -0.6263030    -1.5384450    -1.3968420
  H       -3.3591510     0.9641520    -0.7058050
  H       -1.1849610     1.3939850     1.4098140
  H       -2.8667900     1.9743150     1.4948250
  H       -3.6905400    -2.3294490     0.0774600
  H        0.2668220     1.6750250    -0.7707300
  H       -1.4321050     3.5760960     0.5972330
  H        2.6563336     2.3619143    -0.3578467
  H        4.9550500     1.4416620    -0.0591730
  H        5.1797170    -0.1867780     0.4106900
units angstrom
no_reorient  #important for SAPT in psi4, default
symmetry c1  #important for SAPT in psi4, default
}

set PROPERTIES_ORIGIN ["COM"]
properties('MP2/aug-cc-pvtz', properties = ['dipole'])
--------------------------------------------------------------------------

    Molecular point group: c1
  Charge       = 0
  Multiplicity = 1
  Basis Set: AUG-CC-PVTZ
    Blend: AUG-CC-PVTZ
  Basis Set: (AUG-CC-PVTZ AUX)
    Blend: AUG-CC-PVTZ-JKFIT

    Orbital Energies [Eh]
    ---------------------

    Doubly Occupied:

       1A    -20.583574     2A    -20.574376     3A    -20.572622
       4A    -20.501818     5A    -15.618970     6A    -15.588914
       7A    -15.539669     8A    -11.368675     9A    -11.345602
      10A    -11.333085    11A    -11.314416    12A    -11.300235
      13A    -11.299481    14A    -11.294733    15A    -11.237204
      16A    -11.233004    17A     -1.418816    18A     -1.381644
      19A     -1.377513    20A     -1.366064    21A     -1.290187
      22A     -1.258545    23A     -1.168407    24A     -1.076325
      25A     -1.068193    26A     -1.025057    27A     -0.930135
      28A     -0.895253    29A     -0.867973    30A     -0.830494
      31A     -0.805146    32A     -0.753639    33A     -0.738508
      34A     -0.725509    35A     -0.707278    36A     -0.701981
      37A     -0.690406    38A     -0.673745    39A     -0.651852
      40A     -0.643018    41A     -0.622620    42A     -0.619001
      43A     -0.606744    44A     -0.595890    45A     -0.587674
      46A     -0.572981    47A     -0.565800    48A     -0.551234
      49A     -0.526708    50A     -0.520654    51A     -0.510814
      52A     -0.485064    53A     -0.480686    54A     -0.472383
      55A     -0.459454    56A     -0.448211    57A     -0.440746
      58A     -0.413561    59A     -0.382349    60A     -0.333838

  @DF-RHF Final Energy:  -811.47937221627808

   => Energetics <=

    Nuclear Repulsion Energy =           1185.2621235691776747
    One-Electron Energy =               -3465.5860346607450992
    Two-Electron Energy =                1468.8445388752893450
    Total Energy =                       -811.4793722162780796
  Basis Set: (AUG-CC-PVTZ AUX)
    Blend: AUG-CC-PVTZ-RI
    Molecular point group: c1

    Geometry (in Angstrom), charge = 0, multiplicity = 1:

       Center              X                  Y                   Z               Mass
    ------------   -----------------  -----------------  -----------------  -----------------
         O           -1.493946595654     0.326861004676    -1.067828686084    15.994914619570
         O           -3.668073595654    -1.396603995324    -0.247316686084    15.994914619570
         O           -1.715566595654     2.877424004676     0.019622313916    15.994914619570
         O            1.161343404346    -2.472330995324     0.107074313916    15.994914619570
         N            0.659814404346    -0.291228995324    -0.320309686084    14.003074004430
         N            2.888942404346    -0.940936995324     0.230460313916    14.003074004430
         N            4.539243404346     0.641687004676     0.398142313916    14.003074004430
         C           -2.793115595654    -0.662046995324     0.605928313916    12.000000000000
         C           -1.403211595654    -1.288044995324     0.676425313916    12.000000000000
         C           -2.516961595654     0.652154004676    -0.109964686084    12.000000000000
         C           -0.718372595654    -0.756758995324    -0.591947686084    12.000000000000
         C           -2.065845595654     1.756286004676     0.828356313916    12.000000000000
         C            1.030069404346     1.007633004676    -0.469192686084    12.000000000000
         C            1.583649404346    -1.314694995324     0.020682313916    12.000000000000
         C            2.324321404346     1.371608004676    -0.242663686084    12.000000000000
         C            3.233423404346     0.328413004676     0.107248313916    12.000000000000
         H           -3.243293595654    -0.514374995324     1.599439313916     1.007825032230
         H           -0.858602595654    -0.956383995324     1.566032313916     1.007825032230
         H           -1.419446595654    -2.379514995324     0.695116313916     1.007825032230
         H           -0.650736595654    -1.514644995324    -1.377222686084     1.007825032230
         H           -3.383584595654     0.987952004676    -0.686185686084     1.007825032230
         H           -1.209394595654     1.417785004676     1.429433313916     1.007825032230
         H           -2.891223595654     1.998115004676     1.514444313916     1.007825032230
         H           -3.714973595654    -2.305648995324     0.097079313916     1.007825032230
         H            0.242388404346     1.698825004676    -0.751110686084     1.007825032230
         H           -1.456538595654     3.599896004676     0.616852313916     1.007825032230
         H            2.631900004346     2.385714304676    -0.338227386084     1.007825032230
         H            4.930616404346     1.465462004676    -0.039553686084     1.007825032230
         H            5.155283404346    -0.162977995324     0.430309313916     1.007825032230

  Basis Set: AUG-CC-PVTZ
    Blend: AUG-CC-PVTZ
  Basis Set: (AUG-CC-PVTZ AUX)
    Blend: AUG-CC-PVTZ-JKFIT
	 Reference Energy          =    -811.4793722162780796 [Eh]
	 Singles Energy            =      -0.0000000000000000 [Eh]
	 Same-Spin Energy          =      -0.8307576444742731 [Eh]
	 Opposite-Spin Energy      =      -2.5268673968615087 [Eh]
	 Correlation Energy        =      -3.3576250413357820 [Eh]
	 Total Energy              =    -814.8369972576139162 [Eh]

	 ================> DF-SCS-MP2 Energies <==================
	-----------------------------------------------------------
	 SCS Same-Spin Scale       =       0.3333333333333333 [-]
	 SCS Opposite-Spin Scale   =       1.2000000000000000 [-]
	 SCS Same-Spin Energy      =      -0.2769192148247577 [Eh]
	 SCS Opposite-Spin Energy  =      -3.0322408762338102 [Eh]
	 SCS Correlation Energy    =      -3.3091600910585681 [Eh]
	 SCS Total Energy          =    -814.7885323073365953 [Eh]
	-----------------------------------------------------------

  Dipole Moment: [D]
     X:    -0.3283      Y:     4.6022      Z:     2.4070     Total:     5.2040

*** Psi4 exiting successfully. Buy a developer a beer!
