                               Psi4 1.3.2 release

  ==> Input File <==

--------------------------------------------------------------------------
#psi4
#
memory 32 gb

molecule  {
0 1
  O        1.3771807    -0.3780312    -0.9122842
  O        3.2020570     1.9012130    -0.2995130
  O        2.7994070    -2.7489470    -0.4002010
  O       -1.3621860     2.3740050     0.1547830
  N       -0.7982440     0.1994180    -0.2292560
  N       -3.0541720     0.8052390     0.2400120
  N       -4.6734100    -0.8124350     0.4126370
  C        2.7015950     0.8755540     0.5594740
  C        1.2554384     1.0886136     0.8841806
  C        2.6518190    -0.3922910    -0.2854700
  C        0.5739580     0.6830040    -0.4149160
  C        2.8020980    -1.6600160     0.5224700
  C       -1.1273370    -1.1158190    -0.3082760
  C       -1.7446880     1.2038920     0.0820450
  C       -2.4173070    -1.5045610    -0.1045420
  C       -3.3619920    -0.4731600     0.1685110
  H        3.3343810     0.7567850     1.4508530
  H        0.9047070     0.4438290     1.6934890
  H        0.9853290     2.1340670     1.1581470
  H        0.5274540     1.5132540    -1.1249130
  H        3.4174920    -0.3642830    -1.0666260
  H        1.9707490    -1.7331840     1.2432230
  H        3.7460890    -1.6095150     1.0882890
  H        3.1038510     2.7463240     0.1779830
  H       -0.3107400    -1.7892010    -0.5436980
  H        2.9100300    -3.5650720     0.1192120
  H       -2.7034680    -2.5490840    -0.1532500
  H       -5.0287110    -1.6377420    -0.0567190
  H       -5.2994710    -0.0137980     0.3861010
units angstrom
no_reorient  #important for SAPT in psi4, default
symmetry c1  #important for SAPT in psi4, default
}

set PROPERTIES_ORIGIN ["COM"]
properties('MP2/aug-cc-pvtz', properties = ['dipole'])
--------------------------------------------------------------------------

    Molecular point group: c1
  Charge       = 0
  Multiplicity = 1
  Basis Set: AUG-CC-PVTZ
    Blend: AUG-CC-PVTZ
  Basis Set: (AUG-CC-PVTZ AUX)
    Blend: AUG-CC-PVTZ-JKFIT

    Orbital Energies [Eh]
    ---------------------

    Doubly Occupied:

       1A    -20.577019     2A    -20.573999     3A    -20.571656
       4A    -20.503696     5A    -15.623019     6A    -15.588933
       7A    -15.541502     8A    -11.370753     9A    -11.345751
      10A    -11.331888    11A    -11.319180    12A    -11.298504
      13A    -11.295288    14A    -11.290603    15A    -11.237808
      16A    -11.236621    17A     -1.421551    18A     -1.383301
      19A     -1.373049    20A     -1.366290    21A     -1.293110
      22A     -1.262692    23A     -1.169882    24A     -1.080209
      25A     -1.069554    26A     -1.028969    27A     -0.927698
      28A     -0.898428    29A     -0.868722    30A     -0.831369
      31A     -0.806546    32A     -0.754800    33A     -0.740191
      34A     -0.721306    35A     -0.707285    36A     -0.692574
      37A     -0.689147    38A     -0.677193    39A     -0.658255
      40A     -0.638369    41A     -0.628337    42A     -0.619269
      43A     -0.605236    44A     -0.596411    45A     -0.589233
      46A     -0.573854    47A     -0.569979    48A     -0.543006
      49A     -0.532750    50A     -0.519796    51A     -0.510333
      52A     -0.483753    53A     -0.482614    54A     -0.468388
      55A     -0.461648    56A     -0.444808    57A     -0.437337
      58A     -0.417100    59A     -0.384468    60A     -0.335689

  @DF-RHF Final Energy:  -811.47875080737458

   => Energetics <=

    Nuclear Repulsion Energy =           1170.7534519095338510
    One-Electron Energy =               -3436.5229545274555676
    Two-Electron Energy =                1454.2907518105471354
    Total Energy =                       -811.4787508073745812
  Basis Set: (AUG-CC-PVTZ AUX)
    Blend: AUG-CC-PVTZ-RI
    Molecular point group: c1

    Geometry (in Angstrom), charge = 0, multiplicity = 1:

       Center              X                  Y                   Z               Mass
    ------------   -----------------  -----------------  -----------------  -----------------
         O            1.375133874798    -0.377187159564    -0.913467836626    15.994914619570
         O            3.200010174798     1.902057040436    -0.300696636626    15.994914619570
         O            2.797360174798    -2.748102959564    -0.401384636626    15.994914619570
         O           -1.364232825202     2.374849040436     0.153599363374    15.994914619570
         N           -0.800290825202     0.200262040436    -0.230439636626    14.003074004430
         N           -3.056218825202     0.806083040436     0.238828363374    14.003074004430
         N           -4.675456825202    -0.811590959564     0.411453363374    14.003074004430
         C            2.699548174798     0.876398040436     0.558290363374    12.000000000000
         C            1.253391574798     1.089457640436     0.882996963374    12.000000000000
         C            2.649772174798    -0.391446959564    -0.286653636626    12.000000000000
         C            0.571911174798     0.683848040436    -0.416099636626    12.000000000000
         C            2.800051174798    -1.659171959564     0.521286363374    12.000000000000
         C           -1.129383825202    -1.114974959564    -0.309459636626    12.000000000000
         C           -1.746734825202     1.204736040436     0.080861363374    12.000000000000
         C           -2.419353825202    -1.503716959564    -0.105725636626    12.000000000000
         C           -3.364038825202    -0.472315959564     0.167327363374    12.000000000000
         H            3.332334174798     0.757629040436     1.449669363374     1.007825032230
         H            0.902660174798     0.444673040436     1.692305363374     1.007825032230
         H            0.983282174798     2.134911040436     1.156963363374     1.007825032230
         H            0.525407174798     1.514098040436    -1.126096636626     1.007825032230
         H            3.415445174798    -0.363438959564    -1.067809636626     1.007825032230
         H            1.968702174798    -1.732339959564     1.242039363374     1.007825032230
         H            3.744042174798    -1.608670959564     1.087105363374     1.007825032230
         H            3.101804174798     2.747168040436     0.176799363374     1.007825032230
         H           -0.312786825202    -1.788356959564    -0.544881636626     1.007825032230
         H            2.907983174798    -3.564227959564     0.118028363374     1.007825032230
         H           -2.705514825202    -2.548239959564    -0.154433636626     1.007825032230
         H           -5.030757825202    -1.636897959564    -0.057902636626     1.007825032230
         H           -5.301517825202    -0.012953959564     0.384917363374     1.007825032230

  Basis Set: AUG-CC-PVTZ
    Blend: AUG-CC-PVTZ
  Basis Set: (AUG-CC-PVTZ AUX)
    Blend: AUG-CC-PVTZ-JKFIT
	 Reference Energy          =    -811.4787508073745812 [Eh]
	 Singles Energy            =      -0.0000000000000000 [Eh]
	 Same-Spin Energy          =      -0.8297344212338165 [Eh]
	 Opposite-Spin Energy      =      -2.5247187966522358 [Eh]
	 Correlation Energy        =      -3.3544532178860522 [Eh]
	 Total Energy              =    -814.8332040252606703 [Eh]

	 ================> DF-SCS-MP2 Energies <==================
	-----------------------------------------------------------
	 SCS Same-Spin Scale       =       0.3333333333333333 [-]
	 SCS Opposite-Spin Scale   =       1.2000000000000000 [-]
	 SCS Same-Spin Energy      =      -0.2765781404112722 [Eh]
	 SCS Opposite-Spin Energy  =      -3.0296625559826826 [Eh]
	 SCS Correlation Energy    =      -3.3062406963939548 [Eh]
	 SCS Total Energy          =    -814.7849915037685378 [Eh]
	-----------------------------------------------------------

  Dipole Moment: [D]
     X:     0.9464      Y:    -4.6796      Z:     2.4438     Total:     5.3634

*** Psi4 exiting successfully. Buy a developer a beer!
