                               Psi4 1.3.2 release

  ==> Input File <==

--------------------------------------------------------------------------
#psi4
#
memory 32 gb

molecule  {
0 1
  O        1.3620710    -0.3800110    -0.9318440
  O        3.2020570     1.9012130    -0.2995130
  O        2.7994070    -2.7489470    -0.4002010
  O       -1.3521018     2.3707788     0.1528561
  N       -0.7982440     0.1994180    -0.2292560
  N       -3.0508582     0.7938215     0.2382102
  N       -4.6734100    -0.8124350     0.4126370
  C        2.7015950     0.8755540     0.5594740
  C        1.2368440     1.1072260     0.8878520
  C        2.6518190    -0.3922910    -0.2854700
  C        0.5739580     0.6830040    -0.4149160
  C        2.8020980    -1.6600160     0.5224700
  C       -1.1273370    -1.1158190    -0.3082760
  C       -1.7446880     1.2038920     0.0820450
  C       -2.4173070    -1.5045610    -0.1045420
  C       -3.3619920    -0.4731600     0.1685110
  H        3.3343810     0.7567850     1.4508530
  H        0.9047070     0.4438290     1.6934890
  H        0.9853290     2.1340670     1.1581470
  H        0.5274540     1.5132540    -1.1249130
  H        3.4174920    -0.3642830    -1.0666260
  H        1.9707490    -1.7331840     1.2432230
  H        3.7460890    -1.6095150     1.0882890
  H        3.1038510     2.7463240     0.1779830
  H       -0.3107400    -1.7892010    -0.5436980
  H        2.9100300    -3.5650720     0.1192120
  H       -2.7034680    -2.5490840    -0.1532500
  H       -5.0287110    -1.6377420    -0.0567190
  H       -5.2994710    -0.0137980     0.3861010
units angstrom
no_reorient  #important for SAPT in psi4, default
symmetry c1  #important for SAPT in psi4, default
}

set PROPERTIES_ORIGIN ["COM"]
properties('MP2/aug-cc-pvtz', properties = ['dipole'])
--------------------------------------------------------------------------

    Molecular point group: c1
  Charge       = 0
  Multiplicity = 1
  Basis Set: AUG-CC-PVTZ
    Blend: AUG-CC-PVTZ
  Basis Set: (AUG-CC-PVTZ AUX)
    Blend: AUG-CC-PVTZ-JKFIT

    Orbital Energies [Eh]
    ---------------------

    Doubly Occupied:

       1A    -20.577562     2A    -20.574200     3A    -20.572547
       4A    -20.504405     5A    -15.621017     6A    -15.587693
       7A    -15.540209     8A    -11.371158     9A    -11.343792
      10A    -11.330334    11A    -11.317422    12A    -11.300663
      13A    -11.296666    14A    -11.292850    15A    -11.236571
      16A    -11.236314    17A     -1.416493    18A     -1.383220
      19A     -1.373398    20A     -1.365666    21A     -1.293759
      22A     -1.261387    23A     -1.170771    24A     -1.078634
      25A     -1.068553    26A     -1.027773    27A     -0.926786
      28A     -0.896953    29A     -0.870302    30A     -0.830821
      31A     -0.806121    32A     -0.754391    33A     -0.738424
      34A     -0.720801    35A     -0.707058    36A     -0.692632
      37A     -0.689251    38A     -0.675926    39A     -0.656560
      40A     -0.636917    41A     -0.627949    42A     -0.618654
      43A     -0.604948    44A     -0.595042    45A     -0.589245
      46A     -0.572760    47A     -0.568648    48A     -0.544759
      49A     -0.532815    50A     -0.523546    51A     -0.510337
      52A     -0.485684    53A     -0.482051    54A     -0.468309
      55A     -0.460994    56A     -0.445261    57A     -0.437668
      58A     -0.415609    59A     -0.385048    60A     -0.334763

  @DF-RHF Final Energy:  -811.47962883036507

   => Energetics <=

    Nuclear Repulsion Energy =           1170.3867857840550641
    One-Electron Energy =               -3435.8326420568378126
    Two-Electron Energy =                1453.9662274424176758
    Total Energy =                       -811.4796288303650726
  Basis Set: (AUG-CC-PVTZ AUX)
    Blend: AUG-CC-PVTZ-RI
    Molecular point group: c1

    Geometry (in Angstrom), charge = 0, multiplicity = 1:

       Center              X                  Y                   Z               Mass
    ------------   -----------------  -----------------  -----------------  -----------------
         O            1.361156374238    -0.379079766072    -0.931597142091    15.994914619570
         O            3.201142374238     1.902144233928    -0.299266142091    15.994914619570
         O            2.798492374238    -2.748015766072    -0.399954142091    15.994914619570
         O           -1.353016425762     2.371710033928     0.153102957909    15.994914619570
         N           -0.799158625762     0.200349233928    -0.229009142091    14.003074004430
         N           -3.051772825762     0.794752733928     0.238457057909    14.003074004430
         N           -4.674324625762    -0.811503766072     0.412883857909    14.003074004430
         C            2.700680374238     0.876485233928     0.559720857909    12.000000000000
         C            1.235929374238     1.108157233928     0.888098857909    12.000000000000
         C            2.650904374238    -0.391359766072    -0.285223142091    12.000000000000
         C            0.573043374238     0.683935233928    -0.414669142091    12.000000000000
         C            2.801183374238    -1.659084766072     0.522716857909    12.000000000000
         C           -1.128251625762    -1.114887766072    -0.308029142091    12.000000000000
         C           -1.745602625762     1.204823233928     0.082291857909    12.000000000000
         C           -2.418221625762    -1.503629766072    -0.104295142091    12.000000000000
         C           -3.362906625762    -0.472228766072     0.168757857909    12.000000000000
         H            3.333466374238     0.757716233928     1.451099857909     1.007825032230
         H            0.903792374238     0.444760233928     1.693735857909     1.007825032230
         H            0.984414374238     2.134998233928     1.158393857909     1.007825032230
         H            0.526539374238     1.514185233928    -1.124666142091     1.007825032230
         H            3.416577374238    -0.363351766072    -1.066379142091     1.007825032230
         H            1.969834374238    -1.732252766072     1.243469857909     1.007825032230
         H            3.745174374238    -1.608583766072     1.088535857909     1.007825032230
         H            3.102936374238     2.747255233928     0.178229857909     1.007825032230
         H           -0.311654625762    -1.788269766072    -0.543451142091     1.007825032230
         H            2.909115374238    -3.564140766072     0.119458857909     1.007825032230
         H           -2.704382625762    -2.548152766072    -0.153003142091     1.007825032230
         H           -5.029625625762    -1.636810766072    -0.056472142091     1.007825032230
         H           -5.300385625762    -0.012866766072     0.386347857909     1.007825032230

  Basis Set: AUG-CC-PVTZ
    Blend: AUG-CC-PVTZ
  Basis Set: (AUG-CC-PVTZ AUX)
    Blend: AUG-CC-PVTZ-JKFIT
	 Reference Energy          =    -811.4796288303650726 [Eh]
	 Singles Energy            =      -0.0000000000000000 [Eh]
	 Same-Spin Energy          =      -0.8296321630603333 [Eh]
	 Opposite-Spin Energy      =      -2.5249591344491384 [Eh]
	 Correlation Energy        =      -3.3545912975094718 [Eh]
	 Total Energy              =    -814.8342201278745733 [Eh]

	 ================> DF-SCS-MP2 Energies <==================
	-----------------------------------------------------------
	 SCS Same-Spin Scale       =       0.3333333333333333 [-]
	 SCS Opposite-Spin Scale   =       1.2000000000000000 [-]
	 SCS Same-Spin Energy      =      -0.2765440543534444 [Eh]
	 SCS Opposite-Spin Energy  =      -3.0299509613389661 [Eh]
	 SCS Correlation Energy    =      -3.3064950156924104 [Eh]
	 SCS Total Energy          =    -814.7861238460575350 [Eh]
	-----------------------------------------------------------

  Dipole Moment: [D]
     X:     1.0557      Y:    -4.6241      Z:     2.4951     Total:     5.3593

*** Psi4 exiting successfully. Buy a developer a beer!
