                               Psi4 1.3.2 release

  ==> Input File <==

--------------------------------------------------------------------------
#psi4
#
memory 32 gb

molecule  {
0 1
  O        1.3620710    -0.3800110    -0.9318440
  O        3.2020570     1.9012130    -0.2995130
  O        2.7994070    -2.7489470    -0.4002010
  O       -1.3621860     2.3740050     0.1547830
  N       -0.7982440     0.1994180    -0.2292560
  N       -3.0541720     0.8052390     0.2400120
  N       -4.6734100    -0.8124350     0.4126370
  C        2.7015950     0.8755540     0.5594740
  C        1.2368440     1.1072260     0.8878520
  C        2.6518190    -0.3922910    -0.2854700
  C        0.5739580     0.6830040    -0.4149160
  C        2.8020980    -1.6600160     0.5224700
  C       -1.1407143    -1.0707071    -0.3013476
  C       -1.7446880     1.2038920     0.0820450
  C       -2.4173070    -1.5045610    -0.1045420
  C       -3.3619920    -0.4731600     0.1685110
  H        3.3343810     0.7567850     1.4508530
  H        0.9047070     0.4438290     1.6934890
  H        0.9853290     2.1340670     1.1581470
  H        0.5274540     1.5132540    -1.1249130
  H        3.4174920    -0.3642830    -1.0666260
  H        1.9707490    -1.7331840     1.2432230
  H        3.7460890    -1.6095150     1.0882890
  H        3.1038510     2.7463240     0.1779830
  H       -0.3107400    -1.7892010    -0.5436980
  H        2.9100300    -3.5650720     0.1192120
  H       -2.7391208    -2.5389888    -0.1455770
  H       -5.0287110    -1.6377420    -0.0567190
  H       -5.2994710    -0.0137980     0.3861010
units angstrom
no_reorient  #important for SAPT in psi4, default
symmetry c1  #important for SAPT in psi4, default
}

set PROPERTIES_ORIGIN ["COM"]
properties('MP2/aug-cc-pvtz', properties = ['dipole'])
--------------------------------------------------------------------------

    Molecular point group: c1
  Charge       = 0
  Multiplicity = 1
  Basis Set: AUG-CC-PVTZ
    Blend: AUG-CC-PVTZ
  Basis Set: (AUG-CC-PVTZ AUX)
    Blend: AUG-CC-PVTZ-JKFIT

    Orbital Energies [Eh]
    ---------------------

    Doubly Occupied:

       1A    -20.577955     2A    -20.575500     3A    -20.574261
       4A    -20.504120     5A    -15.625159     6A    -15.586323
       7A    -15.539027     8A    -11.370497     9A    -11.341627
      10A    -11.333906    11A    -11.317341    12A    -11.302184
      13A    -11.297342    14A    -11.294071    15A    -11.238857
      16A    -11.232984    17A     -1.419220    18A     -1.385443
      19A     -1.374167    20A     -1.366664    21A     -1.296854
      22A     -1.266946    23A     -1.168726    24A     -1.079925
      25A     -1.068905    26A     -1.029280    27A     -0.929269
      28A     -0.897909    29A     -0.870235    30A     -0.832627
      31A     -0.806954    32A     -0.756026    33A     -0.741644
      34A     -0.722095    35A     -0.704067    36A     -0.693351
      37A     -0.690359    38A     -0.674334    39A     -0.657063
      40A     -0.638093    41A     -0.631095    42A     -0.618008
      43A     -0.603988    44A     -0.593664    45A     -0.583225
      46A     -0.575521    47A     -0.569789    48A     -0.545475
      49A     -0.532919    50A     -0.525816    51A     -0.511152
      52A     -0.487694    53A     -0.485628    54A     -0.469189
      55A     -0.462686    56A     -0.444935    57A     -0.438109
      58A     -0.415385    59A     -0.383873    60A     -0.332687

  @DF-RHF Final Energy:  -811.47719547299096

   => Energetics <=

    Nuclear Repulsion Energy =           1170.8826649002553495
    One-Electron Energy =               -3436.7354275307720854
    Two-Electron Energy =                1454.3755671575256656
    Total Energy =                       -811.4771954729910703
  Basis Set: (AUG-CC-PVTZ AUX)
    Blend: AUG-CC-PVTZ-RI
    Molecular point group: c1

    Geometry (in Angstrom), charge = 0, multiplicity = 1:

       Center              X                  Y                   Z               Mass
    ------------   -----------------  -----------------  -----------------  -----------------
         O            1.362936098623    -0.382439657967    -0.932244131343    15.994914619570
         O            3.202922098623     1.898784342033    -0.299913131343    15.994914619570
         O            2.800272098623    -2.751375657967    -0.400601131343    15.994914619570
         O           -1.361320901377     2.371576342033     0.154382868657    15.994914619570
         N           -0.797378901377     0.196989342033    -0.229656131343    14.003074004430
         N           -3.053306901377     0.802810342033     0.239611868657    14.003074004430
         N           -4.672544901377    -0.814863657967     0.412236868657    14.003074004430
         C            2.702460098623     0.873125342033     0.559073868657    12.000000000000
         C            1.237709098623     1.104797342033     0.887451868657    12.000000000000
         C            2.652684098623    -0.394719657967    -0.285870131343    12.000000000000
         C            0.574823098623     0.680575342033    -0.415316131343    12.000000000000
         C            2.802963098623    -1.662444657967     0.522069868657    12.000000000000
         C           -1.139849201377    -1.073135757967    -0.301747731343    12.000000000000
         C           -1.743822901377     1.201463342033     0.081644868657    12.000000000000
         C           -2.416441901377    -1.506989657967    -0.104942131343    12.000000000000
         C           -3.361126901377    -0.475588657967     0.168110868657    12.000000000000
         H            3.335246098623     0.754356342033     1.450452868657     1.007825032230
         H            0.905572098623     0.441400342033     1.693088868657     1.007825032230
         H            0.986194098623     2.131638342033     1.157746868657     1.007825032230
         H            0.528319098623     1.510825342033    -1.125313131343     1.007825032230
         H            3.418357098623    -0.366711657967    -1.067026131343     1.007825032230
         H            1.971614098623    -1.735612657967     1.242822868657     1.007825032230
         H            3.746954098623    -1.611943657967     1.087888868657     1.007825032230
         H            3.104716098623     2.743895342033     0.177582868657     1.007825032230
         H           -0.309874901377    -1.791629657967    -0.544098131343     1.007825032230
         H            2.910895098623    -3.567500657967     0.118811868657     1.007825032230
         H           -2.738255701377    -2.541417457967    -0.145977131343     1.007825032230
         H           -5.027845901377    -1.640170657967    -0.057119131343     1.007825032230
         H           -5.298605901377    -0.016226657967     0.385700868657     1.007825032230

  Basis Set: AUG-CC-PVTZ
    Blend: AUG-CC-PVTZ
  Basis Set: (AUG-CC-PVTZ AUX)
    Blend: AUG-CC-PVTZ-JKFIT
	 Reference Energy          =    -811.4771954729909567 [Eh]
	 Singles Energy            =      -0.0000000000000000 [Eh]
	 Same-Spin Energy          =      -0.8297870404353986 [Eh]
	 Opposite-Spin Energy      =      -2.5246435098945055 [Eh]
	 Correlation Energy        =      -3.3544305503299041 [Eh]
	 Total Energy              =    -814.8316260233208368 [Eh]

	 ================> DF-SCS-MP2 Energies <==================
	-----------------------------------------------------------
	 SCS Same-Spin Scale       =       0.3333333333333333 [-]
	 SCS Opposite-Spin Scale   =       1.2000000000000000 [-]
	 SCS Same-Spin Energy      =      -0.2765956801451329 [Eh]
	 SCS Opposite-Spin Energy  =      -3.0295722118734063 [Eh]
	 SCS Correlation Energy    =      -3.3061678920185393 [Eh]
	 SCS Total Energy          =    -814.7833633650094498 [Eh]
	-----------------------------------------------------------

  Dipole Moment: [D]
     X:     1.2313      Y:    -4.5750      Z:     2.4870     Total:     5.3509

*** Psi4 exiting successfully. Buy a developer a beer!
