                               Psi4 1.3.2 release

  ==> Input File <==

--------------------------------------------------------------------------
#psi4
#
memory 32 gb

molecule  {
0 1
  O        1.3620710    -0.3800110    -0.9318440
  O        3.2003261     1.9174971    -0.2807160
  O        2.7994070    -2.7489470    -0.4002010
  O       -1.3621860     2.3740050     0.1547830
  N       -0.7982440     0.1994180    -0.2292560
  N       -3.0541720     0.8052390     0.2400120
  N       -4.6734100    -0.8124350     0.4126370
  C        2.7015950     0.8755540     0.5594740
  C        1.2368440     1.1072260     0.8878520
  C        2.6423792    -0.4056326    -0.2644758
  C        0.5739580     0.6830040    -0.4149160
  C        2.8020980    -1.6600160     0.5224700
  C       -1.1273370    -1.1158190    -0.3082760
  C       -1.7446880     1.2038920     0.0820450
  C       -2.4173070    -1.5045610    -0.1045420
  C       -3.3619920    -0.4731600     0.1685110
  H        3.3343810     0.7567850     1.4508530
  H        0.9047070     0.4438290     1.6934890
  H        0.9853290     2.1340670     1.1581470
  H        0.5274540     1.5132540    -1.1249130
  H        3.4174920    -0.3642830    -1.0666260
  H        1.9707490    -1.7331840     1.2432230
  H        3.7460890    -1.6095150     1.0882890
  H        3.1038510     2.7463240     0.1779830
  H       -0.3107400    -1.7892010    -0.5436980
  H        2.9100300    -3.5650720     0.1192120
  H       -2.7034680    -2.5490840    -0.1532500
  H       -5.0287110    -1.6377420    -0.0567190
  H       -5.2994710    -0.0137980     0.3861010
units angstrom
no_reorient  #important for SAPT in psi4, default
symmetry c1  #important for SAPT in psi4, default
}

set PROPERTIES_ORIGIN ["COM"]
properties('MP2/aug-cc-pvtz', properties = ['dipole'])
--------------------------------------------------------------------------

    Molecular point group: c1
  Charge       = 0
  Multiplicity = 1
  Basis Set: AUG-CC-PVTZ
    Blend: AUG-CC-PVTZ
  Basis Set: (AUG-CC-PVTZ AUX)
    Blend: AUG-CC-PVTZ-JKFIT

    Orbital Energies [Eh]
    ---------------------

    Doubly Occupied:

       1A    -20.578786     2A    -20.573243     3A    -20.571684
       4A    -20.502998     5A    -15.621632     6A    -15.588348
       7A    -15.540773     8A    -11.369830     9A    -11.345022
      10A    -11.330664    11A    -11.318303    12A    -11.301733
      13A    -11.297351    14A    -11.294556    15A    -11.237042
      16A    -11.236572    17A     -1.417049    18A     -1.383045
      19A     -1.376036    20A     -1.367617    21A     -1.292206
      22A     -1.261407    23A     -1.169091    24A     -1.080213
      25A     -1.071081    26A     -1.029687    27A     -0.929229
      28A     -0.897543    29A     -0.869370    30A     -0.831388
      31A     -0.804392    32A     -0.754271    33A     -0.738750
      34A     -0.722894    35A     -0.708654    36A     -0.694233
      37A     -0.690888    38A     -0.676055    39A     -0.657014
      40A     -0.638170    41A     -0.627461    42A     -0.618620
      43A     -0.606414    44A     -0.595895    45A     -0.589524
      46A     -0.572895    47A     -0.566260    48A     -0.545015
      49A     -0.532807    50A     -0.524629    51A     -0.510588
      52A     -0.485082    53A     -0.481166    54A     -0.468959
      55A     -0.461568    56A     -0.444443    57A     -0.439139
      58A     -0.416275    59A     -0.383738    60A     -0.334913

  @DF-RHF Final Energy:  -811.47938710403548

   => Energetics <=

    Nuclear Repulsion Energy =           1170.0804488298811066
    One-Electron Energy =               -3435.1712520592063811
    Two-Electron Energy =                1453.6114161252899066
    Total Energy =                       -811.4793871040355953
  Basis Set: (AUG-CC-PVTZ AUX)
    Blend: AUG-CC-PVTZ-RI
    Molecular point group: c1

    Geometry (in Angstrom), charge = 0, multiplicity = 1:

       Center              X                  Y                   Z               Mass
    ------------   -----------------  -----------------  -----------------  -----------------
         O            1.362691719573    -0.380452990996    -0.934277297650    15.994914619570
         O            3.200946819573     1.917055109004    -0.283149297650    15.994914619570
         O            2.800027719573    -2.749388990996    -0.402634297650    15.994914619570
         O           -1.361565280427     2.373563009004     0.152349702350    15.994914619570
         N           -0.797623280427     0.198976009004    -0.231689297650    14.003074004430
         N           -3.053551280427     0.804797009004     0.237578702350    14.003074004430
         N           -4.672789280427    -0.812876990996     0.410203702350    14.003074004430
         C            2.702215719573     0.875112009004     0.557040702350    12.000000000000
         C            1.237464719573     1.106784009004     0.885418702350    12.000000000000
         C            2.642999919573    -0.406074590996    -0.266909097650    12.000000000000
         C            0.574578719573     0.682562009004    -0.417349297650    12.000000000000
         C            2.802718719573    -1.660457990996     0.520036702350    12.000000000000
         C           -1.126716280427    -1.116260990996    -0.310709297650    12.000000000000
         C           -1.744067280427     1.203450009004     0.079611702350    12.000000000000
         C           -2.416686280427    -1.505002990996    -0.106975297650    12.000000000000
         C           -3.361371280427    -0.473601990996     0.166077702350    12.000000000000
         H            3.335001719573     0.756343009004     1.448419702350     1.007825032230
         H            0.905327719573     0.443387009004     1.691055702350     1.007825032230
         H            0.985949719573     2.133625009004     1.155713702350     1.007825032230
         H            0.528074719573     1.512812009004    -1.127346297650     1.007825032230
         H            3.418112719573    -0.364724990996    -1.069059297650     1.007825032230
         H            1.971369719573    -1.733625990996     1.240789702350     1.007825032230
         H            3.746709719573    -1.609956990996     1.085855702350     1.007825032230
         H            3.104471719573     2.745882009004     0.175549702350     1.007825032230
         H           -0.310119280427    -1.789642990996    -0.546131297650     1.007825032230
         H            2.910650719573    -3.565513990996     0.116778702350     1.007825032230
         H           -2.702847280427    -2.549525990996    -0.155683297650     1.007825032230
         H           -5.028090280427    -1.638183990996    -0.059152297650     1.007825032230
         H           -5.298850280427    -0.014239990996     0.383667702350     1.007825032230

  Basis Set: AUG-CC-PVTZ
    Blend: AUG-CC-PVTZ
  Basis Set: (AUG-CC-PVTZ AUX)
    Blend: AUG-CC-PVTZ-JKFIT
	 Reference Energy          =    -811.4793871040354816 [Eh]
	 Singles Energy            =      -0.0000000000000000 [Eh]
	 Same-Spin Energy          =      -0.8295318255934301 [Eh]
	 Opposite-Spin Energy      =      -2.5245056613052759 [Eh]
	 Correlation Energy        =      -3.3540374868987062 [Eh]
	 Total Energy              =    -814.8334245909342144 [Eh]

	 ================> DF-SCS-MP2 Energies <==================
	-----------------------------------------------------------
	 SCS Same-Spin Scale       =       0.3333333333333333 [-]
	 SCS Opposite-Spin Scale   =       1.2000000000000000 [-]
	 SCS Same-Spin Energy      =      -0.2765106085311433 [Eh]
	 SCS Opposite-Spin Energy  =      -3.0294067935663311 [Eh]
	 SCS Correlation Energy    =      -3.3059174020974744 [Eh]
	 SCS Total Energy          =    -814.7853045061330022 [Eh]
	-----------------------------------------------------------

  Dipole Moment: [D]
     X:     1.0720      Y:    -4.7284      Z:     2.4971     Total:     5.4537

*** Psi4 exiting successfully. Buy a developer a beer!
