                               Psi4 1.3.2 release

  ==> Input File <==

--------------------------------------------------------------------------
#psi4
#
memory 32 gb

molecule  {
0 1
  O        1.3620710    -0.3800110    -0.9318440
  O        3.2020570     1.9012130    -0.2995130
  O        2.7994070    -2.7489470    -0.4002010
  O       -1.3621860     2.3740050     0.1547830
  N       -0.7804815     0.2165670    -0.2296081
  N       -3.0603485     0.8280394     0.2445210
  N       -4.6734100    -0.8124350     0.4126370
  C        2.7015950     0.8755540     0.5594740
  C        1.2368440     1.1072260     0.8878520
  C        2.6518190    -0.3922910    -0.2854700
  C        0.5739580     0.6830040    -0.4149160
  C        2.8020980    -1.6600160     0.5224700
  C       -1.1273370    -1.1158190    -0.3082760
  C       -1.7446880     1.2038920     0.0820450
  C       -2.4173070    -1.5045610    -0.1045420
  C       -3.3619920    -0.4731600     0.1685110
  H        3.3343810     0.7567850     1.4508530
  H        0.9047070     0.4438290     1.6934890
  H        0.9853290     2.1340670     1.1581470
  H        0.5274540     1.5132540    -1.1249130
  H        3.4174920    -0.3642830    -1.0666260
  H        1.9707490    -1.7331840     1.2432230
  H        3.7460890    -1.6095150     1.0882890
  H        3.1038510     2.7463240     0.1779830
  H       -0.3107400    -1.7892010    -0.5436980
  H        2.9100300    -3.5650720     0.1192120
  H       -2.7034680    -2.5490840    -0.1532500
  H       -5.0287110    -1.6377420    -0.0567190
  H       -5.2994710    -0.0137980     0.3861010
units angstrom
no_reorient  #important for SAPT in psi4, default
symmetry c1  #important for SAPT in psi4, default
}

set PROPERTIES_ORIGIN ["COM"]
properties('MP2/aug-cc-pvtz', properties = ['dipole'])
--------------------------------------------------------------------------

    Molecular point group: c1
  Charge       = 0
  Multiplicity = 1
  Basis Set: AUG-CC-PVTZ
    Blend: AUG-CC-PVTZ
  Basis Set: (AUG-CC-PVTZ AUX)
    Blend: AUG-CC-PVTZ-JKFIT

    Orbital Energies [Eh]
    ---------------------

    Doubly Occupied:

       1A    -20.577554     2A    -20.573450     3A    -20.572188
       4A    -20.499168     5A    -15.621478     6A    -15.591490
       7A    -15.544074     8A    -11.367352     9A    -11.349707
      10A    -11.328150    11A    -11.322020    12A    -11.299859
      13A    -11.296519    14A    -11.292473    15A    -11.240920
      16A    -11.235239    17A     -1.416404    18A     -1.380727
      19A     -1.373106    20A     -1.364869    21A     -1.288274
      22A     -1.260092    23A     -1.167733    24A     -1.079365
      25A     -1.069547    26A     -1.027498    27A     -0.927214
      28A     -0.896899    29A     -0.866458    30A     -0.830226
      31A     -0.806266    32A     -0.754749    33A     -0.737674
      34A     -0.720362    35A     -0.707424    36A     -0.692721
      37A     -0.688865    38A     -0.675786    39A     -0.656647
      40A     -0.637485    41A     -0.626187    42A     -0.618161
      43A     -0.603967    44A     -0.595421    45A     -0.586812
      46A     -0.572648    47A     -0.567704    48A     -0.544435
      49A     -0.532337    50A     -0.523107    51A     -0.509693
      52A     -0.484845    53A     -0.479627    54A     -0.468042
      55A     -0.459760    56A     -0.443308    57A     -0.438010
      58A     -0.417710    59A     -0.382003    60A     -0.336537

  @DF-RHF Final Energy:  -811.47694139316809

   => Energetics <=

    Nuclear Repulsion Energy =           1169.4519698876754319
    One-Electron Energy =               -3434.0011291410669401
    Two-Electron Energy =                1453.0722178602236454
    Total Energy =                       -811.4769413931680901
  Basis Set: (AUG-CC-PVTZ AUX)
    Blend: AUG-CC-PVTZ-RI
    Molecular point group: c1

    Geometry (in Angstrom), charge = 0, multiplicity = 1:

       Center              X                  Y                   Z               Mass
    ------------   -----------------  -----------------  -----------------  -----------------
         O            1.361356557284    -0.382474434435    -0.932100292442    15.994914619570
         O            3.201342557284     1.898749565565    -0.299769292442    15.994914619570
         O            2.798692557284    -2.751410434435    -0.400457292442    15.994914619570
         O           -1.362900442716     2.371541565565     0.154526707558    15.994914619570
         N           -0.781195942716     0.214103565565    -0.229864392442    14.003074004430
         N           -3.061062942716     0.825575965565     0.244264707558    14.003074004430
         N           -4.674124442716    -0.814898434435     0.412380707558    14.003074004430
         C            2.700880557284     0.873090565565     0.559217707558    12.000000000000
         C            1.236129557284     1.104762565565     0.887595707558    12.000000000000
         C            2.651104557284    -0.394754434435    -0.285726292442    12.000000000000
         C            0.573243557284     0.680540565565    -0.415172292442    12.000000000000
         C            2.801383557284    -1.662479434435     0.522213707558    12.000000000000
         C           -1.128051442716    -1.118282434435    -0.308532292442    12.000000000000
         C           -1.745402442716     1.201428565565     0.081788707558    12.000000000000
         C           -2.418021442716    -1.507024434435    -0.104798292442    12.000000000000
         C           -3.362706442716    -0.475623434435     0.168254707558    12.000000000000
         H            3.333666557284     0.754321565565     1.450596707558     1.007825032230
         H            0.903992557284     0.441365565565     1.693232707558     1.007825032230
         H            0.984614557284     2.131603565565     1.157890707558     1.007825032230
         H            0.526739557284     1.510790565565    -1.125169292442     1.007825032230
         H            3.416777557284    -0.366746434435    -1.066882292442     1.007825032230
         H            1.970034557284    -1.735647434435     1.242966707558     1.007825032230
         H            3.745374557284    -1.611978434435     1.088032707558     1.007825032230
         H            3.103136557284     2.743860565565     0.177726707558     1.007825032230
         H           -0.311454442716    -1.791664434435    -0.543954292442     1.007825032230
         H            2.909315557284    -3.567535434435     0.118955707558     1.007825032230
         H           -2.704182442716    -2.551547434435    -0.153506292442     1.007825032230
         H           -5.029425442716    -1.640205434435    -0.056975292442     1.007825032230
         H           -5.300185442716    -0.016261434435     0.385844707558     1.007825032230

  Basis Set: AUG-CC-PVTZ
    Blend: AUG-CC-PVTZ
  Basis Set: (AUG-CC-PVTZ AUX)
    Blend: AUG-CC-PVTZ-JKFIT
	 Reference Energy          =    -811.4769413931680901 [Eh]
	 Singles Energy            =      -0.0000000000000000 [Eh]
	 Same-Spin Energy          =      -0.8297059043681299 [Eh]
	 Opposite-Spin Energy      =      -2.5256864913980648 [Eh]
	 Correlation Energy        =      -3.3553923957661946 [Eh]
	 Total Energy              =    -814.8323337889343065 [Eh]

	 ================> DF-SCS-MP2 Energies <==================
	-----------------------------------------------------------
	 SCS Same-Spin Scale       =       0.3333333333333333 [-]
	 SCS Opposite-Spin Scale   =       1.2000000000000000 [-]
	 SCS Same-Spin Energy      =      -0.2765686347893766 [Eh]
	 SCS Opposite-Spin Energy  =      -3.0308237896776777 [Eh]
	 SCS Correlation Energy    =      -3.3073924244670545 [Eh]
	 SCS Total Energy          =    -814.7843338176351153 [Eh]
	-----------------------------------------------------------

  Dipole Moment: [D]
     X:     0.9198      Y:    -4.8323      Z:     2.4907     Total:     5.5136

*** Psi4 exiting successfully. Buy a developer a beer!
