                               Psi4 1.3.2 release

  ==> Input File <==

--------------------------------------------------------------------------
#psi4
#
memory 32 gb

molecule  {
0 1
  O        1.3620710    -0.3800110    -0.9318440
  O        3.2020570     1.9012130    -0.2995130
  O        2.7994070    -2.7489470    -0.4002010
  O       -1.3621860     2.3740050     0.1547830
  N       -0.7972223     0.2015196    -0.2166716
  N       -3.0541720     0.8052390     0.2400120
  N       -4.6734100    -0.8124350     0.4126370
  C        2.7015950     0.8755540     0.5594740
  C        1.2257752     1.1040246     0.8944589
  C        2.6518190    -0.3922910    -0.2854700
  C        0.5739580     0.6830040    -0.4149160
  C        2.8020980    -1.6600160     0.5224700
  C       -1.1273370    -1.1158190    -0.3082760
  C       -1.7446880     1.2038920     0.0820450
  C       -2.4173070    -1.5045610    -0.1045420
  C       -3.3619920    -0.4731600     0.1685110
  H        3.3343810     0.7567850     1.4508530
  H        0.9047070     0.4438290     1.6934890
  H        0.9853290     2.1340670     1.1581470
  H        0.5274540     1.5132540    -1.1249130
  H        3.4174920    -0.3642830    -1.0666260
  H        1.9707490    -1.7331840     1.2432230
  H        3.7460890    -1.6095150     1.0882890
  H        3.1038510     2.7463240     0.1779830
  H       -0.3107400    -1.7892010    -0.5436980
  H        2.9100300    -3.5650720     0.1192120
  H       -2.7034680    -2.5490840    -0.1532500
  H       -5.0287110    -1.6377420    -0.0567190
  H       -5.2994710    -0.0137980     0.3861010
units angstrom
no_reorient  #important for SAPT in psi4, default
symmetry c1  #important for SAPT in psi4, default
}

set PROPERTIES_ORIGIN ["COM"]
properties('MP2/aug-cc-pvtz', properties = ['dipole'])
--------------------------------------------------------------------------

    Molecular point group: c1
  Charge       = 0
  Multiplicity = 1
  Basis Set: AUG-CC-PVTZ
    Blend: AUG-CC-PVTZ
  Basis Set: (AUG-CC-PVTZ AUX)
    Blend: AUG-CC-PVTZ-JKFIT

    Orbital Energies [Eh]
    ---------------------

    Doubly Occupied:

       1A    -20.577774     2A    -20.574506     3A    -20.573080
       4A    -20.502313     5A    -15.621384     6A    -15.588366
       7A    -15.540729     8A    -11.369260     9A    -11.345018
      10A    -11.330708    11A    -11.318509    12A    -11.301111
      13A    -11.296875    14A    -11.293015    15A    -11.237350
      16A    -11.236065    17A     -1.416503    18A     -1.382344
      19A     -1.373490    20A     -1.365633    21A     -1.291902
      22A     -1.261101    23A     -1.169038    24A     -1.078343
      25A     -1.068384    26A     -1.027870    27A     -0.926287
      28A     -0.897681    29A     -0.869029    30A     -0.831097
      31A     -0.805981    32A     -0.754391    33A     -0.738262
      34A     -0.720805    35A     -0.706692    36A     -0.692866
      37A     -0.689397    38A     -0.675942    39A     -0.656547
      40A     -0.636737    41A     -0.627942    42A     -0.618394
      43A     -0.604841    44A     -0.595268    45A     -0.588553
      46A     -0.571665    47A     -0.568500    48A     -0.545463
      49A     -0.533243    50A     -0.523890    51A     -0.511442
      52A     -0.485279    53A     -0.481297    54A     -0.468466
      55A     -0.460046    56A     -0.444022    57A     -0.438000
      58A     -0.416184    59A     -0.383586    60A     -0.335057

  @DF-RHF Final Energy:  -811.47927989789196

   => Energetics <=

    Nuclear Repulsion Energy =           1169.9119031520669978
    One-Electron Energy =               -3434.8953158110757613
    Two-Electron Energy =                1453.5041327611165798
    Total Energy =                       -811.4792798978919564
  Basis Set: (AUG-CC-PVTZ AUX)
    Blend: AUG-CC-PVTZ-RI
    Molecular point group: c1

    Geometry (in Angstrom), charge = 0, multiplicity = 1:

       Center              X                  Y                   Z               Mass
    ------------   -----------------  -----------------  -----------------  -----------------
         O            1.362592884404    -0.379971458401    -0.932969080939    15.994914619570
         O            3.202578884404     1.901252541599    -0.300638080939    15.994914619570
         O            2.799928884404    -2.748907458401    -0.401326080939    15.994914619570
         O           -1.361664115596     2.374044541599     0.153657919061    15.994914619570
         N           -0.796700415596     0.201559141599    -0.217796680939    14.003074004430
         N           -3.053650115596     0.805278541599     0.238886919061    14.003074004430
         N           -4.672888115596    -0.812395458401     0.411511919061    14.003074004430
         C            2.702116884404     0.875593541599     0.558348919061    12.000000000000
         C            1.226297084404     1.104064141599     0.893333819061    12.000000000000
         C            2.652340884404    -0.392251458401    -0.286595080939    12.000000000000
         C            0.574479884404     0.683043541599    -0.416041080939    12.000000000000
         C            2.802619884404    -1.659976458401     0.521344919061    12.000000000000
         C           -1.126815115596    -1.115779458401    -0.309401080939    12.000000000000
         C           -1.744166115596     1.203931541599     0.080919919061    12.000000000000
         C           -2.416785115596    -1.504521458401    -0.105667080939    12.000000000000
         C           -3.361470115596    -0.473120458401     0.167385919061    12.000000000000
         H            3.334902884404     0.756824541599     1.449727919061     1.007825032230
         H            0.905228884404     0.443868541599     1.692363919061     1.007825032230
         H            0.985850884404     2.134106541599     1.157021919061     1.007825032230
         H            0.527975884404     1.513293541599    -1.126038080939     1.007825032230
         H            3.418013884404    -0.364243458401    -1.067751080939     1.007825032230
         H            1.971270884404    -1.733144458401     1.242097919061     1.007825032230
         H            3.746610884404    -1.609475458401     1.087163919061     1.007825032230
         H            3.104372884404     2.746363541599     0.176857919061     1.007825032230
         H           -0.310218115596    -1.789161458401    -0.544823080939     1.007825032230
         H            2.910551884404    -3.565032458401     0.118086919061     1.007825032230
         H           -2.702946115596    -2.549044458401    -0.154375080939     1.007825032230
         H           -5.028189115596    -1.637702458401    -0.057844080939     1.007825032230
         H           -5.298949115596    -0.013758458401     0.384975919061     1.007825032230

  Basis Set: AUG-CC-PVTZ
    Blend: AUG-CC-PVTZ
  Basis Set: (AUG-CC-PVTZ AUX)
    Blend: AUG-CC-PVTZ-JKFIT
	 Reference Energy          =    -811.4792798978919564 [Eh]
	 Singles Energy            =      -0.0000000000000000 [Eh]
	 Same-Spin Energy          =      -0.8296068573302853 [Eh]
	 Opposite-Spin Energy      =      -2.5251620210619561 [Eh]
	 Correlation Energy        =      -3.3547688783922416 [Eh]
	 Total Energy              =    -814.8340487762842486 [Eh]

	 ================> DF-SCS-MP2 Energies <==================
	-----------------------------------------------------------
	 SCS Same-Spin Scale       =       0.3333333333333333 [-]
	 SCS Opposite-Spin Scale   =       1.2000000000000000 [-]
	 SCS Same-Spin Energy      =      -0.2765356191100951 [Eh]
	 SCS Opposite-Spin Energy  =      -3.0301944252743471 [Eh]
	 SCS Correlation Energy    =      -3.3067300443844423 [Eh]
	 SCS Total Energy          =    -814.7860099422764506 [Eh]
	-----------------------------------------------------------

  Dipole Moment: [D]
     X:     1.0817      Y:    -4.6942      Z:     2.4819     Total:     5.4190

*** Psi4 exiting successfully. Buy a developer a beer!
