                               Psi4 1.3.2 release

  ==> Input File <==

--------------------------------------------------------------------------
#psi4
#
memory 32 gb

molecule  {
0 1
  O        1.3620710    -0.3800110    -0.9318440
  O        3.2020570     1.9012130    -0.2995130
  O        2.7994070    -2.7489470    -0.4002010
  O       -1.3621860     2.3740050     0.1547830
  N       -0.7982440     0.1994180    -0.2292560
  N       -3.0541720     0.8052390     0.2400120
  N       -4.6880054    -0.7423627     0.4209801
  C        2.7015950     0.8755540     0.5594740
  C        1.2368440     1.1072260     0.8878520
  C        2.6518190    -0.3922910    -0.2854700
  C        0.5739580     0.6830040    -0.4149160
  C        2.8020980    -1.6600160     0.5224700
  C       -1.1273370    -1.1158190    -0.3082760
  C       -1.7446880     1.2038920     0.0820450
  C       -2.3648142    -1.4519828    -0.1113427
  C       -3.3619920    -0.4731600     0.1685110
  H        3.3343810     0.7567850     1.4508530
  H        0.9047070     0.4438290     1.6934890
  H        0.9853290     2.1340670     1.1581470
  H        0.5274540     1.5132540    -1.1249130
  H        3.4174920    -0.3642830    -1.0666260
  H        1.9707490    -1.7331840     1.2432230
  H        3.7460890    -1.6095150     1.0882890
  H        3.1038510     2.7463240     0.1779830
  H       -0.3107400    -1.7892010    -0.5436980
  H        2.9100300    -3.5650720     0.1192120
  H       -2.7034680    -2.5490840    -0.1532500
  H       -5.0287110    -1.6377420    -0.0567190
  H       -5.2994710    -0.0137980     0.3861010
units angstrom
no_reorient  #important for SAPT in psi4, default
symmetry c1  #important for SAPT in psi4, default
}

set PROPERTIES_ORIGIN ["COM"]
properties('MP2/aug-cc-pvtz', properties = ['dipole'])
--------------------------------------------------------------------------

    Molecular point group: c1
  Charge       = 0
  Multiplicity = 1
  Basis Set: AUG-CC-PVTZ
    Blend: AUG-CC-PVTZ
  Basis Set: (AUG-CC-PVTZ AUX)
    Blend: AUG-CC-PVTZ-JKFIT

    Orbital Energies [Eh]
    ---------------------

    Doubly Occupied:

       1A    -20.577170     2A    -20.573284     3A    -20.571450
       4A    -20.501003     5A    -15.615601     6A    -15.592052
       7A    -15.539601     8A    -11.367371     9A    -11.347578
      10A    -11.328229    11A    -11.307474    12A    -11.299644
      13A    -11.296135    14A    -11.292014    15A    -11.239403
      16A    -11.235090    17A     -1.415138    18A     -1.381200
      19A     -1.372800    20A     -1.364620    21A     -1.295111
      22A     -1.262761    23A     -1.168908    24A     -1.085697
      25A     -1.071456    26A     -1.028219    27A     -0.926613
      28A     -0.896759    29A     -0.868646    30A     -0.830185
      31A     -0.806780    32A     -0.760649    33A     -0.736965
      34A     -0.719575    35A     -0.713114    36A     -0.693090
      37A     -0.688164    38A     -0.668812    39A     -0.654043
      40A     -0.633164    41A     -0.628633    42A     -0.618312
      43A     -0.605944    44A     -0.599477    45A     -0.585553
      46A     -0.567942    47A     -0.566875    48A     -0.543972
      49A     -0.532454    50A     -0.521105    51A     -0.509423
      52A     -0.486009    53A     -0.483607    54A     -0.467919
      55A     -0.460722    56A     -0.443356    57A     -0.436530
      58A     -0.414146    59A     -0.382871    60A     -0.340451

  @DF-RHF Final Energy:  -811.46401683021861

   => Energetics <=

    Nuclear Repulsion Energy =           1171.6787224499134936
    One-Electron Energy =               -3438.4437346602280741
    Two-Electron Energy =                1455.3009953800958556
    Total Energy =                       -811.4640168302187249
  Basis Set: (AUG-CC-PVTZ AUX)
    Blend: AUG-CC-PVTZ-RI
    Molecular point group: c1

    Geometry (in Angstrom), charge = 0, multiplicity = 1:

       Center              X                  Y                   Z               Mass
    ------------   -----------------  -----------------  -----------------  -----------------
         O            1.360197136721    -0.387110256308    -0.931999060903    15.994914619570
         O            3.200183136721     1.894113743692    -0.299668060903    15.994914619570
         O            2.797533136721    -2.756046256308    -0.400356060903    15.994914619570
         O           -1.364059863279     2.366905743692     0.154627939097    15.994914619570
         N           -0.800117863279     0.192318743692    -0.229411060903    14.003074004430
         N           -3.056045863279     0.798139743692     0.239856939097    14.003074004430
         N           -4.689879263279    -0.749461956308     0.420825039097    14.003074004430
         C            2.699721136721     0.868454743692     0.559318939097    12.000000000000
         C            1.234970136721     1.100126743692     0.887696939097    12.000000000000
         C            2.649945136721    -0.399390256308    -0.285625060903    12.000000000000
         C            0.572084136721     0.675904743692    -0.415071060903    12.000000000000
         C            2.800224136721    -1.667115256308     0.522314939097    12.000000000000
         C           -1.129210863279    -1.122918256308    -0.308431060903    12.000000000000
         C           -1.746561863279     1.196792743692     0.081889939097    12.000000000000
         C           -2.366688063279    -1.459082056308    -0.111497760903    12.000000000000
         C           -3.363865863279    -0.480259256308     0.168355939097    12.000000000000
         H            3.332507136721     0.749685743692     1.450697939097     1.007825032230
         H            0.902833136721     0.436729743692     1.693333939097     1.007825032230
         H            0.983455136721     2.126967743692     1.157991939097     1.007825032230
         H            0.525580136721     1.506154743692    -1.125068060903     1.007825032230
         H            3.415618136721    -0.371382256308    -1.066781060903     1.007825032230
         H            1.968875136721    -1.740283256308     1.243067939097     1.007825032230
         H            3.744215136721    -1.616614256308     1.088133939097     1.007825032230
         H            3.101977136721     2.739224743692     0.177827939097     1.007825032230
         H           -0.312613863279    -1.796300256308    -0.543853060903     1.007825032230
         H            2.908156136721    -3.572171256308     0.119056939097     1.007825032230
         H           -2.705341863279    -2.556183256308    -0.153405060903     1.007825032230
         H           -5.030584863279    -1.644841256308    -0.056874060903     1.007825032230
         H           -5.301344863279    -0.020897256308     0.385945939097     1.007825032230

  Basis Set: AUG-CC-PVTZ
    Blend: AUG-CC-PVTZ
  Basis Set: (AUG-CC-PVTZ AUX)
    Blend: AUG-CC-PVTZ-JKFIT
	 Reference Energy          =    -811.4640168302186112 [Eh]
	 Singles Energy            =      -0.0000000000000000 [Eh]
	 Same-Spin Energy          =      -0.8294976403805915 [Eh]
	 Opposite-Spin Energy      =      -2.5250445259270942 [Eh]
	 Correlation Energy        =      -3.3545421663076858 [Eh]
	 Total Energy              =    -814.8185589965263489 [Eh]

	 ================> DF-SCS-MP2 Energies <==================
	-----------------------------------------------------------
	 SCS Same-Spin Scale       =       0.3333333333333333 [-]
	 SCS Opposite-Spin Scale   =       1.2000000000000000 [-]
	 SCS Same-Spin Energy      =      -0.2764992134601971 [Eh]
	 SCS Opposite-Spin Energy  =      -3.0300534311125129 [Eh]
	 SCS Correlation Energy    =      -3.3065526445727098 [Eh]
	 SCS Total Energy          =    -814.7705694747912730 [Eh]
	-----------------------------------------------------------

  Dipole Moment: [D]
     X:     0.9282      Y:    -4.7892      Z:     2.5089     Total:     5.4857

*** Psi4 exiting successfully. Buy a developer a beer!
