                               Psi4 1.4a3.dev225

  ==> Input File <==

--------------------------------------------------------------------------
#psi4
#
memory 32 gb

molecule  {
0 1
  O       -1.4695130     0.3030610    -1.0874480
  O       -3.6436400    -1.4204040    -0.2669360
  O       -1.6911330     2.8536240     0.0000030
  O        1.1857770    -2.4961310     0.0874550
  N        0.6842480    -0.3150290    -0.3399290
  N        2.9133760    -0.9647370     0.2108410
  N        4.5636770     0.6178870     0.3785230
  C       -2.7686820    -0.6858470     0.5863090
  C       -1.3787780    -1.3118450     0.6568060
  C       -2.4925280     0.6283540    -0.1295840
  C       -0.6939390    -0.7805590    -0.6115670
  C       -2.0414120     1.7324860     0.8087370
  C        1.0545030     0.9838330    -0.4888120
  C        1.6080830    -1.3384950     0.0010630
  C        2.3487550     1.3478080    -0.2622830
  C        3.2578570     0.3046130     0.0876290
  H       -3.2188600    -0.5381750     1.5798200
  H       -0.8341690    -0.9801840     1.5464130
  H       -1.3950130    -2.4033150     0.6754970
  H       -0.6263030    -1.5384450    -1.3968420
  H       -3.3750009     0.9702935    -0.7163437
  H       -1.1849610     1.3939850     1.4098140
  H       -2.8667900     1.9743150     1.4948250
  H       -3.6905400    -2.3294490     0.0774600
  H        0.2668220     1.6750250    -0.7707300
  H       -1.4321050     3.5760960     0.5972330
  H        2.6621150     2.3809760    -0.3596430
  H        4.9550500     1.4416620    -0.0591730
  H        5.1797170    -0.1867780     0.4106900
units angstrom
no_reorient  #important for SAPT in psi4, default
symmetry c1  #important for SAPT in psi4, default
}

set PROPERTIES_ORIGIN ["COM"]
properties('MP2/aug-cc-pvtz', properties = ['dipole'])
--------------------------------------------------------------------------

    Molecular point group: c1
  Charge       = 0
  Multiplicity = 1
  Basis Set: AUG-CC-PVTZ
    Blend: AUG-CC-PVTZ
  Basis Set: (AUG-CC-PVTZ AUX)
    Blend: AUG-CC-PVTZ-JKFIT

    Orbital Energies [Eh]
    ---------------------

    Doubly Occupied:

       1A    -20.583548     2A    -20.574622     3A    -20.572605
       4A    -20.501923     5A    -15.619125     6A    -15.588930
       7A    -15.539854     8A    -11.368803     9A    -11.345837
      10A    -11.333255    11A    -11.314594    12A    -11.300388
      13A    -11.299642    14A    -11.296942    15A    -11.237340
      16A    -11.235340    17A     -1.418922    18A     -1.381686
      19A     -1.377535    20A     -1.366108    21A     -1.290280
      22A     -1.258647    23A     -1.168504    24A     -1.076248
      25A     -1.067589    26A     -1.024425    27A     -0.930138
      28A     -0.894959    29A     -0.867772    30A     -0.830303
      31A     -0.803523    32A     -0.753703    33A     -0.737814
      34A     -0.725081    35A     -0.707307    36A     -0.701224
      37A     -0.690358    38A     -0.673314    39A     -0.651190
      40A     -0.642141    41A     -0.622603    42A     -0.617809
      43A     -0.606761    44A     -0.595475    45A     -0.587638
      46A     -0.572552    47A     -0.564423    48A     -0.550946
      49A     -0.526694    50A     -0.520659    51A     -0.510657
      52A     -0.484698    53A     -0.480772    54A     -0.472214
      55A     -0.459406    56A     -0.448140    57A     -0.440786
      58A     -0.413637    59A     -0.382446    60A     -0.333949

  @DF-RHF Final Energy:  -811.47860293912140

   => Energetics <=

    Nuclear Repulsion Energy =           1185.0151399193318866
    One-Electron Energy =               -3465.0999155096719733
    Two-Electron Energy =                1468.6061726512186851
    Total Energy =                       -811.4786029391214015
  Basis Set: (AUG-CC-PVTZ AUX)
    Blend: AUG-CC-PVTZ-RI
    Molecular point group: c1

    Geometry (in Angstrom), charge = 0, multiplicity = 1:

       Center              X                  Y                   Z               Mass
    ------------   -----------------  -----------------  -----------------  -----------------
         O           -1.493901911788     0.326749153215    -1.067773943521    15.994914619570
         O           -3.668028911788    -1.396715846785    -0.247261943521    15.994914619570
         O           -1.715521911788     2.877312153215     0.019677056479    15.994914619570
         O            1.161388088212    -2.472442846785     0.107129056479    15.994914619570
         N            0.659859088212    -0.291340846785    -0.320254943521    14.003074004430
         N            2.888987088212    -0.941048846785     0.230515056479    14.003074004430
         N            4.539288088212     0.641575153215     0.398197056479    14.003074004430
         C           -2.793070911788    -0.662158846785     0.605983056479    12.000000000000
         C           -1.403166911788    -1.288156846785     0.676480056479    12.000000000000
         C           -2.516916911788     0.652042153215    -0.109909943521    12.000000000000
         C           -0.718327911788    -0.756870846785    -0.591892943521    12.000000000000
         C           -2.065800911788     1.756174153215     0.828411056479    12.000000000000
         C            1.030114088212     1.007521153215    -0.469137943521    12.000000000000
         C            1.583694088212    -1.314806846785     0.020737056479    12.000000000000
         C            2.324366088212     1.371496153215    -0.242608943521    12.000000000000
         C            3.233468088212     0.328301153215     0.107303056479    12.000000000000
         H           -3.243248911788    -0.514486846785     1.599494056479     1.007825032230
         H           -0.858557911788    -0.956495846785     1.566087056479     1.007825032230
         H           -1.419401911788    -2.379626846785     0.695171056479     1.007825032230
         H           -0.650691911788    -1.514756846785    -1.377167943521     1.007825032230
         H           -3.399389811788     0.993981653215    -0.696669643521     1.007825032230
         H           -1.209349911788     1.417673153215     1.429488056479     1.007825032230
         H           -2.891178911788     1.998003153215     1.514499056479     1.007825032230
         H           -3.714928911788    -2.305760846785     0.097134056479     1.007825032230
         H            0.242433088212     1.698713153215    -0.751055943521     1.007825032230
         H           -1.456493911788     3.599784153215     0.616907056479     1.007825032230
         H            2.637726088212     2.404664153215    -0.339968943521     1.007825032230
         H            4.930661088212     1.465350153215    -0.039498943521     1.007825032230
         H            5.155328088212    -0.163089846785     0.430364056479     1.007825032230

  Basis Set: AUG-CC-PVTZ
    Blend: AUG-CC-PVTZ
  Basis Set: (AUG-CC-PVTZ AUX)
    Blend: AUG-CC-PVTZ-JKFIT
	 Reference Energy          =    -811.4786029391214015 [Eh]
	 Singles Energy            =      -0.0000000000000000 [Eh]
	 Same-Spin Energy          =      -0.8308503727387673 [Eh]
	 Opposite-Spin Energy      =      -2.5271969715609748 [Eh]
	 Correlation Energy        =      -3.3580473442997421 [Eh]
	 Total Energy              =    -814.8366502834211360 [Eh]

	 ================> DF-SCS-MP2 Energies <==================
	-----------------------------------------------------------
	 SCS Same-Spin Scale       =       0.3333333333333333 [-]
	 SCS Opposite-Spin Scale   =       1.2000000000000000 [-]
	 SCS Same-Spin Energy      =      -0.2769501242462558 [Eh]
	 SCS Opposite-Spin Energy  =      -3.0326363658731696 [Eh]
	 SCS Correlation Energy    =      -3.3095864901194254 [Eh]
	 SCS Total Energy          =    -814.7881894292407878 [Eh]
	-----------------------------------------------------------

  Dipole Moment: [D]
     X:    -0.3215      Y:     4.5962      Z:     2.4077     Total:     5.1986

*** Psi4 exiting successfully. Buy a developer a beer!
