                               Psi4 1.3.2 release

  ==> Input File <==

--------------------------------------------------------------------------
#psi4
#
memory 32 gb

molecule  {
0 1
  O        1.3620710    -0.3800110    -0.9318440
  O        3.2020570     1.9012130    -0.2995130
  O        2.7994070    -2.7489470    -0.4002010
  O       -1.3621860     2.3740050     0.1547830
  N       -0.7982440     0.1994180    -0.2292560
  N       -3.0541720     0.8052390     0.2400120
  N       -4.6734100    -0.8124350     0.4126370
  C        2.7015950     0.8755540     0.5594740
  C        1.2368440     1.1072260     0.8878520
  C        2.6452885    -0.5586296    -0.3963249
  C        0.5739580     0.6830040    -0.4149160
  C        2.8020980    -1.6600160     0.5224700
  C       -1.1273370    -1.1158190    -0.3082760
  C       -1.7446880     1.2038920     0.0820450
  C       -2.4173070    -1.5045610    -0.1045420
  C       -3.3619920    -0.4731600     0.1685110
  H        3.3343810     0.7567850     1.4508530
  H        0.9047070     0.4438290     1.6934890
  H        0.9853290     2.1340670     1.1581470
  H        0.5274540     1.5132540    -1.1249130
  H        3.4174920    -0.3642830    -1.0666260
  H        1.9707490    -1.7331840     1.2432230
  H        3.7460890    -1.6095150     1.0882890
  H        3.1038510     2.7463240     0.1779830
  H       -0.3107400    -1.7892010    -0.5436980
  H        2.9100300    -3.5650720     0.1192120
  H       -2.7034680    -2.5490840    -0.1532500
  H       -5.0287110    -1.6377420    -0.0567190
  H       -5.2994710    -0.0137980     0.3861010
units angstrom
no_reorient  #important for SAPT in psi4, default
symmetry c1  #important for SAPT in psi4, default
}

set PROPERTIES_ORIGIN ["COM"]
properties('MP2/aug-cc-pvtz', properties = ['dipole'])
--------------------------------------------------------------------------

    Molecular point group: c1
  Charge       = 0
  Multiplicity = 1
  Basis Set: AUG-CC-PVTZ
    Blend: AUG-CC-PVTZ
  Basis Set: (AUG-CC-PVTZ AUX)
    Blend: AUG-CC-PVTZ-JKFIT

    Orbital Energies [Eh]
    ---------------------

    Doubly Occupied:

       1A    -20.575680     2A    -20.573094     3A    -20.570322
       4A    -20.503420     5A    -15.622676     6A    -15.588754
       7A    -15.541344     8A    -11.370599     9A    -11.345523
      10A    -11.334441    11A    -11.319002    12A    -11.299146
      13A    -11.295620    14A    -11.294380    15A    -11.237628
      16A    -11.233383    17A     -1.420675    18A     -1.383406
      19A     -1.373978    20A     -1.363851    21A     -1.292949
      22A     -1.262769    23A     -1.169895    24A     -1.077896
      25A     -1.055528    26A     -1.035043    27A     -0.926933
      28A     -0.898650    29A     -0.861536    30A     -0.826836
      31A     -0.813994    32A     -0.755626    33A     -0.738441
      34A     -0.721733    35A     -0.704192    36A     -0.698225
      37A     -0.685299    38A     -0.680416    39A     -0.660200
      40A     -0.635269    41A     -0.627709    42A     -0.617765
      43A     -0.610738    44A     -0.600697    45A     -0.591890
      46A     -0.576800    47A     -0.567819    48A     -0.549753
      49A     -0.530422    50A     -0.522523    51A     -0.514048
      52A     -0.483146    53A     -0.471783    54A     -0.462106
      55A     -0.446207    56A     -0.445037    57A     -0.420393
      58A     -0.415665    59A     -0.384117    60A     -0.335351

  @DF-RHF Final Energy:  -811.44596382577811

   => Energetics <=

    Nuclear Repulsion Energy =           1168.7574021005943905
    One-Electron Energy =               -3432.5621007663589808
    Two-Electron Energy =                1452.3587348399864823
    Total Energy =                       -811.4459638257781080
  Basis Set: (AUG-CC-PVTZ AUX)
    Blend: AUG-CC-PVTZ-RI
    Molecular point group: c1

    Geometry (in Angstrom), charge = 0, multiplicity = 1:

       Center              X                  Y                   Z               Mass
    ------------   -----------------  -----------------  -----------------  -----------------
         O            1.362416071016    -0.371221315468    -0.925986132974    15.994914619570
         O            3.202402071016     1.910002684532    -0.293655132974    15.994914619570
         O            2.799752071016    -2.740157315468    -0.394343132974    15.994914619570
         O           -1.361840928984     2.382794684532     0.160640867026    15.994914619570
         N           -0.797898928984     0.208207684532    -0.223398132974    14.003074004430
         N           -3.053826928984     0.814028684532     0.245869867026    14.003074004430
         N           -4.673064928984    -0.803645315468     0.418494867026    14.003074004430
         C            2.701940071016     0.884343684532     0.565331867026    12.000000000000
         C            1.237189071016     1.116015684532     0.893709867026    12.000000000000
         C            2.645633571016    -0.549839915468    -0.390467032974    12.000000000000
         C            0.574303071016     0.691793684532    -0.409058132974    12.000000000000
         C            2.802443071016    -1.651226315468     0.528327867026    12.000000000000
         C           -1.126991928984    -1.107029315468    -0.302418132974    12.000000000000
         C           -1.744342928984     1.212681684532     0.087902867026    12.000000000000
         C           -2.416961928984    -1.495771315468    -0.098684132974    12.000000000000
         C           -3.361646928984    -0.464370315468     0.174368867026    12.000000000000
         H            3.334726071016     0.765574684532     1.456710867026     1.007825032230
         H            0.905052071016     0.452618684532     1.699346867026     1.007825032230
         H            0.985674071016     2.142856684532     1.164004867026     1.007825032230
         H            0.527799071016     1.522043684532    -1.119055132974     1.007825032230
         H            3.417837071016    -0.355493315468    -1.060768132974     1.007825032230
         H            1.971094071016    -1.724394315468     1.249080867026     1.007825032230
         H            3.746434071016    -1.600725315468     1.094146867026     1.007825032230
         H            3.104196071016     2.755113684532     0.183840867026     1.007825032230
         H           -0.310394928984    -1.780411315468    -0.537840132974     1.007825032230
         H            2.910375071016    -3.556282315468     0.125069867026     1.007825032230
         H           -2.703122928984    -2.540294315468    -0.147392132974     1.007825032230
         H           -5.028365928984    -1.628952315468    -0.050861132974     1.007825032230
         H           -5.299125928984    -0.005008315468     0.391958867026     1.007825032230

  Basis Set: AUG-CC-PVTZ
    Blend: AUG-CC-PVTZ
  Basis Set: (AUG-CC-PVTZ AUX)
    Blend: AUG-CC-PVTZ-JKFIT
	 Reference Energy          =    -811.4459638257781080 [Eh]
	 Singles Energy            =      -0.0000000000000000 [Eh]
	 Same-Spin Energy          =      -0.8306133456022435 [Eh]
	 Opposite-Spin Energy      =      -2.5267406658046485 [Eh]
	 Correlation Energy        =      -3.3573540114068923 [Eh]
	 Total Energy              =    -814.8033178371849772 [Eh]

	 ================> DF-SCS-MP2 Energies <==================
	-----------------------------------------------------------
	 SCS Same-Spin Scale       =       0.3333333333333333 [-]
	 SCS Opposite-Spin Scale   =       1.2000000000000000 [-]
	 SCS Same-Spin Energy      =      -0.2768711152007478 [Eh]
	 SCS Opposite-Spin Energy  =      -3.0320887989655780 [Eh]
	 SCS Correlation Energy    =      -3.3089599141663260 [Eh]
	 SCS Total Energy          =    -814.7549237399443882 [Eh]
	-----------------------------------------------------------

  Dipole Moment: [D]
     X:     0.9891      Y:    -4.8185      Z:     2.3944     Total:     5.4708

*** Psi4 exiting successfully. Buy a developer a beer!
