                               Psi4 1.3.2 release

  ==> Input File <==

--------------------------------------------------------------------------
#psi4
#
memory 32 gb

molecule  {
0 1
  O        1.3620710    -0.3800110    -0.9318440
  O        3.2020570     1.9012130    -0.2995130
  O        2.7994070    -2.7489470    -0.4002010
  O       -1.3621860     2.3740050     0.1547830
  N       -0.7982440     0.1994180    -0.2292560
  N       -3.0541720     0.8052390     0.2400120
  N       -4.6734100    -0.8124350     0.4126370
  C        2.7366318     0.9473593     0.4993373
  C        1.2368440     1.1072260     0.8878520
  C        2.6518190    -0.3922910    -0.2854700
  C        0.5739580     0.6830040    -0.4149160
  C        2.8020980    -1.6600160     0.5224700
  C       -1.1273370    -1.1158190    -0.3082760
  C       -1.7446880     1.2038920     0.0820450
  C       -2.4173070    -1.5045610    -0.1045420
  C       -3.3619920    -0.4731600     0.1685110
  H        3.3343810     0.7567850     1.4508530
  H        0.9047070     0.4438290     1.6934890
  H        0.9853290     2.1340670     1.1581470
  H        0.5274540     1.5132540    -1.1249130
  H        3.4174920    -0.3642830    -1.0666260
  H        1.9707490    -1.7331840     1.2432230
  H        3.7460890    -1.6095150     1.0882890
  H        3.1038510     2.7463240     0.1779830
  H       -0.3107400    -1.7892010    -0.5436980
  H        2.9100300    -3.5650720     0.1192120
  H       -2.7034680    -2.5490840    -0.1532500
  H       -5.0287110    -1.6377420    -0.0567190
  H       -5.2994710    -0.0137980     0.3861010
units angstrom
no_reorient  #important for SAPT in psi4, default
symmetry c1  #important for SAPT in psi4, default
}

set PROPERTIES_ORIGIN ["COM"]
properties('MP2/aug-cc-pvtz', properties = ['dipole'])
--------------------------------------------------------------------------

    Molecular point group: c1
  Charge       = 0
  Multiplicity = 1
  Basis Set: AUG-CC-PVTZ
    Blend: AUG-CC-PVTZ
  Basis Set: (AUG-CC-PVTZ AUX)
    Blend: AUG-CC-PVTZ-JKFIT

    Orbital Energies [Eh]
    ---------------------

    Doubly Occupied:

       1A    -20.585971     2A    -20.576704     3A    -20.570770
       4A    -20.501993     5A    -15.620627     6A    -15.587629
       7A    -15.539937     8A    -11.368872     9A    -11.344155
      10A    -11.328758    11A    -11.317263    12A    -11.303533
      13A    -11.295747    14A    -11.291126    15A    -11.236041
      16A    -11.234405    17A     -1.429281    18A     -1.403321
      19A     -1.379103    20A     -1.367853    21A     -1.291274
      22A     -1.260364    23A     -1.168216    24A     -1.074046
      25A     -1.059895    26A     -1.024333    27A     -0.924880
      28A     -0.896689    29A     -0.869493    30A     -0.831600
      31A     -0.802370    32A     -0.753679    33A     -0.737166
      34A     -0.723797    35A     -0.715502    36A     -0.699876
      37A     -0.688712    38A     -0.675816    39A     -0.657650
      40A     -0.639590    41A     -0.631118    42A     -0.621082
      43A     -0.604302    44A     -0.599818    45A     -0.590021
      46A     -0.575668    47A     -0.572453    48A     -0.546354
      49A     -0.536660    50A     -0.521275    51A     -0.511553
      52A     -0.480391    53A     -0.467469    54A     -0.466073
      55A     -0.453776    56A     -0.439271    57A     -0.435228
      58A     -0.414716    59A     -0.382369    60A     -0.333757

  @DF-RHF Final Energy:  -811.47079455913797

   => Energetics <=

    Nuclear Repulsion Energy =           1169.8889878490278988
    One-Electron Energy =               -3434.7967831709393067
    Two-Electron Energy =                1453.4370007627733230
    Total Energy =                       -811.4707945591378575
  Basis Set: (AUG-CC-PVTZ AUX)
    Blend: AUG-CC-PVTZ-RI
    Molecular point group: c1

    Geometry (in Angstrom), charge = 0, multiplicity = 1:

       Center              X                  Y                   Z               Mass
    ------------   -----------------  -----------------  -----------------  -----------------
         O            1.360219557435    -0.383805397441    -0.928666201564    15.994914619570
         O            3.200205557435     1.897418602559    -0.296335201564    15.994914619570
         O            2.797555557435    -2.752741397441    -0.397023201564    15.994914619570
         O           -1.364037442565     2.370210602559     0.157960798436    15.994914619570
         N           -0.800095442565     0.195623602559    -0.226078201564    14.003074004430
         N           -3.056023442565     0.801444602559     0.243189798436    14.003074004430
         N           -4.675261442565    -0.816229397441     0.415814798436    14.003074004430
         C            2.734780357435     0.943564902559     0.502515098436    12.000000000000
         C            1.234992557435     1.103431602559     0.891029798436    12.000000000000
         C            2.649967557435    -0.396085397441    -0.282292201564    12.000000000000
         C            0.572106557435     0.679209602559    -0.411738201564    12.000000000000
         C            2.800246557435    -1.663810397441     0.525647798436    12.000000000000
         C           -1.129188442565    -1.119613397441    -0.305098201564    12.000000000000
         C           -1.746539442565     1.200097602559     0.085222798436    12.000000000000
         C           -2.419158442565    -1.508355397441    -0.101364201564    12.000000000000
         C           -3.363843442565    -0.476954397441     0.171688798436    12.000000000000
         H            3.332529557435     0.752990602559     1.454030798436     1.007825032230
         H            0.902855557435     0.440034602559     1.696666798436     1.007825032230
         H            0.983477557435     2.130272602559     1.161324798436     1.007825032230
         H            0.525602557435     1.509459602559    -1.121735201564     1.007825032230
         H            3.415640557435    -0.368077397441    -1.063448201564     1.007825032230
         H            1.968897557435    -1.736978397441     1.246400798436     1.007825032230
         H            3.744237557435    -1.613309397441     1.091466798436     1.007825032230
         H            3.101999557435     2.742529602559     0.181160798436     1.007825032230
         H           -0.312591442565    -1.792995397441    -0.540520201564     1.007825032230
         H            2.908178557435    -3.568866397441     0.122389798436     1.007825032230
         H           -2.705319442565    -2.552878397441    -0.150072201564     1.007825032230
         H           -5.030562442565    -1.641536397441    -0.053541201564     1.007825032230
         H           -5.301322442565    -0.017592397441     0.389278798436     1.007825032230

  Basis Set: AUG-CC-PVTZ
    Blend: AUG-CC-PVTZ
  Basis Set: (AUG-CC-PVTZ AUX)
    Blend: AUG-CC-PVTZ-JKFIT
	 Reference Energy          =    -811.4707945591379712 [Eh]
	 Singles Energy            =      -0.0000000000000000 [Eh]
	 Same-Spin Energy          =      -0.8297439552350936 [Eh]
	 Opposite-Spin Energy      =      -2.5242034519451266 [Eh]
	 Correlation Energy        =      -3.3539474071802200 [Eh]
	 Total Energy              =    -814.8247419663182427 [Eh]

	 ================> DF-SCS-MP2 Energies <==================
	-----------------------------------------------------------
	 SCS Same-Spin Scale       =       0.3333333333333333 [-]
	 SCS Opposite-Spin Scale   =       1.2000000000000000 [-]
	 SCS Same-Spin Energy      =      -0.2765813184116979 [Eh]
	 SCS Opposite-Spin Energy  =      -3.0290441423341519 [Eh]
	 SCS Correlation Energy    =      -3.3056254607458495 [Eh]
	 SCS Total Energy          =    -814.7764200198838580 [Eh]
	-----------------------------------------------------------

  Dipole Moment: [D]
     X:     1.2817      Y:    -4.3589      Z:     2.2928     Total:     5.0892

*** Psi4 exiting successfully. Buy a developer a beer!
