                               Psi4 1.3.2 release

  ==> Input File <==

--------------------------------------------------------------------------
#psi4
#
memory 32 gb

molecule  {
0 1
  O        1.3620710    -0.3800110    -0.9318440
  O        3.2243788     1.8901126    -0.2994004
  O        2.7994070    -2.7489470    -0.4002010
  O       -1.3621860     2.3740050     0.1547830
  N       -0.7982440     0.1994180    -0.2292560
  N       -3.0541720     0.8052390     0.2400120
  N       -4.6734100    -0.8124350     0.4126370
  C        2.7015950     0.8755540     0.5594740
  C        1.2369317     1.0852502     0.9026773
  C        2.6518190    -0.3922910    -0.2854700
  C        0.5739580     0.6830040    -0.4149160
  C        2.8020980    -1.6600160     0.5224700
  C       -1.1273370    -1.1158190    -0.3082760
  C       -1.7446880     1.2038920     0.0820450
  C       -2.4173070    -1.5045610    -0.1045420
  C       -3.3619920    -0.4731600     0.1685110
  H        3.3343810     0.7567850     1.4508530
  H        0.9047070     0.4438290     1.6934890
  H        0.9853290     2.1340670     1.1581470
  H        0.5274540     1.5132540    -1.1249130
  H        3.4174920    -0.3642830    -1.0666260
  H        1.9707490    -1.7331840     1.2432230
  H        3.7460890    -1.6095150     1.0882890
  H        3.1038510     2.7463240     0.1779830
  H       -0.3107400    -1.7892010    -0.5436980
  H        2.9100300    -3.5650720     0.1192120
  H       -2.7034680    -2.5490840    -0.1532500
  H       -5.0287110    -1.6377420    -0.0567190
  H       -5.2994710    -0.0137980     0.3861010
units angstrom
no_reorient  #important for SAPT in psi4, default
symmetry c1  #important for SAPT in psi4, default
}

set PROPERTIES_ORIGIN ["COM"]
properties('MP2/aug-cc-pvtz', properties = ['dipole'])
--------------------------------------------------------------------------

    Molecular point group: c1
  Charge       = 0
  Multiplicity = 1
  Basis Set: AUG-CC-PVTZ
    Blend: AUG-CC-PVTZ
  Basis Set: (AUG-CC-PVTZ AUX)
    Blend: AUG-CC-PVTZ-JKFIT

    Orbital Energies [Eh]
    ---------------------

    Doubly Occupied:

       1A    -20.577493     2A    -20.576652     3A    -20.572468
       4A    -20.503155     5A    -15.621804     6A    -15.588476
       7A    -15.540943     8A    -11.370028     9A    -11.345171
      10A    -11.331409    11A    -11.318385    12A    -11.300451
      13A    -11.296543    14A    -11.292326    15A    -11.237165
      16A    -11.237117    17A     -1.416392    18A     -1.382300
      19A     -1.372717    20A     -1.364817    21A     -1.292354
      22A     -1.261552    23A     -1.169229    24A     -1.078913
      25A     -1.068863    26A     -1.027443    27A     -0.926387
      28A     -0.897570    29A     -0.868843    30A     -0.831302
      31A     -0.805726    32A     -0.754462    33A     -0.738507
      34A     -0.720277    35A     -0.705706    36A     -0.691675
      37A     -0.688753    38A     -0.676312    39A     -0.656514
      40A     -0.637677    41A     -0.628958    42A     -0.618993
      43A     -0.604362    44A     -0.595095    45A     -0.588117
      46A     -0.572664    47A     -0.568668    48A     -0.544309
      49A     -0.534189    50A     -0.520620    51A     -0.512525
      52A     -0.485000    53A     -0.482114    54A     -0.468797
      55A     -0.461091    56A     -0.444434    57A     -0.437756
      58A     -0.416445    59A     -0.383857    60A     -0.334993

  @DF-RHF Final Energy:  -811.47741171359542

   => Energetics <=

    Nuclear Repulsion Energy =           1169.6503198994676040
    One-Electron Energy =               -3434.3617348196949024
    Two-Electron Energy =                1453.2340032066317690
    Total Energy =                       -811.4774117135953020
  Basis Set: (AUG-CC-PVTZ AUX)
    Blend: AUG-CC-PVTZ-RI
    Molecular point group: c1

    Geometry (in Angstrom), charge = 0, multiplicity = 1:

       Center              X                  Y                   Z               Mass
    ------------   -----------------  -----------------  -----------------  -----------------
         O            1.360494134689    -0.378067937959    -0.932635300258    15.994914619570
         O            3.222801934689     1.892055662041    -0.300191700258    15.994914619570
         O            2.797830134689    -2.747003937959    -0.400992300258    15.994914619570
         O           -1.363762865311     2.375948062041     0.153991699742    15.994914619570
         N           -0.799820865311     0.201361062041    -0.230047300258    14.003074004430
         N           -3.055748865311     0.807182062041     0.239220699742    14.003074004430
         N           -4.674986865311    -0.810491937959     0.411845699742    14.003074004430
         C            2.700018134689     0.877497062041     0.558682699742    12.000000000000
         C            1.235354834689     1.087193262041     0.901885999742    12.000000000000
         C            2.650242134689    -0.390347937959    -0.286261300258    12.000000000000
         C            0.572381134689     0.684947062041    -0.415707300258    12.000000000000
         C            2.800521134689    -1.658072937959     0.521678699742    12.000000000000
         C           -1.128913865311    -1.113875937959    -0.309067300258    12.000000000000
         C           -1.746264865311     1.205835062041     0.081253699742    12.000000000000
         C           -2.418883865311    -1.502617937959    -0.105333300258    12.000000000000
         C           -3.363568865311    -0.471216937959     0.167719699742    12.000000000000
         H            3.332804134689     0.758728062041     1.450061699742     1.007825032230
         H            0.903130134689     0.445772062041     1.692697699742     1.007825032230
         H            0.983752134689     2.136010062041     1.157355699742     1.007825032230
         H            0.525877134689     1.515197062041    -1.125704300258     1.007825032230
         H            3.415915134689    -0.362339937959    -1.067417300258     1.007825032230
         H            1.969172134689    -1.731240937959     1.242431699742     1.007825032230
         H            3.744512134689    -1.607571937959     1.087497699742     1.007825032230
         H            3.102274134689     2.748267062041     0.177191699742     1.007825032230
         H           -0.312316865311    -1.787257937959    -0.544489300258     1.007825032230
         H            2.908453134689    -3.563128937959     0.118420699742     1.007825032230
         H           -2.705044865311    -2.547140937959    -0.154041300258     1.007825032230
         H           -5.030287865311    -1.635798937959    -0.057510300258     1.007825032230
         H           -5.301047865311    -0.011854937959     0.385309699742     1.007825032230

  Basis Set: AUG-CC-PVTZ
    Blend: AUG-CC-PVTZ
  Basis Set: (AUG-CC-PVTZ AUX)
    Blend: AUG-CC-PVTZ-JKFIT
	 Reference Energy          =    -811.4774117135954157 [Eh]
	 Singles Energy            =      -0.0000000000000000 [Eh]
	 Same-Spin Energy          =      -0.8298759556849080 [Eh]
	 Opposite-Spin Energy      =      -2.5256935182920968 [Eh]
	 Correlation Energy        =      -3.3555694739770048 [Eh]
	 Total Energy              =    -814.8329811875723863 [Eh]

	 ================> DF-SCS-MP2 Energies <==================
	-----------------------------------------------------------
	 SCS Same-Spin Scale       =       0.3333333333333333 [-]
	 SCS Opposite-Spin Scale   =       1.2000000000000000 [-]
	 SCS Same-Spin Energy      =      -0.2766253185616360 [Eh]
	 SCS Opposite-Spin Energy  =      -3.0308322219505159 [Eh]
	 SCS Correlation Energy    =      -3.3074575405121518 [Eh]
	 SCS Total Energy          =    -814.7848692541075479 [Eh]
	-----------------------------------------------------------

  Dipole Moment: [D]
     X:     1.0137      Y:    -4.6644      Z:     2.4802     Total:     5.3792

*** Psi4 exiting successfully. Buy a developer a beer!
