                               Psi4 1.3.2 release

  ==> Input File <==

--------------------------------------------------------------------------
#psi4
#
memory 32 gb

molecule  {
0 1
  O        1.3620710    -0.3800110    -0.9318440
  O        3.2020570     1.9012130    -0.2995130
  O        2.7994070    -2.7489470    -0.4002010
  O       -1.3621860     2.3740050     0.1547830
  N       -0.7982440     0.1994180    -0.2292560
  N       -3.0541720     0.8052390     0.2400120
  N       -4.6734100    -0.8124350     0.4126370
  C        2.7001495     0.8943494     0.5408359
  C        1.2368440     1.1072260     0.8878520
  C        2.6518190    -0.3922910    -0.2854700
  C        0.5739580     0.6830040    -0.4149160
  C        2.8020980    -1.6600160     0.5224700
  C       -1.1273370    -1.1158190    -0.3082760
  C       -1.7446880     1.2038920     0.0820450
  C       -2.4173070    -1.5045610    -0.1045420
  C       -3.3619920    -0.4731600     0.1685110
  H        3.3343810     0.7567850     1.4508530
  H        0.8872379     0.4515086     1.6923840
  H        0.9853290     2.1340670     1.1581470
  H        0.5274540     1.5132540    -1.1249130
  H        3.4174920    -0.3642830    -1.0666260
  H        1.9707490    -1.7331840     1.2432230
  H        3.7460890    -1.6095150     1.0882890
  H        3.1038510     2.7463240     0.1779830
  H       -0.3107400    -1.7892010    -0.5436980
  H        2.9100300    -3.5650720     0.1192120
  H       -2.7034680    -2.5490840    -0.1532500
  H       -5.0287110    -1.6377420    -0.0567190
  H       -5.2994710    -0.0137980     0.3861010
units angstrom
no_reorient  #important for SAPT in psi4, default
symmetry c1  #important for SAPT in psi4, default
}

set PROPERTIES_ORIGIN ["COM"]
properties('MP2/aug-cc-pvtz', properties = ['dipole'])
--------------------------------------------------------------------------

    Molecular point group: c1
  Charge       = 0
  Multiplicity = 1
  Basis Set: AUG-CC-PVTZ
    Blend: AUG-CC-PVTZ
  Basis Set: (AUG-CC-PVTZ AUX)
    Blend: AUG-CC-PVTZ-JKFIT

    Orbital Energies [Eh]
    ---------------------

    Doubly Occupied:

       1A    -20.577563     2A    -20.577363     3A    -20.572213
       4A    -20.502882     5A    -15.621513     6A    -15.588232
       7A    -15.540659     8A    -11.369725     9A    -11.344884
      10A    -11.330182    11A    -11.318089    12A    -11.301586
      13A    -11.296613    14A    -11.292498    15A    -11.236841
      16A    -11.236000    17A     -1.417401    18A     -1.385121
      19A     -1.377566    20A     -1.367799    21A     -1.292070
      22A     -1.261241    23A     -1.168962    24A     -1.078206
      25A     -1.067419    26A     -1.027586    27A     -0.926439
      28A     -0.897351    29A     -0.868996    30A     -0.830921
      31A     -0.804663    32A     -0.754121    33A     -0.738029
      34A     -0.720834    35A     -0.708019    36A     -0.694574
      37A     -0.691236    38A     -0.675908    39A     -0.656817
      40A     -0.637846    41A     -0.627630    42A     -0.619285
      43A     -0.604441    44A     -0.596137    45A     -0.588788
      46A     -0.573037    47A     -0.569639    48A     -0.545014
      49A     -0.533801    50A     -0.523173    51A     -0.511271
      52A     -0.482827    53A     -0.481330    54A     -0.468222
      55A     -0.459717    56A     -0.443601    57A     -0.437347
      58A     -0.416112    59A     -0.383477    60A     -0.334713

  @DF-RHF Final Energy:  -811.47893293205129

   => Energetics <=

    Nuclear Repulsion Energy =           1170.1288309928449962
    One-Electron Energy =               -3435.3044722370104864
    Two-Electron Energy =                1453.6967083121141968
    Total Energy =                       -811.4789329320512934
  Basis Set: (AUG-CC-PVTZ AUX)
    Blend: AUG-CC-PVTZ-RI
    Molecular point group: c1

    Geometry (in Angstrom), charge = 0, multiplicity = 1:

       Center              X                  Y                   Z               Mass
    ------------   -----------------  -----------------  -----------------  -----------------
         O            1.362224895324    -0.381038312011    -0.930854180901    15.994914619570
         O            3.202210895324     1.900185687989    -0.298523180901    15.994914619570
         O            2.799560895324    -2.749974312011    -0.399211180901    15.994914619570
         O           -1.362032104676     2.372977687989     0.155772819099    15.994914619570
         N           -0.798090104676     0.198390687989    -0.228266180901    14.003074004430
         N           -3.054018104676     0.804211687989     0.241001819099    14.003074004430
         N           -4.673256104676    -0.813462312011     0.413626819099    14.003074004430
         C            2.700303395324     0.893322087989     0.541825719099    12.000000000000
         C            1.236997895324     1.106198687989     0.888841819099    12.000000000000
         C            2.651972895324    -0.393318312011    -0.284480180901    12.000000000000
         C            0.574111895324     0.681976687989    -0.413926180901    12.000000000000
         C            2.802251895324    -1.661043312011     0.523459819099    12.000000000000
         C           -1.127183104676    -1.116846312011    -0.307286180901    12.000000000000
         C           -1.744534104676     1.202864687989     0.083034819099    12.000000000000
         C           -2.417153104676    -1.505588312011    -0.103552180901    12.000000000000
         C           -3.361838104676    -0.474187312011     0.169500819099    12.000000000000
         H            3.334534895324     0.755757687989     1.451842819099     1.007825032230
         H            0.887391795324     0.450481287989     1.693373819099     1.007825032230
         H            0.985482895324     2.133039687989     1.159136819099     1.007825032230
         H            0.527607895324     1.512226687989    -1.123923180901     1.007825032230
         H            3.417645895324    -0.365310312011    -1.065636180901     1.007825032230
         H            1.970902895324    -1.734211312011     1.244212819099     1.007825032230
         H            3.746242895324    -1.610542312011     1.089278819099     1.007825032230
         H            3.104004895324     2.745296687989     0.178972819099     1.007825032230
         H           -0.310586104676    -1.790228312011    -0.542708180901     1.007825032230
         H            2.910183895324    -3.566099312011     0.120201819099     1.007825032230
         H           -2.703314104676    -2.550111312011    -0.152260180901     1.007825032230
         H           -5.028557104676    -1.638769312011    -0.055729180901     1.007825032230
         H           -5.299317104676    -0.014825312011     0.387090819099     1.007825032230

  Basis Set: AUG-CC-PVTZ
    Blend: AUG-CC-PVTZ
  Basis Set: (AUG-CC-PVTZ AUX)
    Blend: AUG-CC-PVTZ-JKFIT
	 Reference Energy          =    -811.4789329320512934 [Eh]
	 Singles Energy            =      -0.0000000000000000 [Eh]
	 Same-Spin Energy          =      -0.8296744411524827 [Eh]
	 Opposite-Spin Energy      =      -2.5248416643898697 [Eh]
	 Correlation Energy        =      -3.3545161055423525 [Eh]
	 Total Energy              =    -814.8334490375935957 [Eh]

	 ================> DF-SCS-MP2 Energies <==================
	-----------------------------------------------------------
	 SCS Same-Spin Scale       =       0.3333333333333333 [-]
	 SCS Opposite-Spin Scale   =       1.2000000000000000 [-]
	 SCS Same-Spin Energy      =      -0.2765581470508275 [Eh]
	 SCS Opposite-Spin Energy  =      -3.0298099972678436 [Eh]
	 SCS Correlation Energy    =      -3.3063681443186712 [Eh]
	 SCS Total Energy          =    -814.7853010763699331 [Eh]
	-----------------------------------------------------------

  Dipole Moment: [D]
     X:     1.1023      Y:    -4.6044      Z:     2.4395     Total:     5.3260

*** Psi4 exiting successfully. Buy a developer a beer!
