                               Psi4 1.3.2 release

  ==> Input File <==

--------------------------------------------------------------------------
#psi4
#
memory 32 gb

molecule  {
0 1
  O        1.3620710    -0.3800110    -0.9318440
  O        3.2020570     1.9012130    -0.2995130
  O        2.7994070    -2.7489470    -0.4002010
  O       -1.3621860     2.3740050     0.1547830
  N       -0.7982440     0.1994180    -0.2292560
  N       -3.0541720     0.8052390     0.2400120
  N       -4.6734100    -0.8124350     0.4126370
  C        2.7015950     0.8755540     0.5594740
  C        1.2368440     1.1072260     0.8878520
  C        2.6518190    -0.3922910    -0.2854700
  C        0.5739580     0.6830040    -0.4149160
  C        2.8020980    -1.6600160     0.5224700
  C       -1.1273370    -1.1158190    -0.3082760
  C       -1.6108952     1.0618959     0.0380383
  C       -2.4173070    -1.5045610    -0.1045420
  C       -3.3619920    -0.4731600     0.1685110
  H        3.3343810     0.7567850     1.4508530
  H        0.9047070     0.4438290     1.6934890
  H        0.9853290     2.1340670     1.1581470
  H        0.5274540     1.5132540    -1.1249130
  H        3.4174920    -0.3642830    -1.0666260
  H        1.9707490    -1.7331840     1.2432230
  H        3.7460890    -1.6095150     1.0882890
  H        3.1038510     2.7463240     0.1779830
  H       -0.3107400    -1.7892010    -0.5436980
  H        2.9100300    -3.5650720     0.1192120
  H       -2.7034680    -2.5490840    -0.1532500
  H       -5.0287110    -1.6377420    -0.0567190
  H       -5.2994710    -0.0137980     0.3861010
units angstrom
no_reorient  #important for SAPT in psi4, default
symmetry c1  #important for SAPT in psi4, default
}

set PROPERTIES_ORIGIN ["COM"]
properties('MP2/aug-cc-pvtz', properties = ['dipole'])
--------------------------------------------------------------------------

    Molecular point group: c1
  Charge       = 0
  Multiplicity = 1
  Basis Set: AUG-CC-PVTZ
    Blend: AUG-CC-PVTZ
  Basis Set: (AUG-CC-PVTZ AUX)
    Blend: AUG-CC-PVTZ-JKFIT

    Orbital Energies [Eh]
    ---------------------

    Doubly Occupied:

       1A    -20.581472     2A    -20.580112     3A    -20.577091
       4A    -20.474054     5A    -15.640498     6A    -15.586090
       7A    -15.551903     8A    -11.357517     9A    -11.341448
      10A    -11.336677    11A    -11.325340    12A    -11.304804
      13A    -11.300951    14A    -11.297956    15A    -11.257130
      16A    -11.241807    17A     -1.433093    18A     -1.393839
      19A     -1.377026    20A     -1.367672    21A     -1.274522
      22A     -1.248120    23A     -1.155847    24A     -1.086857
      25A     -1.075971    26A     -1.047294    27A     -0.942867
      28A     -0.934556    29A     -0.871849    30A     -0.824784
      31A     -0.813080    32A     -0.761519    33A     -0.749061
      34A     -0.727976    35A     -0.707395    36A     -0.699210
      37A     -0.693592    38A     -0.678226    39A     -0.662838
      40A     -0.643997    41A     -0.641994    42A     -0.621384
      43A     -0.607163    44A     -0.600049    45A     -0.585830
      46A     -0.573942    47A     -0.550702    48A     -0.540948
      49A     -0.535858    50A     -0.520828    51A     -0.512340
      52A     -0.490504    53A     -0.472824    54A     -0.466339
      55A     -0.447581    56A     -0.445832    57A     -0.438077
      58A     -0.396385    59A     -0.384302    60A     -0.338081

  @DF-RHF Final Energy:  -811.41829404767122

   => Energetics <=

    Nuclear Repulsion Energy =           1172.7009350497166906
    One-Electron Energy =               -3440.0444548931959616
    Two-Electron Energy =                1455.9252257958078189
    Total Energy =                       -811.4182940476712247
  Basis Set: (AUG-CC-PVTZ AUX)
    Blend: AUG-CC-PVTZ-RI
    Molecular point group: c1

    Geometry (in Angstrom), charge = 0, multiplicity = 1:

       Center              X                  Y                   Z               Mass
    ------------   -----------------  -----------------  -----------------  -----------------
         O            1.355001058875    -0.372507630236    -0.929518548578    15.994914619570
         O            3.194987058875     1.908716369764    -0.297187548578    15.994914619570
         O            2.792337058875    -2.741443630236    -0.397875548578    15.994914619570
         O           -1.369255941125     2.381508369764     0.157108451422    15.994914619570
         N           -0.805313941125     0.206921369764    -0.226930548578    14.003074004430
         N           -3.061241941125     0.812742369764     0.242337451422    14.003074004430
         N           -4.680479941125    -0.804931630236     0.414962451422    14.003074004430
         C            2.694525058875     0.883057369764     0.561799451422    12.000000000000
         C            1.229774058875     1.114729369764     0.890177451422    12.000000000000
         C            2.644749058875    -0.384787630236    -0.283144548578    12.000000000000
         C            0.566888058875     0.690507369764    -0.412590548578    12.000000000000
         C            2.795028058875    -1.652512630236     0.524795451422    12.000000000000
         C           -1.134406941125    -1.108315630236    -0.305950548578    12.000000000000
         C           -1.617965141125     1.069399269764     0.040363751422    12.000000000000
         C           -2.424376941125    -1.497057630236    -0.102216548578    12.000000000000
         C           -3.369061941125    -0.465656630236     0.170836451422    12.000000000000
         H            3.327311058875     0.764288369764     1.453178451422     1.007825032230
         H            0.897637058875     0.451332369764     1.695814451422     1.007825032230
         H            0.978259058875     2.141570369764     1.160472451422     1.007825032230
         H            0.520384058875     1.520757369764    -1.122587548578     1.007825032230
         H            3.410422058875    -0.356779630236    -1.064300548578     1.007825032230
         H            1.963679058875    -1.725680630236     1.245548451422     1.007825032230
         H            3.739019058875    -1.602011630236     1.090614451422     1.007825032230
         H            3.096781058875     2.753827369764     0.180308451422     1.007825032230
         H           -0.317809941125    -1.781697630236    -0.541372548578     1.007825032230
         H            2.902960058875    -3.557568630236     0.121537451422     1.007825032230
         H           -2.710537941125    -2.541580630236    -0.150924548578     1.007825032230
         H           -5.035780941125    -1.630238630236    -0.054393548578     1.007825032230
         H           -5.306540941125    -0.006294630236     0.388426451422     1.007825032230

  Basis Set: AUG-CC-PVTZ
    Blend: AUG-CC-PVTZ
  Basis Set: (AUG-CC-PVTZ AUX)
    Blend: AUG-CC-PVTZ-JKFIT
	 Reference Energy          =    -811.4182940476712247 [Eh]
	 Singles Energy            =      -0.0000000000000000 [Eh]
	 Same-Spin Energy          =      -0.8319628286108351 [Eh]
	 Opposite-Spin Energy      =      -2.5317274246979276 [Eh]
	 Correlation Energy        =      -3.3636902533087625 [Eh]
	 Total Energy              =    -814.7819843009799570 [Eh]

	 ================> DF-SCS-MP2 Energies <==================
	-----------------------------------------------------------
	 SCS Same-Spin Scale       =       0.3333333333333333 [-]
	 SCS Opposite-Spin Scale   =       1.2000000000000000 [-]
	 SCS Same-Spin Energy      =      -0.2773209428702784 [Eh]
	 SCS Opposite-Spin Energy  =      -3.0380729096375130 [Eh]
	 SCS Correlation Energy    =      -3.3153938525077913 [Eh]
	 SCS Total Energy          =    -814.7336879001790066 [Eh]
	-----------------------------------------------------------

  Dipole Moment: [D]
     X:     1.5211      Y:    -5.7689      Z:     2.3210     Total:     6.4016

*** Psi4 exiting successfully. Buy a developer a beer!
