                               Psi4 1.3.2 release

  ==> Input File <==

--------------------------------------------------------------------------
#psi4
#
memory 32 gb

molecule  {
0 1
  O        1.3620710    -0.3800110    -0.9318440
  O        3.2020570     1.9012130    -0.2995130
  O        2.7994070    -2.7489470    -0.4002010
  O       -1.3621860     2.3740050     0.1547830
  N       -0.7982440     0.1994180    -0.2292560
  N       -3.0541720     0.8052390     0.2400120
  N       -4.6734100    -0.8124350     0.4126370
  C        2.7015950     0.8755540     0.5594740
  C        1.2368440     1.1072260     0.8878520
  C        2.6518190    -0.3922910    -0.2854700
  C        0.4804021     0.6500334    -0.4022578
  C        2.8020980    -1.6600160     0.5224700
  C       -1.1273370    -1.1158190    -0.3082760
  C       -1.7446880     1.2038920     0.0820450
  C       -2.4173070    -1.5045610    -0.1045420
  C       -3.3619920    -0.4731600     0.1685110
  H        3.3343810     0.7567850     1.4508530
  H        0.9047070     0.4438290     1.6934890
  H        0.9853290     2.1340670     1.1581470
  H        0.5274540     1.5132540    -1.1249130
  H        3.4174920    -0.3642830    -1.0666260
  H        1.9707490    -1.7331840     1.2432230
  H        3.7460890    -1.6095150     1.0882890
  H        3.1038510     2.7463240     0.1779830
  H       -0.3107400    -1.7892010    -0.5436980
  H        2.9100300    -3.5650720     0.1192120
  H       -2.7034680    -2.5490840    -0.1532500
  H       -5.0287110    -1.6377420    -0.0567190
  H       -5.2994710    -0.0137980     0.3861010
units angstrom
no_reorient  #important for SAPT in psi4, default
symmetry c1  #important for SAPT in psi4, default
}

set PROPERTIES_ORIGIN ["COM"]
properties('MP2/aug-cc-pvtz', properties = ['dipole'])
--------------------------------------------------------------------------

    Molecular point group: c1
  Charge       = 0
  Multiplicity = 1
  Basis Set: AUG-CC-PVTZ
    Blend: AUG-CC-PVTZ
  Basis Set: (AUG-CC-PVTZ AUX)
    Blend: AUG-CC-PVTZ-JKFIT

    Orbital Energies [Eh]
    ---------------------

    Doubly Occupied:

       1A    -20.575477     2A    -20.570696     3A    -20.564502
       4A    -20.508518     5A    -15.627858     6A    -15.592067
       7A    -15.545553     8A    -11.375753     9A    -11.349578
      10A    -11.328343    11A    -11.323354    12A    -11.297456
      13A    -11.294001    14A    -11.289437    15A    -11.242289
      16A    -11.234786    17A     -1.411878    18A     -1.385500
      19A     -1.370627    20A     -1.359752    21A     -1.300089
      22A     -1.274871    23A     -1.176096    24A     -1.082082
      25A     -1.065368    26A     -1.021749    27A     -0.932290
      28A     -0.904173    29A     -0.874471    30A     -0.829860
      31A     -0.802005    32A     -0.761238    33A     -0.741991
      34A     -0.716998    35A     -0.710166    36A     -0.690589
      37A     -0.685396    38A     -0.676898    39A     -0.659339
      40A     -0.636096    41A     -0.629527    42A     -0.622004
      43A     -0.607730    44A     -0.594014    45A     -0.589712
      46A     -0.577309    47A     -0.561984    48A     -0.543093
      49A     -0.533514    50A     -0.518921    51A     -0.504722
      52A     -0.480547    53A     -0.478066    54A     -0.465326
      55A     -0.459361    56A     -0.446689    57A     -0.431908
      58A     -0.422696    59A     -0.384451    60A     -0.338278

  @DF-RHF Final Energy:  -811.46773979087891

   => Energetics <=

    Nuclear Repulsion Energy =           1170.4870708546657170
    One-Electron Energy =               -3435.9515371082738966
    Two-Electron Energy =                1453.9967264627296117
    Total Energy =                       -811.4677397908787952
  Basis Set: (AUG-CC-PVTZ AUX)
    Blend: AUG-CC-PVTZ-RI
    Molecular point group: c1

    Geometry (in Angstrom), charge = 0, multiplicity = 1:

       Center              X                  Y                   Z               Mass
    ------------   -----------------  -----------------  -----------------  -----------------
         O            1.367014697172    -0.378268793252    -0.932512854738    15.994914619570
         O            3.207000697172     1.902955206748    -0.300181854738    15.994914619570
         O            2.804350697172    -2.747204793252    -0.400869854738    15.994914619570
         O           -1.357242302828     2.375747206748     0.154114145262    15.994914619570
         N           -0.793300302828     0.201160206748    -0.229924854738    14.003074004430
         N           -3.049228302828     0.806981206748     0.239343145262    14.003074004430
         N           -4.668466302828    -0.810692793252     0.411968145262    14.003074004430
         C            2.706538697172     0.877296206748     0.558805145262    12.000000000000
         C            1.241787697172     1.108968206748     0.887183145262    12.000000000000
         C            2.656762697172    -0.390548793252    -0.286138854738    12.000000000000
         C            0.485345797172     0.651775606748    -0.402926654738    12.000000000000
         C            2.807041697172    -1.658273793252     0.521801145262    12.000000000000
         C           -1.122393302828    -1.114076793252    -0.308944854738    12.000000000000
         C           -1.739744302828     1.205634206748     0.081376145262    12.000000000000
         C           -2.412363302828    -1.502818793252    -0.105210854738    12.000000000000
         C           -3.357048302828    -0.471417793252     0.167842145262    12.000000000000
         H            3.339324697172     0.758527206748     1.450184145262     1.007825032230
         H            0.909650697172     0.445571206748     1.692820145262     1.007825032230
         H            0.990272697172     2.135809206748     1.157478145262     1.007825032230
         H            0.532397697172     1.514996206748    -1.125581854738     1.007825032230
         H            3.422435697172    -0.362540793252    -1.067294854738     1.007825032230
         H            1.975692697172    -1.731441793252     1.242554145262     1.007825032230
         H            3.751032697172    -1.607772793252     1.087620145262     1.007825032230
         H            3.108794697172     2.748066206748     0.177314145262     1.007825032230
         H           -0.305796302828    -1.787458793252    -0.544366854738     1.007825032230
         H            2.914973697172    -3.563329793252     0.118543145262     1.007825032230
         H           -2.698524302828    -2.547341793252    -0.153918854738     1.007825032230
         H           -5.023767302828    -1.635999793252    -0.057387854738     1.007825032230
         H           -5.294527302828    -0.012055793252     0.385432145262     1.007825032230

  Basis Set: AUG-CC-PVTZ
    Blend: AUG-CC-PVTZ
  Basis Set: (AUG-CC-PVTZ AUX)
    Blend: AUG-CC-PVTZ-JKFIT
	 Reference Energy          =    -811.4677397908789089 [Eh]
	 Singles Energy            =      -0.0000000000000000 [Eh]
	 Same-Spin Energy          =      -0.8303500300054696 [Eh]
	 Opposite-Spin Energy      =      -2.5263504564204218 [Eh]
	 Correlation Energy        =      -3.3567004864258916 [Eh]
	 Total Energy              =    -814.8244402773048023 [Eh]

	 ================> DF-SCS-MP2 Energies <==================
	-----------------------------------------------------------
	 SCS Same-Spin Scale       =       0.3333333333333333 [-]
	 SCS Opposite-Spin Scale   =       1.2000000000000000 [-]
	 SCS Same-Spin Energy      =      -0.2767833433351565 [Eh]
	 SCS Opposite-Spin Energy  =      -3.0316205477045060 [Eh]
	 SCS Correlation Energy    =      -3.3084038910396627 [Eh]
	 SCS Total Energy          =    -814.7761436819185974 [Eh]
	-----------------------------------------------------------

  Dipole Moment: [D]
     X:     0.4808      Y:    -4.7334      Z:     2.5153     Total:     5.3817

*** Psi4 exiting successfully. Buy a developer a beer!
