                               Psi4 1.3.2 release

  ==> Input File <==

--------------------------------------------------------------------------
#psi4
#
memory 32 gb

molecule  {
0 1
  O        1.3620710    -0.3800110    -0.9318440
  O        3.2020570     1.9012130    -0.2995130
  O        2.7994070    -2.7489470    -0.4002010
  O       -1.3621860     2.3740050     0.1547830
  N       -0.7982440     0.1994180    -0.2292560
  N       -3.0541720     0.8052390     0.2400120
  N       -4.6552201    -0.8815773     0.4036248
  C        2.7015950     0.8755540     0.5594740
  C        1.2368440     1.1072260     0.8878520
  C        2.6518190    -0.3922910    -0.2854700
  C        0.5739580     0.6830040    -0.4149160
  C        2.8020980    -1.6600160     0.5224700
  C       -1.1273370    -1.1158190    -0.3082760
  C       -1.7446880     1.2038920     0.0820450
  C       -2.4723891    -1.5543122    -0.0969929
  C       -3.3619920    -0.4731600     0.1685110
  H        3.3343810     0.7567850     1.4508530
  H        0.9047070     0.4438290     1.6934890
  H        0.9853290     2.1340670     1.1581470
  H        0.5274540     1.5132540    -1.1249130
  H        3.4174920    -0.3642830    -1.0666260
  H        1.9707490    -1.7331840     1.2432230
  H        3.7460890    -1.6095150     1.0882890
  H        3.1038510     2.7463240     0.1779830
  H       -0.3107400    -1.7892010    -0.5436980
  H        2.9100300    -3.5650720     0.1192120
  H       -2.7034680    -2.5490840    -0.1532500
  H       -5.0287110    -1.6377420    -0.0567190
  H       -5.2994710    -0.0137980     0.3861010
units angstrom
no_reorient  #important for SAPT in psi4, default
symmetry c1  #important for SAPT in psi4, default
}

set PROPERTIES_ORIGIN ["COM"]
properties('MP2/aug-cc-pvtz', properties = ['dipole'])
--------------------------------------------------------------------------

    Molecular point group: c1
  Charge       = 0
  Multiplicity = 1
  Basis Set: AUG-CC-PVTZ
    Blend: AUG-CC-PVTZ
  Basis Set: (AUG-CC-PVTZ AUX)
    Blend: AUG-CC-PVTZ-JKFIT

    Orbital Energies [Eh]
    ---------------------

    Doubly Occupied:

       1A    -20.578470     2A    -20.575570     3A    -20.574562
       4A    -20.505679     5A    -15.628283     6A    -15.584556
       7A    -15.542737     8A    -11.372918     9A    -11.344238
      10A    -11.333463    11A    -11.328559    12A    -11.302261
      13A    -11.297759    14A    -11.294325    15A    -11.238724
      16A    -11.235458    17A     -1.418497    18A     -1.384299
      19A     -1.374508    20A     -1.367025    21A     -1.290940
      22A     -1.261594    23A     -1.171368    24A     -1.078144
      25A     -1.062827    26A     -1.026898    27A     -0.928323
      28A     -0.900019    29A     -0.871109    30A     -0.833540
      31A     -0.806577    32A     -0.746594    33A     -0.742129
      34A     -0.723127    35A     -0.711527    36A     -0.694349
      37A     -0.691801    38A     -0.673891    39A     -0.661927
      40A     -0.644085    41A     -0.628119    42A     -0.618029
      43A     -0.604831    44A     -0.593180    45A     -0.584797
      46A     -0.570074    47A     -0.564033    48A     -0.545652
      49A     -0.532962    50A     -0.526025    51A     -0.511584
      52A     -0.487127    53A     -0.481144    54A     -0.469231
      55A     -0.461773    56A     -0.446246    57A     -0.438656
      58A     -0.418431    59A     -0.385235    60A     -0.329140

  @DF-RHF Final Energy:  -811.46086985648265

   => Energetics <=

    Nuclear Repulsion Energy =           1168.4155287436892650
    One-Electron Energy =               -3431.7549371392306057
    Two-Electron Energy =                1451.8785385390585816
    Total Energy =                       -811.4608698564827591
  Basis Set: (AUG-CC-PVTZ AUX)
    Blend: AUG-CC-PVTZ-RI
    Molecular point group: c1

    Geometry (in Angstrom), charge = 0, multiplicity = 1:

       Center              X                  Y                   Z               Mass
    ------------   -----------------  -----------------  -----------------  -----------------
         O            1.363860008703    -0.373118549634    -0.931687159184    15.994914619570
         O            3.203846008703     1.908105450366    -0.299356159184    15.994914619570
         O            2.801196008703    -2.742054549634    -0.400044159184    15.994914619570
         O           -1.360396991297     2.380897450366     0.154939840816    15.994914619570
         N           -0.796454991297     0.206310450366    -0.229099159184    14.003074004430
         N           -3.052382991297     0.812131450366     0.240168840816    14.003074004430
         N           -4.653431091297    -0.874684849634     0.403781640816    14.003074004430
         C            2.703384008703     0.882446450366     0.559630840816    12.000000000000
         C            1.238633008703     1.114118450366     0.888008840816    12.000000000000
         C            2.653608008703    -0.385398549634    -0.285313159184    12.000000000000
         C            0.575747008703     0.689896450366    -0.414759159184    12.000000000000
         C            2.803887008703    -1.653123549634     0.522626840816    12.000000000000
         C           -1.125547991297    -1.108926549634    -0.308119159184    12.000000000000
         C           -1.742898991297     1.210784450366     0.082201840816    12.000000000000
         C           -2.470600091297    -1.547419749634    -0.096836059184    12.000000000000
         C           -3.360202991297    -0.466267549634     0.168667840816    12.000000000000
         H            3.336170008703     0.763677450366     1.451009840816     1.007825032230
         H            0.906496008703     0.450721450366     1.693645840816     1.007825032230
         H            0.987118008703     2.140959450366     1.158303840816     1.007825032230
         H            0.529243008703     1.520146450366    -1.124756159184     1.007825032230
         H            3.419281008703    -0.357390549634    -1.066469159184     1.007825032230
         H            1.972538008703    -1.726291549634     1.243379840816     1.007825032230
         H            3.747878008703    -1.602622549634     1.088445840816     1.007825032230
         H            3.105640008703     2.753216450366     0.178139840816     1.007825032230
         H           -0.308950991297    -1.782308549634    -0.543541159184     1.007825032230
         H            2.911819008703    -3.558179549634     0.119368840816     1.007825032230
         H           -2.701678991297    -2.542191549634    -0.153093159184     1.007825032230
         H           -5.026921991297    -1.630849549634    -0.056562159184     1.007825032230
         H           -5.297681991297    -0.006905549634     0.386257840816     1.007825032230

  Basis Set: AUG-CC-PVTZ
    Blend: AUG-CC-PVTZ
  Basis Set: (AUG-CC-PVTZ AUX)
    Blend: AUG-CC-PVTZ-JKFIT
	 Reference Energy          =    -811.4608698564826454 [Eh]
	 Singles Energy            =      -0.0000000000000000 [Eh]
	 Same-Spin Energy          =      -0.8303782939930501 [Eh]
	 Opposite-Spin Energy      =      -2.5268173004812535 [Eh]
	 Correlation Energy        =      -3.3571955944743035 [Eh]
	 Total Energy              =    -814.8180654509569649 [Eh]

	 ================> DF-SCS-MP2 Energies <==================
	-----------------------------------------------------------
	 SCS Same-Spin Scale       =       0.3333333333333333 [-]
	 SCS Opposite-Spin Scale   =       1.2000000000000000 [-]
	 SCS Same-Spin Energy      =      -0.2767927646643500 [Eh]
	 SCS Opposite-Spin Energy  =      -3.0321807605775040 [Eh]
	 SCS Correlation Energy    =      -3.3089735252418540 [Eh]
	 SCS Total Energy          =    -814.7698433817245132 [Eh]
	-----------------------------------------------------------

  Dipole Moment: [D]
     X:     1.2595      Y:    -4.5353      Z:     2.4694     Total:     5.3154

*** Psi4 exiting successfully. Buy a developer a beer!
