                               Psi4 1.3.2 release

  ==> Input File <==

--------------------------------------------------------------------------
#psi4
#
memory 32 gb

molecule  {
0 1
  O        1.3620710    -0.3800110    -0.9318440
  O        3.2020570     1.9012130    -0.2995130
  O        2.7994070    -2.7489470    -0.4002010
  O       -1.3621860     2.3740050     0.1547830
  N       -0.7982440     0.1994180    -0.2292560
  N       -3.0541720     0.8052390     0.2400120
  N       -4.6734100    -0.8124350     0.4126370
  C        2.7015950     0.8755540     0.5594740
  C        1.2368440     1.1072260     0.8878520
  C        2.6518190    -0.3922910    -0.2854700
  C        0.4630095     0.8326525    -0.3421442
  C        2.8020980    -1.6600160     0.5224700
  C       -1.1273370    -1.1158190    -0.3082760
  C       -1.7446880     1.2038920     0.0820450
  C       -2.4173070    -1.5045610    -0.1045420
  C       -3.3619920    -0.4731600     0.1685110
  H        3.3343810     0.7567850     1.4508530
  H        0.9047070     0.4438290     1.6934890
  H        0.9853290     2.1340670     1.1581470
  H        0.5274540     1.5132540    -1.1249130
  H        3.4174920    -0.3642830    -1.0666260
  H        1.9707490    -1.7331840     1.2432230
  H        3.7460890    -1.6095150     1.0882890
  H        3.1038510     2.7463240     0.1779830
  H       -0.3107400    -1.7892010    -0.5436980
  H        2.9100300    -3.5650720     0.1192120
  H       -2.7034680    -2.5490840    -0.1532500
  H       -5.0287110    -1.6377420    -0.0567190
  H       -5.2994710    -0.0137980     0.3861010
units angstrom
no_reorient  #important for SAPT in psi4, default
symmetry c1  #important for SAPT in psi4, default
}

set PROPERTIES_ORIGIN ["COM"]
properties('MP2/aug-cc-pvtz', properties = ['dipole'])
--------------------------------------------------------------------------

    Molecular point group: c1
  Charge       = 0
  Multiplicity = 1
  Basis Set: AUG-CC-PVTZ
    Blend: AUG-CC-PVTZ
  Basis Set: (AUG-CC-PVTZ AUX)
    Blend: AUG-CC-PVTZ-JKFIT

    Orbital Energies [Eh]
    ---------------------

    Doubly Occupied:

       1A    -20.572447     2A    -20.570680     3A    -20.545278
       4A    -20.512886     5A    -15.630471     6A    -15.592863
       7A    -15.545319     8A    -11.376126     9A    -11.350581
      10A    -11.338193    11A    -11.325745    12A    -11.299101
      13A    -11.288163    14A    -11.278450    15A    -11.243337
      16A    -11.240003    17A     -1.403387    18A     -1.379618
      19A     -1.367353    20A     -1.335427    21A     -1.297458
      22A     -1.268553    23A     -1.175869    24A     -1.090071
      25A     -1.063118    26A     -1.024941    27A     -0.934277
      28A     -0.900204    29A     -0.873051    30A     -0.833301
      31A     -0.795336    32A     -0.759147    33A     -0.745047
      34A     -0.713850    35A     -0.710230    36A     -0.696101
      37A     -0.680241    38A     -0.673448    39A     -0.651921
      40A     -0.636962    41A     -0.632628    42A     -0.620335
      43A     -0.605210    44A     -0.591057    45A     -0.588175
      46A     -0.581727    47A     -0.549537    48A     -0.535614
      49A     -0.531452    50A     -0.520121    51A     -0.508194
      52A     -0.485105    53A     -0.471124    54A     -0.459133
      55A     -0.458684    56A     -0.445720    57A     -0.429994
      58A     -0.420416    59A     -0.390366    60A     -0.343495

  @DF-RHF Final Energy:  -811.44426444227963

   => Energetics <=

    Nuclear Repulsion Energy =           1168.8150641612487561
    One-Electron Energy =               -3432.7453713469085415
    Two-Electron Energy =                1452.4860427433800396
    Total Energy =                       -811.4442644422797457
  Basis Set: (AUG-CC-PVTZ AUX)
    Blend: AUG-CC-PVTZ-RI
    Molecular point group: c1

    Geometry (in Angstrom), charge = 0, multiplicity = 1:

       Center              X                  Y                   Z               Mass
    ------------   -----------------  -----------------  -----------------  -----------------
         O            1.367933762930    -0.387918814622    -0.935689398290    15.994914619570
         O            3.207919762930     1.893305185378    -0.303358398290    15.994914619570
         O            2.805269762930    -2.756854814622    -0.404046398290    15.994914619570
         O           -1.356323237070     2.366097185378     0.150937601710    15.994914619570
         N           -0.792381237070     0.191510185378    -0.233101398290    14.003074004430
         N           -3.048309237070     0.797331185378     0.236166601710    14.003074004430
         N           -4.667547237070    -0.820342814622     0.408791601710    14.003074004430
         C            2.707457762930     0.867646185378     0.555628601710    12.000000000000
         C            1.242706762930     1.099318185378     0.884006601710    12.000000000000
         C            2.657681762930    -0.400198814622    -0.289315398290    12.000000000000
         C            0.468872262930     0.824744685378    -0.345989598290    12.000000000000
         C            2.807960762930    -1.667923814622     0.518624601710    12.000000000000
         C           -1.121474237070    -1.123726814622    -0.312121398290    12.000000000000
         C           -1.738825237070     1.195984185378     0.078199601710    12.000000000000
         C           -2.411444237070    -1.512468814622    -0.108387398290    12.000000000000
         C           -3.356129237070    -0.481067814622     0.164665601710    12.000000000000
         H            3.340243762930     0.748877185378     1.447007601710     1.007825032230
         H            0.910569762930     0.435921185378     1.689643601710     1.007825032230
         H            0.991191762930     2.126159185378     1.154301601710     1.007825032230
         H            0.533316762930     1.505346185378    -1.128758398290     1.007825032230
         H            3.423354762930    -0.372190814622    -1.070471398290     1.007825032230
         H            1.976611762930    -1.741091814622     1.239377601710     1.007825032230
         H            3.751951762930    -1.617422814622     1.084443601710     1.007825032230
         H            3.109713762930     2.738416185378     0.174137601710     1.007825032230
         H           -0.304877237070    -1.797108814622    -0.547543398290     1.007825032230
         H            2.915892762930    -3.572979814622     0.115366601710     1.007825032230
         H           -2.697605237070    -2.556991814622    -0.157095398290     1.007825032230
         H           -5.022848237070    -1.645649814622    -0.060564398290     1.007825032230
         H           -5.293608237070    -0.021705814622     0.382255601710     1.007825032230

  Basis Set: AUG-CC-PVTZ
    Blend: AUG-CC-PVTZ
  Basis Set: (AUG-CC-PVTZ AUX)
    Blend: AUG-CC-PVTZ-JKFIT
	 Reference Energy          =    -811.4442644422796320 [Eh]
	 Singles Energy            =      -0.0000000000000000 [Eh]
	 Same-Spin Energy          =      -0.8318822044441612 [Eh]
	 Opposite-Spin Energy      =      -2.5308265598746726 [Eh]
	 Correlation Energy        =      -3.3627087643188336 [Eh]
	 Total Energy              =    -814.8069732065985136 [Eh]

	 ================> DF-SCS-MP2 Energies <==================
	-----------------------------------------------------------
	 SCS Same-Spin Scale       =       0.3333333333333333 [-]
	 SCS Opposite-Spin Scale   =       1.2000000000000000 [-]
	 SCS Same-Spin Energy      =      -0.2772940681480537 [Eh]
	 SCS Opposite-Spin Energy  =      -3.0369918718496072 [Eh]
	 SCS Correlation Energy    =      -3.3142859399976610 [Eh]
	 SCS Total Energy          =    -814.7585503822773489 [Eh]
	-----------------------------------------------------------

  Dipole Moment: [D]
     X:     0.1777      Y:    -4.3094      Z:     2.6557     Total:     5.0651

*** Psi4 exiting successfully. Buy a developer a beer!
