                               Psi4 1.3.2 release

  ==> Input File <==

--------------------------------------------------------------------------
#psi4
#
memory 32 gb

molecule  {
0 1
  O        1.3620710    -0.3800110    -0.9318440
  O        3.2020570     1.9012130    -0.2995130
  O        2.7994070    -2.7489470    -0.4002010
  O       -1.3621860     2.3740050     0.1547830
  N       -0.7982440     0.1994180    -0.2292560
  N       -3.0541720     0.8052390     0.2400120
  N       -4.6734100    -0.8124350     0.4126370
  C        2.7015950     0.8755540     0.5594740
  C        1.2368440     1.1072260     0.8878520
  C        2.6518190    -0.3922910    -0.2854700
  C        0.5739580     0.6830040    -0.4149160
  C        2.8020980    -1.6600160     0.5224700
  C       -1.1273370    -1.1158190    -0.3082760
  C       -1.7446880     1.2038920     0.0820450
  C       -2.4173070    -1.5045610    -0.1045420
  C       -3.3609558    -0.4826362     0.1612032
  H        3.3343810     0.7567850     1.4508530
  H        0.9047070     0.4438290     1.6934890
  H        0.9853290     2.1340670     1.1581470
  H        0.5274540     1.5132540    -1.1249130
  H        3.4174920    -0.3642830    -1.0666260
  H        1.9707490    -1.7331840     1.2432230
  H        3.7460890    -1.6095150     1.0882890
  H        3.1038510     2.7463240     0.1779830
  H       -0.3107400    -1.7892010    -0.5436980
  H        2.9100300    -3.5650720     0.1192120
  H       -2.7034680    -2.5490840    -0.1532500
  H       -5.0208191    -1.6389197    -0.0605389
  H       -5.2994710    -0.0137980     0.3861010
units angstrom
no_reorient  #important for SAPT in psi4, default
symmetry c1  #important for SAPT in psi4, default
}

set PROPERTIES_ORIGIN ["COM"]
properties('MP2/aug-cc-pvtz', properties = ['dipole'])
--------------------------------------------------------------------------

    Molecular point group: c1
  Charge       = 0
  Multiplicity = 1
  Basis Set: AUG-CC-PVTZ
    Blend: AUG-CC-PVTZ
  Basis Set: (AUG-CC-PVTZ AUX)
    Blend: AUG-CC-PVTZ-JKFIT

    Orbital Energies [Eh]
    ---------------------

    Doubly Occupied:

       1A    -20.577928     2A    -20.574417     3A    -20.573089
       4A    -20.502045     5A    -15.622384     6A    -15.588678
       7A    -15.540450     8A    -11.368874     9A    -11.344975
      10A    -11.330918    11A    -11.319614    12A    -11.300963
      13A    -11.297032    14A    -11.293227    15A    -11.236897
      16A    -11.236892    17A     -1.416809    18A     -1.381882
      19A     -1.373714    20A     -1.365695    21A     -1.291501
      22A     -1.261235    23A     -1.167084    24A     -1.079500
      25A     -1.069639    26A     -1.028627    27A     -0.927268
      28A     -0.898429    29A     -0.867895    30A     -0.830555
      31A     -0.806623    32A     -0.754598    33A     -0.739090
      34A     -0.721085    35A     -0.706485    36A     -0.693047
      37A     -0.689002    38A     -0.675465    39A     -0.656788
      40A     -0.637005    41A     -0.627470    42A     -0.619359
      43A     -0.604521    44A     -0.595604    45A     -0.588267
      46A     -0.572709    47A     -0.568809    48A     -0.544912
      49A     -0.532395    50A     -0.523879    51A     -0.510503
      52A     -0.485999    53A     -0.481987    54A     -0.468663
      55A     -0.461212    56A     -0.443981    57A     -0.437928
      58A     -0.415904    59A     -0.382638    60A     -0.335304

  @DF-RHF Final Energy:  -811.47875800318150

   => Energetics <=

    Nuclear Repulsion Energy =           1169.9134708282992960
    One-Electron Energy =               -3434.8855602041394377
    Two-Electron Energy =                1453.4933313726587585
    Total Energy =                       -811.4787580031816105
  Basis Set: (AUG-CC-PVTZ AUX)
    Blend: AUG-CC-PVTZ-RI
    Molecular point group: c1

    Geometry (in Angstrom), charge = 0, multiplicity = 1:

       Center              X                  Y                   Z               Mass
    ------------   -----------------  -----------------  -----------------  -----------------
         O            1.361981204704    -0.379505065811    -0.931440851826    15.994914619570
         O            3.201967204704     1.901718934189    -0.299109851826    15.994914619570
         O            2.799317204704    -2.748441065811    -0.399797851826    15.994914619570
         O           -1.362275795296     2.374510934189     0.155186148174    15.994914619570
         N           -0.798333795296     0.199923934189    -0.228852851826    14.003074004430
         N           -3.054261795296     0.805744934189     0.240415148174    14.003074004430
         N           -4.673499795296    -0.811929065811     0.413040148174    14.003074004430
         C            2.701505204704     0.876059934189     0.559877148174    12.000000000000
         C            1.236754204704     1.107731934189     0.888255148174    12.000000000000
         C            2.651729204704    -0.391785065811    -0.285066851826    12.000000000000
         C            0.573868204704     0.683509934189    -0.414512851826    12.000000000000
         C            2.802008204704    -1.659510065811     0.522873148174    12.000000000000
         C           -1.127426795296    -1.115313065811    -0.307872851826    12.000000000000
         C           -1.744777795296     1.204397934189     0.082448148174    12.000000000000
         C           -2.417396795296    -1.504055065811    -0.104138851826    12.000000000000
         C           -3.361045595296    -0.482130265811     0.161606348174    12.000000000000
         H            3.334291204704     0.757290934189     1.451256148174     1.007825032230
         H            0.904617204704     0.444334934189     1.693892148174     1.007825032230
         H            0.985239204704     2.134572934189     1.158550148174     1.007825032230
         H            0.527364204704     1.513759934189    -1.124509851826     1.007825032230
         H            3.417402204704    -0.363777065811    -1.066222851826     1.007825032230
         H            1.970659204704    -1.732678065811     1.243626148174     1.007825032230
         H            3.745999204704    -1.609009065811     1.088692148174     1.007825032230
         H            3.103761204704     2.746829934189     0.178386148174     1.007825032230
         H           -0.310829795296    -1.788695065811    -0.543294851826     1.007825032230
         H            2.909940204704    -3.564566065811     0.119615148174     1.007825032230
         H           -2.703557795296    -2.548578065811    -0.152846851826     1.007825032230
         H           -5.020908895296    -1.638413765811    -0.060135751826     1.007825032230
         H           -5.299560795296    -0.013292065811     0.386504148174     1.007825032230

  Basis Set: AUG-CC-PVTZ
    Blend: AUG-CC-PVTZ
  Basis Set: (AUG-CC-PVTZ AUX)
    Blend: AUG-CC-PVTZ-JKFIT
	 Reference Energy          =    -811.4787580031814969 [Eh]
	 Singles Energy            =      -0.0000000000000000 [Eh]
	 Same-Spin Energy          =      -0.8298609751824466 [Eh]
	 Opposite-Spin Energy      =      -2.5253925767114009 [Eh]
	 Correlation Energy        =      -3.3552535518938473 [Eh]
	 Total Energy              =    -814.8340115550753353 [Eh]

	 ================> DF-SCS-MP2 Energies <==================
	-----------------------------------------------------------
	 SCS Same-Spin Scale       =       0.3333333333333333 [-]
	 SCS Opposite-Spin Scale   =       1.2000000000000000 [-]
	 SCS Same-Spin Energy      =      -0.2766203250608155 [Eh]
	 SCS Opposite-Spin Energy  =      -3.0304710920536810 [Eh]
	 SCS Correlation Energy    =      -3.3070914171144965 [Eh]
	 SCS Total Energy          =    -814.7858494202960173 [Eh]
	-----------------------------------------------------------

  Dipole Moment: [D]
     X:     1.1034      Y:    -4.7168      Z:     2.4762     Total:     5.4403

*** Psi4 exiting successfully. Buy a developer a beer!
