                               Psi4 1.3.2 release

  ==> Input File <==

--------------------------------------------------------------------------
#psi4
#
memory 32 gb

molecule  {
0 1
  O        1.3620710    -0.3800110    -0.9318440
  O        3.2020570     1.9012130    -0.2995130
  O        2.7994070    -2.7489470    -0.4002010
  O       -1.3621860     2.3740050     0.1547830
  N       -0.7982440     0.1994180    -0.2292560
  N       -3.0541720     0.8052390     0.2400120
  N       -4.6734100    -0.8124350     0.4126370
  C        2.7015950     0.8755540     0.5594740
  C        1.2368440     1.1072260     0.8878520
  C        2.6518190    -0.3922910    -0.2854700
  C        0.5575361     0.7305493    -0.4053900
  C        2.8020980    -1.6600160     0.5224700
  C       -1.1273370    -1.1158190    -0.3082760
  C       -1.7084902     1.2374209     0.0799922
  C       -2.4173070    -1.5045610    -0.1045420
  C       -3.3619920    -0.4731600     0.1685110
  H        3.3343810     0.7567850     1.4508530
  H        0.9047070     0.4438290     1.6934890
  H        0.9853290     2.1340670     1.1581470
  H        0.5274540     1.5132540    -1.1249130
  H        3.4174920    -0.3642830    -1.0666260
  H        1.9707490    -1.7331840     1.2432230
  H        3.7460890    -1.6095150     1.0882890
  H        3.1038510     2.7463240     0.1779830
  H       -0.3107400    -1.7892010    -0.5436980
  H        2.9100300    -3.5650720     0.1192120
  H       -2.7034680    -2.5490840    -0.1532500
  H       -5.0287110    -1.6377420    -0.0567190
  H       -5.2994710    -0.0137980     0.3861010
units angstrom
no_reorient  #important for SAPT in psi4, default
symmetry c1  #important for SAPT in psi4, default
}

set PROPERTIES_ORIGIN ["COM"]
properties('MP2/aug-cc-pvtz', properties = ['dipole'])
--------------------------------------------------------------------------

    Molecular point group: c1
  Charge       = 0
  Multiplicity = 1
  Basis Set: AUG-CC-PVTZ
    Blend: AUG-CC-PVTZ
  Basis Set: (AUG-CC-PVTZ AUX)
    Blend: AUG-CC-PVTZ-JKFIT

    Orbital Energies [Eh]
    ---------------------

    Doubly Occupied:

       1A    -20.576160     2A    -20.575421     3A    -20.567701
       4A    -20.516671     5A    -15.620210     6A    -15.584156
       7A    -15.536847     8A    -11.371494     9A    -11.339280
      10A    -11.331742    11A    -11.316804    12A    -11.301647
      13A    -11.295052    14A    -11.290025    15A    -11.239209
      16A    -11.234889    17A     -1.415489    18A     -1.396515
      19A     -1.372898    20A     -1.363090    21A     -1.295962
      22A     -1.259265    23A     -1.157355    24A     -1.080843
      25A     -1.066006    26A     -1.027494    27A     -0.926709
      28A     -0.896810    29A     -0.864821    30A     -0.827706
      31A     -0.804197    32A     -0.750448    33A     -0.737217
      34A     -0.719983    35A     -0.705731    36A     -0.693194
      37A     -0.688564    38A     -0.673740    39A     -0.653417
      40A     -0.638586    41A     -0.630740    42A     -0.625552
      43A     -0.605230    44A     -0.592444    45A     -0.588637
      46A     -0.575387    47A     -0.564586    48A     -0.542784
      49A     -0.533977    50A     -0.523022    51A     -0.518410
      52A     -0.488197    53A     -0.483422    54A     -0.467216
      55A     -0.462801    56A     -0.453752    57A     -0.440028
      58A     -0.409003    59A     -0.381163    60A     -0.334887

  @DF-RHF Final Energy:  -811.47288687883452

   => Energetics <=

    Nuclear Repulsion Energy =           1169.5708082288442711
    One-Electron Energy =               -3434.2182190245298443
    Two-Electron Energy =                1453.1745239168510579
    Total Energy =                       -811.4728868788345153
  Basis Set: (AUG-CC-PVTZ AUX)
    Blend: AUG-CC-PVTZ-RI
    Molecular point group: c1

    Geometry (in Angstrom), charge = 0, multiplicity = 1:

       Center              X                  Y                   Z               Mass
    ------------   -----------------  -----------------  -----------------  -----------------
         O            1.361025979168    -0.384295187847    -0.932238867182    15.994914619570
         O            3.201011979168     1.896928812153    -0.299907867182    15.994914619570
         O            2.798361979168    -2.753231187847    -0.400595867182    15.994914619570
         O           -1.363231020832     2.369720812153     0.154388132818    15.994914619570
         N           -0.799289020832     0.195133812153    -0.229650867182    14.003074004430
         N           -3.055217020832     0.800954812153     0.239617132818    14.003074004430
         N           -4.674455020832    -0.816719187847     0.412242132818    14.003074004430
         C            2.700549979168     0.871269812153     0.559079132818    12.000000000000
         C            1.235798979168     1.102941812153     0.887457132818    12.000000000000
         C            2.650773979168    -0.396575187847    -0.285864867182    12.000000000000
         C            0.556491079168     0.726265112153    -0.405784867182    12.000000000000
         C            2.801052979168    -1.664300187847     0.522075132818    12.000000000000
         C           -1.128382020832    -1.120103187847    -0.308670867182    12.000000000000
         C           -1.709535220832     1.233136712153     0.079597332818    12.000000000000
         C           -2.418352020832    -1.508845187847    -0.104936867182    12.000000000000
         C           -3.363037020832    -0.477444187847     0.168116132818    12.000000000000
         H            3.333335979168     0.752500812153     1.450458132818     1.007825032230
         H            0.903661979168     0.439544812153     1.693094132818     1.007825032230
         H            0.984283979168     2.129782812153     1.157752132818     1.007825032230
         H            0.526408979168     1.508969812153    -1.125307867182     1.007825032230
         H            3.416446979168    -0.368567187847    -1.067020867182     1.007825032230
         H            1.969703979168    -1.737468187847     1.242828132818     1.007825032230
         H            3.745043979168    -1.613799187847     1.087894132818     1.007825032230
         H            3.102805979168     2.742039812153     0.177588132818     1.007825032230
         H           -0.311785020832    -1.793485187847    -0.544092867182     1.007825032230
         H            2.908984979168    -3.569356187847     0.118817132818     1.007825032230
         H           -2.704513020832    -2.553368187847    -0.153644867182     1.007825032230
         H           -5.029756020832    -1.642026187847    -0.057113867182     1.007825032230
         H           -5.300516020832    -0.018082187847     0.385706132818     1.007825032230

  Basis Set: AUG-CC-PVTZ
    Blend: AUG-CC-PVTZ
  Basis Set: (AUG-CC-PVTZ AUX)
    Blend: AUG-CC-PVTZ-JKFIT
	 Reference Energy          =    -811.4728868788345153 [Eh]
	 Singles Energy            =      -0.0000000000000000 [Eh]
	 Same-Spin Energy          =      -0.8291744539439037 [Eh]
	 Opposite-Spin Energy      =      -2.5254418212959298 [Eh]
	 Correlation Energy        =      -3.3546162752398336 [Eh]
	 Total Energy              =    -814.8275031540742930 [Eh]

	 ================> DF-SCS-MP2 Energies <==================
	-----------------------------------------------------------
	 SCS Same-Spin Scale       =       0.3333333333333333 [-]
	 SCS Opposite-Spin Scale   =       1.2000000000000000 [-]
	 SCS Same-Spin Energy      =      -0.2763914846479679 [Eh]
	 SCS Opposite-Spin Energy  =      -3.0305301855551154 [Eh]
	 SCS Correlation Energy    =      -3.3069216702030833 [Eh]
	 SCS Total Energy          =    -814.7798085490376252 [Eh]
	-----------------------------------------------------------

  Dipole Moment: [D]
     X:     1.1868      Y:    -4.1624      Z:     2.5192     Total:     5.0080

*** Psi4 exiting successfully. Buy a developer a beer!
