                               Psi4 1.3.2 release

  ==> Input File <==

--------------------------------------------------------------------------
#psi4
#
memory 32 gb

molecule  {
0 1
  O        1.3620710    -0.3800110    -0.9318440
  O        3.2020570     1.9012130    -0.2995130
  O        2.7994070    -2.7489470    -0.4002010
  O       -1.3621860     2.3740050     0.1547830
  N       -0.7982440     0.1994180    -0.2292560
  N       -3.0541720     0.8052390     0.2400120
  N       -4.6734100    -0.8124350     0.4126370
  C        2.7015950     0.8755540     0.5594740
  C        1.2368440     1.1072260     0.8878520
  C        2.6518190    -0.3922910    -0.2854700
  C        0.5739580     0.6830040    -0.4149160
  C        2.8020980    -1.6600160     0.5224700
  C       -1.1273370    -1.1158190    -0.3082760
  C       -1.7446880     1.2038920     0.0820450
  C       -2.4173070    -1.5045610    -0.1045420
  C       -3.3619920    -0.4731600     0.1685110
  H        3.3343810     0.7567850     1.4508530
  H        0.9047070     0.4438290     1.6934890
  H        0.9853290     2.1340670     1.1581470
  H        0.5274540     1.5132540    -1.1249130
  H        3.4174920    -0.3642830    -1.0666260
  H        1.9707490    -1.7331840     1.2432230
  H        3.7460890    -1.6095150     1.0882890
  H        3.1038510     2.7463240     0.1779830
  H       -0.4613625    -1.6649947    -0.5002741
  H        2.9100300    -3.5650720     0.1192120
  H       -2.7034680    -2.5490840    -0.1532500
  H       -5.0287110    -1.6377420    -0.0567190
  H       -5.2994710    -0.0137980     0.3861010
units angstrom
no_reorient  #important for SAPT in psi4, default
symmetry c1  #important for SAPT in psi4, default
}

set PROPERTIES_ORIGIN ["COM"]
properties('MP2/aug-cc-pvtz', properties = ['dipole'])
--------------------------------------------------------------------------

    Molecular point group: c1
  Charge       = 0
  Multiplicity = 1
  Basis Set: AUG-CC-PVTZ
    Blend: AUG-CC-PVTZ
  Basis Set: (AUG-CC-PVTZ AUX)
    Blend: AUG-CC-PVTZ-JKFIT

    Orbital Energies [Eh]
    ---------------------

    Doubly Occupied:

       1A    -20.576689     2A    -20.574171     3A    -20.572716
       4A    -20.502941     5A    -15.621272     6A    -15.588790
       7A    -15.541523     8A    -11.369666     9A    -11.345455
      10A    -11.330599    11A    -11.300635    12A    -11.299164
      13A    -11.296289    14A    -11.292678    15A    -11.238102
      16A    -11.236706    17A     -1.416431    18A     -1.382383
      19A     -1.372855    20A     -1.365249    21A     -1.293118
      22A     -1.262945    23A     -1.169820    24A     -1.083386
      25A     -1.070871    26A     -1.028418    27A     -0.931731
      28A     -0.915569    29A     -0.869331    30A     -0.831938
      31A     -0.808352    32A     -0.754790    33A     -0.751950
      34A     -0.722332    35A     -0.715843    36A     -0.693792
      37A     -0.689048    38A     -0.681463    39A     -0.660200
      40A     -0.637113    41A     -0.627882    42A     -0.622434
      43A     -0.608971    44A     -0.599926    45A     -0.590313
      46A     -0.572979    47A     -0.568442    48A     -0.544581
      49A     -0.532788    50A     -0.523660    51A     -0.510437
      52A     -0.485913    53A     -0.482361    54A     -0.467789
      55A     -0.461180    56A     -0.444721    57A     -0.438491
      58A     -0.416816    59A     -0.383985    60A     -0.335422

  @DF-RHF Final Energy:  -811.44421620093681

   => Energetics <=

    Nuclear Repulsion Energy =           1170.9716890149993560
    One-Electron Energy =               -3436.8009714055415316
    Two-Electron Energy =                1454.3850661896053680
    Total Energy =                       -811.4442162009368076
  Basis Set: (AUG-CC-PVTZ AUX)
    Blend: AUG-CC-PVTZ-RI
    Molecular point group: c1

    Geometry (in Angstrom), charge = 0, multiplicity = 1:

       Center              X                  Y                   Z               Mass
    ------------   -----------------  -----------------  -----------------  -----------------
         O            1.362739444701    -0.380562262928    -0.932036680454    15.994914619570
         O            3.202725444701     1.900661737072    -0.299705680454    15.994914619570
         O            2.800075444701    -2.749498262928    -0.400393680454    15.994914619570
         O           -1.361517555299     2.373453737072     0.154590319546    15.994914619570
         N           -0.797575555299     0.198866737072    -0.229448680454    14.003074004430
         N           -3.053503555299     0.804687737072     0.239819319546    14.003074004430
         N           -4.672741555299    -0.812986262928     0.412444319546    14.003074004430
         C            2.702263444701     0.875002737072     0.559281319546    12.000000000000
         C            1.237512444701     1.106674737072     0.887659319546    12.000000000000
         C            2.652487444701    -0.392842262928    -0.285662680454    12.000000000000
         C            0.574626444701     0.682452737072    -0.415108680454    12.000000000000
         C            2.802766444701    -1.660567262928     0.522277319546    12.000000000000
         C           -1.126668555299    -1.116370262928    -0.308468680454    12.000000000000
         C           -1.744019555299     1.203340737072     0.081852319546    12.000000000000
         C           -2.416638555299    -1.505112262928    -0.104734680454    12.000000000000
         C           -3.361323555299    -0.473711262928     0.168318319546    12.000000000000
         H            3.335049444701     0.756233737072     1.450660319546     1.007825032230
         H            0.905375444701     0.443277737072     1.693296319546     1.007825032230
         H            0.985997444701     2.133515737072     1.157954319546     1.007825032230
         H            0.528122444701     1.512702737072    -1.125105680454     1.007825032230
         H            3.418160444701    -0.364834262928    -1.066818680454     1.007825032230
         H            1.971417444701    -1.733735262928     1.243030319546     1.007825032230
         H            3.746757444701    -1.610066262928     1.088096319546     1.007825032230
         H            3.104519444701     2.745772737072     0.177790319546     1.007825032230
         H           -0.460694055299    -1.665545962928    -0.500466780454     1.007825032230
         H            2.910698444701    -3.565623262928     0.119019319546     1.007825032230
         H           -2.702799555299    -2.549635262928    -0.153442680454     1.007825032230
         H           -5.028042555299    -1.638293262928    -0.056911680454     1.007825032230
         H           -5.298802555299    -0.014349262928     0.385908319546     1.007825032230

  Basis Set: AUG-CC-PVTZ
    Blend: AUG-CC-PVTZ
  Basis Set: (AUG-CC-PVTZ AUX)
    Blend: AUG-CC-PVTZ-JKFIT
	 Reference Energy          =    -811.4442162009368076 [Eh]
	 Singles Energy            =      -0.0000000000000000 [Eh]
	 Same-Spin Energy          =      -0.8289758174806865 [Eh]
	 Opposite-Spin Energy      =      -2.5242770592018173 [Eh]
	 Correlation Energy        =      -3.3532528766825038 [Eh]
	 Total Energy              =    -814.7974690776193256 [Eh]

	 ================> DF-SCS-MP2 Energies <==================
	-----------------------------------------------------------
	 SCS Same-Spin Scale       =       0.3333333333333333 [-]
	 SCS Opposite-Spin Scale   =       1.2000000000000000 [-]
	 SCS Same-Spin Energy      =      -0.2763252724935621 [Eh]
	 SCS Opposite-Spin Energy  =      -3.0291324710421805 [Eh]
	 SCS Correlation Energy    =      -3.3054577435357428 [Eh]
	 SCS Total Energy          =    -814.7496739444725335 [Eh]
	-----------------------------------------------------------

  Dipole Moment: [D]
     X:     0.9680      Y:    -4.6596      Z:     2.5084     Total:     5.3797

*** Psi4 exiting successfully. Buy a developer a beer!
