                               Psi4 1.4a3.dev225

  ==> Input File <==

--------------------------------------------------------------------------
#psi4
#
memory 32 gb

molecule  {
0 1
  O       -1.4695130     0.3030610    -1.0874480
  O       -3.6436400    -1.4204040    -0.2669360
  O       -1.6911330     2.8536240     0.0000030
  O        1.1857770    -2.4961310     0.0874550
  N        0.6842480    -0.3150290    -0.3399290
  N        2.9133760    -0.9647370     0.2108410
  N        4.5636770     0.6178870     0.3785230
  C       -2.7686820    -0.6858470     0.5863090
  C       -1.3787780    -1.3118450     0.6568060
  C       -2.4925280     0.6283540    -0.1295840
  C       -0.6939390    -0.7805590    -0.6115670
  C       -2.0414120     1.7324860     0.8087370
  C        1.0545030     0.9838330    -0.4888120
  C        1.6080830    -1.3384950     0.0010630
  C        2.3487550     1.3478080    -0.2622830
  C        3.2578570     0.3046130     0.0876290
  H       -3.2188600    -0.5381750     1.5798200
  H       -0.8341690    -0.9801840     1.5464130
  H       -1.3950130    -2.4033150     0.6754970
  H       -0.6263030    -1.5384450    -1.3968420
  H       -3.3195263     0.9487983    -0.6794584
  H       -1.1849610     1.3939850     1.4098140
  H       -2.8667900     1.9743150     1.4948250
  H       -3.6905400    -2.3294490     0.0774600
  H        0.2668220     1.6750250    -0.7707300
  H       -1.4321050     3.5760960     0.5972330
  H        2.6621150     2.3809760    -0.3596430
  H        4.9550500     1.4416620    -0.0591730
  H        5.1797170    -0.1867780     0.4106900
units angstrom
no_reorient  #important for SAPT in psi4, default
symmetry c1  #important for SAPT in psi4, default
}

set PROPERTIES_ORIGIN ["COM"]
properties('MP2/aug-cc-pvtz', properties = ['dipole'])
--------------------------------------------------------------------------

    Molecular point group: c1
  Charge       = 0
  Multiplicity = 1
  Basis Set: AUG-CC-PVTZ
    Blend: AUG-CC-PVTZ
  Basis Set: (AUG-CC-PVTZ AUX)
    Blend: AUG-CC-PVTZ-JKFIT

    Orbital Energies [Eh]
    ---------------------

    Doubly Occupied:

       1A    -20.583641     2A    -20.573913     3A    -20.572735
       4A    -20.501755     5A    -15.618906     6A    -15.588817
       7A    -15.539711     8A    -11.368627     9A    -11.345699
      10A    -11.332874    11A    -11.314443    12A    -11.299938
      13A    -11.299220    14A    -11.289096    15A    -11.237001
      16A    -11.235196    17A     -1.418714    18A     -1.381672
      19A     -1.377560    20A     -1.366057    21A     -1.290133
      22A     -1.258506    23A     -1.168386    24A     -1.076168
      25A     -1.068745    26A     -1.025872    27A     -0.930008
      28A     -0.895414    29A     -0.868047    30A     -0.830152
      31A     -0.809595    32A     -0.753609    33A     -0.737636
      34A     -0.726229    35A     -0.707389    36A     -0.703834
      37A     -0.690265    38A     -0.673409    39A     -0.651055
      40A     -0.642053    41A     -0.622565    42A     -0.617798
      43A     -0.606650    44A     -0.596737    45A     -0.587547
      46A     -0.572464    47A     -0.569340    48A     -0.551779
      49A     -0.526820    50A     -0.520452    51A     -0.511247
      52A     -0.485994    53A     -0.480667    54A     -0.472763
      55A     -0.459606    56A     -0.448420    57A     -0.440649
      58A     -0.413530    59A     -0.382309    60A     -0.333786

  @DF-RHF Final Energy:  -811.47853441644952

   => Energetics <=

    Nuclear Repulsion Energy =           1185.4783437843996126
    One-Electron Energy =               -3466.0073583505491115
    Two-Electron Energy =                1469.0504801496997516
    Total Energy =                       -811.4785344164495200
  Basis Set: (AUG-CC-PVTZ AUX)
    Blend: AUG-CC-PVTZ-RI
    Molecular point group: c1

    Geometry (in Angstrom), charge = 0, multiplicity = 1:

       Center              X                  Y                   Z               Mass
    ------------   -----------------  -----------------  -----------------  -----------------
         O           -1.494148107311     0.326844548622    -1.067937639983    15.994914619570
         O           -3.668275107311    -1.396620451378    -0.247425639983    15.994914619570
         O           -1.715768107311     2.877407548622     0.019513360017    15.994914619570
         O            1.161141892689    -2.472347451378     0.106965360017    15.994914619570
         N            0.659612892689    -0.291245451378    -0.320418639983    14.003074004430
         N            2.888740892689    -0.940953451378     0.230351360017    14.003074004430
         N            4.539041892689     0.641670548622     0.398033360017    14.003074004430
         C           -2.793317107311    -0.662063451378     0.605819360017    12.000000000000
         C           -1.403413107311    -1.288061451378     0.676316360017    12.000000000000
         C           -2.517163107311     0.652137548622    -0.110073639983    12.000000000000
         C           -0.718574107311    -0.756775451378    -0.592056639983    12.000000000000
         C           -2.066047107311     1.756269548622     0.828247360017    12.000000000000
         C            1.029867892689     1.007616548622    -0.469301639983    12.000000000000
         C            1.583447892689    -1.314711451378     0.020573360017    12.000000000000
         C            2.324119892689     1.371591548622    -0.242772639983    12.000000000000
         C            3.233221892689     0.328396548622     0.107139360017    12.000000000000
         H           -3.243495107311    -0.514391451378     1.599330360017     1.007825032230
         H           -0.858804107311    -0.956400451378     1.565923360017     1.007825032230
         H           -1.419648107311    -2.379531451378     0.695007360017     1.007825032230
         H           -0.650938107311    -1.514661451378    -1.377331639983     1.007825032230
         H           -3.344161407311     0.972581848622    -0.659948039983     1.007825032230
         H           -1.209596107311     1.417768548622     1.429324360017     1.007825032230
         H           -2.891425107311     1.998098548622     1.514335360017     1.007825032230
         H           -3.715175107311    -2.305665451378     0.096970360017     1.007825032230
         H            0.242186892689     1.698808548622    -0.751219639983     1.007825032230
         H           -1.456740107311     3.599879548622     0.616743360017     1.007825032230
         H            2.637479892689     2.404759548622    -0.340132639983     1.007825032230
         H            4.930414892689     1.465445548622    -0.039662639983     1.007825032230
         H            5.155081892689    -0.162994451378     0.430200360017     1.007825032230

  Basis Set: AUG-CC-PVTZ
    Blend: AUG-CC-PVTZ
  Basis Set: (AUG-CC-PVTZ AUX)
    Blend: AUG-CC-PVTZ-JKFIT
	 Reference Energy          =    -811.4785344164495200 [Eh]
	 Singles Energy            =      -0.0000000000000000 [Eh]
	 Same-Spin Energy          =      -0.8306742367979345 [Eh]
	 Opposite-Spin Energy      =      -2.5265759141653081 [Eh]
	 Correlation Energy        =      -3.3572501509632424 [Eh]
	 Total Energy              =    -814.8357845674128157 [Eh]

	 ================> DF-SCS-MP2 Energies <==================
	-----------------------------------------------------------
	 SCS Same-Spin Scale       =       0.3333333333333333 [-]
	 SCS Opposite-Spin Scale   =       1.2000000000000000 [-]
	 SCS Same-Spin Energy      =      -0.2768914122659781 [Eh]
	 SCS Opposite-Spin Energy  =      -3.0318910969983697 [Eh]
	 SCS Correlation Energy    =      -3.3087825092643479 [Eh]
	 SCS Total Energy          =    -814.7873169257138670 [Eh]
	-----------------------------------------------------------

  Dipole Moment: [D]
     X:    -0.3456      Y:     4.6059      Z:     2.4090     Total:     5.2093

*** Psi4 exiting successfully. Buy a developer a beer!
