                               Psi4 1.3.2 release

  ==> Input File <==

--------------------------------------------------------------------------
#psi4
#
memory 32 gb

molecule  {
0 1
  O        1.3620710    -0.3800110    -0.9318440
  O        3.2020570     1.9012130    -0.2995130
  O        2.7994070    -2.7489470    -0.4002010
  O       -1.3621860     2.3740050     0.1547830
  N       -0.7982440     0.1994180    -0.2292560
  N       -3.0541720     0.8052390     0.2400120
  N       -4.6734100    -0.8124350     0.4126370
  C        2.7015950     0.8755540     0.5594740
  C        1.2368440     1.1072260     0.8878520
  C        2.6518190    -0.3922910    -0.2854700
  C        0.5487044     0.7540829    -0.4005458
  C        2.8020980    -1.6600160     0.5224700
  C       -1.1273370    -1.1158190    -0.3082760
  C       -1.6899726     1.2537136     0.0788244
  C       -2.4173070    -1.5045610    -0.1045420
  C       -3.3619920    -0.4731600     0.1685110
  H        3.3343810     0.7567850     1.4508530
  H        0.9047070     0.4438290     1.6934890
  H        0.9853290     2.1340670     1.1581470
  H        0.5274540     1.5132540    -1.1249130
  H        3.4174920    -0.3642830    -1.0666260
  H        1.9707490    -1.7331840     1.2432230
  H        3.7460890    -1.6095150     1.0882890
  H        3.1038510     2.7463240     0.1779830
  H       -0.3107400    -1.7892010    -0.5436980
  H        2.9100300    -3.5650720     0.1192120
  H       -2.7034680    -2.5490840    -0.1532500
  H       -5.0287110    -1.6377420    -0.0567190
  H       -5.2994710    -0.0137980     0.3861010
units angstrom
no_reorient  #important for SAPT in psi4, default
symmetry c1  #important for SAPT in psi4, default
}

set PROPERTIES_ORIGIN ["COM"]
properties('MP2/aug-cc-pvtz', properties = ['dipole'])
--------------------------------------------------------------------------

    Molecular point group: c1
  Charge       = 0
  Multiplicity = 1
  Basis Set: AUG-CC-PVTZ
    Blend: AUG-CC-PVTZ
  Basis Set: (AUG-CC-PVTZ AUX)
    Blend: AUG-CC-PVTZ-JKFIT

    Orbital Energies [Eh]
    ---------------------

    Doubly Occupied:

       1A    -20.575961     2A    -20.575384     3A    -20.564990
       4A    -20.523429     5A    -15.619672     6A    -15.582049
       7A    -15.534695     8A    -11.372204     9A    -11.336363
      10A    -11.332632    11A    -11.316109    12A    -11.302070
      13A    -11.294176    14A    -11.288546    15A    -11.240566
      16A    -11.233914    17A     -1.427652    18A     -1.395500
      19A     -1.372507    20A     -1.360771    21A     -1.296368
      22A     -1.257782    23A     -1.151710    24A     -1.081849
      25A     -1.064696    26A     -1.027136    27A     -0.926938
      28A     -0.896668    29A     -0.862979    30A     -0.826355
      31A     -0.803057    32A     -0.749091    33A     -0.736738
      34A     -0.719555    35A     -0.705525    36A     -0.694341
      37A     -0.687674    38A     -0.672980    39A     -0.652674
      40A     -0.641456    41A     -0.633816    42A     -0.627702
      43A     -0.604332    44A     -0.591771    45A     -0.588453
      46A     -0.576173    47A     -0.562474    48A     -0.541912
      49A     -0.535405    50A     -0.522806    51A     -0.521766
      52A     -0.490415    53A     -0.482120    54A     -0.466806
      55A     -0.464573    56A     -0.457328    57A     -0.440038
      58A     -0.404089    59A     -0.379337    60A     -0.334573

  @DF-RHF Final Energy:  -811.46439536899243

   => Energetics <=

    Nuclear Repulsion Energy =           1169.4269433183540059
    One-Electron Energy =               -3433.9213692033222287
    Two-Electron Energy =                1453.0300305159757954
    Total Energy =                       -811.4643953689924274
  Basis Set: (AUG-CC-PVTZ AUX)
    Blend: AUG-CC-PVTZ-RI
    Molecular point group: c1

    Geometry (in Angstrom), charge = 0, multiplicity = 1:

       Center              X                  Y                   Z               Mass
    ------------   -----------------  -----------------  -----------------  -----------------
         O            1.360514153505    -0.386399702906    -0.932433136777    15.994914619570
         O            3.200500153505     1.894824297094    -0.300102136777    15.994914619570
         O            2.797850153505    -2.755335702906    -0.400790136777    15.994914619570
         O           -1.363742846495     2.367616297094     0.154193863223    15.994914619570
         N           -0.799800846495     0.193029297094    -0.229845136777    14.003074004430
         N           -3.055728846495     0.798850297094     0.239422863223    14.003074004430
         N           -4.674966846495    -0.818823702906     0.412047863223    14.003074004430
         C            2.700038153505     0.869165297094     0.558884863223    12.000000000000
         C            1.235287153505     1.100837297094     0.887262863223    12.000000000000
         C            2.650262153505    -0.398679702906    -0.286059136777    12.000000000000
         C            0.547147553505     0.747694197094    -0.401134936777    12.000000000000
         C            2.800541153505    -1.666404702906     0.521880863223    12.000000000000
         C           -1.128893846495    -1.122207702906    -0.308865136777    12.000000000000
         C           -1.691529446495     1.247324897094     0.078235263223    12.000000000000
         C           -2.418863846495    -1.510949702906    -0.105131136777    12.000000000000
         C           -3.363548846495    -0.479548702906     0.167921863223    12.000000000000
         H            3.332824153505     0.750396297094     1.450263863223     1.007825032230
         H            0.903150153505     0.437440297094     1.692899863223     1.007825032230
         H            0.983772153505     2.127678297094     1.157557863223     1.007825032230
         H            0.525897153505     1.506865297094    -1.125502136777     1.007825032230
         H            3.415935153505    -0.370671702906    -1.067215136777     1.007825032230
         H            1.969192153505    -1.739572702906     1.242633863223     1.007825032230
         H            3.744532153505    -1.615903702906     1.087699863223     1.007825032230
         H            3.102294153505     2.739935297094     0.177393863223     1.007825032230
         H           -0.312296846495    -1.795589702906    -0.544287136777     1.007825032230
         H            2.908473153505    -3.571460702906     0.118622863223     1.007825032230
         H           -2.705024846495    -2.555472702906    -0.153839136777     1.007825032230
         H           -5.030267846495    -1.644130702906    -0.057308136777     1.007825032230
         H           -5.301027846495    -0.020186702906     0.385511863223     1.007825032230

  Basis Set: AUG-CC-PVTZ
    Blend: AUG-CC-PVTZ
  Basis Set: (AUG-CC-PVTZ AUX)
    Blend: AUG-CC-PVTZ-JKFIT
	 Reference Energy          =    -811.4643953689924274 [Eh]
	 Singles Energy            =      -0.0000000000000000 [Eh]
	 Same-Spin Energy          =      -0.8290974960346293 [Eh]
	 Opposite-Spin Energy      =      -2.5259046560306371 [Eh]
	 Correlation Energy        =      -3.3550021520652664 [Eh]
	 Total Energy              =    -814.8193975210576809 [Eh]

	 ================> DF-SCS-MP2 Energies <==================
	-----------------------------------------------------------
	 SCS Same-Spin Scale       =       0.3333333333333333 [-]
	 SCS Opposite-Spin Scale   =       1.2000000000000000 [-]
	 SCS Same-Spin Energy      =      -0.2763658320115431 [Eh]
	 SCS Opposite-Spin Energy  =      -3.0310855872367646 [Eh]
	 SCS Correlation Energy    =      -3.3074514192483075 [Eh]
	 SCS Total Energy          =    -814.7718467882407367 [Eh]
	-----------------------------------------------------------

  Dipole Moment: [D]
     X:     1.2519      Y:    -3.9079      Z:     2.5342     Total:     4.8230

*** Psi4 exiting successfully. Buy a developer a beer!
