                               Psi4 1.3.2 release

  ==> Input File <==

--------------------------------------------------------------------------
#psi4
#
memory 32 gb

molecule  {
0 1
  O        1.3569053    -0.4023656    -0.9214709
  O        3.2020570     1.9012130    -0.2995130
  O        2.7994070    -2.7489470    -0.4002010
  O       -1.3621860     2.3740050     0.1547830
  N       -0.7982440     0.1994180    -0.2292560
  N       -3.0541720     0.8052390     0.2400120
  N       -4.6734100    -0.8124350     0.4126370
  C        2.7015950     0.8755540     0.5594740
  C        1.2368440     1.1072260     0.8878520
  C        2.6518190    -0.3922910    -0.2854700
  C        0.5739580     0.6830040    -0.4149160
  C        2.7779865    -1.6674686     0.5148308
  C       -1.1273370    -1.1158190    -0.3082760
  C       -1.7446880     1.2038920     0.0820450
  C       -2.4173070    -1.5045610    -0.1045420
  C       -3.3619920    -0.4731600     0.1685110
  H        3.3343810     0.7567850     1.4508530
  H        0.9047070     0.4438290     1.6934890
  H        0.9853290     2.1340670     1.1581470
  H        0.5274540     1.5132540    -1.1249130
  H        3.4174920    -0.3642830    -1.0666260
  H        1.9707490    -1.7331840     1.2432230
  H        3.7460890    -1.6095150     1.0882890
  H        3.1038510     2.7463240     0.1779830
  H       -0.3107400    -1.7892010    -0.5436980
  H        2.9100300    -3.5650720     0.1192120
  H       -2.7034680    -2.5490840    -0.1532500
  H       -5.0287110    -1.6377420    -0.0567190
  H       -5.2994710    -0.0137980     0.3861010
units angstrom
no_reorient  #important for SAPT in psi4, default
symmetry c1  #important for SAPT in psi4, default
}

set PROPERTIES_ORIGIN ["COM"]
properties('MP2/aug-cc-pvtz', properties = ['dipole'])
--------------------------------------------------------------------------

    Molecular point group: c1
  Charge       = 0
  Multiplicity = 1
  Basis Set: AUG-CC-PVTZ
    Blend: AUG-CC-PVTZ
  Basis Set: (AUG-CC-PVTZ AUX)
    Blend: AUG-CC-PVTZ-JKFIT

    Orbital Energies [Eh]
    ---------------------

    Doubly Occupied:

       1A    -20.578235     2A    -20.574674     3A    -20.572676
       4A    -20.503284     5A    -15.621882     6A    -15.588386
       7A    -15.540832     8A    -11.370013     9A    -11.345061
      10A    -11.331867    11A    -11.318074    12A    -11.301178
      13A    -11.296476    14A    -11.292432    15A    -11.237194
      16A    -11.236952    17A     -1.415016    18A     -1.382979
      19A     -1.376032    20A     -1.365919    21A     -1.292277
      22A     -1.261446    23A     -1.169182    24A     -1.079340
      25A     -1.068056    26A     -1.027421    27A     -0.925903
      28A     -0.897284    29A     -0.869381    30A     -0.830618
      31A     -0.806096    32A     -0.754072    33A     -0.738376
      34A     -0.722767    35A     -0.706946    36A     -0.692407
      37A     -0.688933    38A     -0.675743    39A     -0.656740
      40A     -0.636610    41A     -0.627597    42A     -0.618261
      43A     -0.605315    44A     -0.595583    45A     -0.588265
      46A     -0.572914    47A     -0.568213    48A     -0.544967
      49A     -0.532947    50A     -0.523725    51A     -0.510457
      52A     -0.486427    53A     -0.482047    54A     -0.466971
      55A     -0.461492    56A     -0.444070    57A     -0.437102
      58A     -0.416610    59A     -0.383887    60A     -0.335039

  @DF-RHF Final Energy:  -811.47791976756196

   => Energetics <=

    Nuclear Repulsion Energy =           1170.2026030835124857
    One-Electron Energy =               -3435.4597469330587955
    Two-Electron Energy =                1453.7792240819842391
    Total Energy =                       -811.4779197675618434
  Basis Set: (AUG-CC-PVTZ AUX)
    Blend: AUG-CC-PVTZ-RI
    Molecular point group: c1

    Geometry (in Angstrom), charge = 0, multiplicity = 1:

       Center              X                  Y                   Z               Mass
    ------------   -----------------  -----------------  -----------------  -----------------
         O            1.358543233525    -0.400397298834    -0.921797812142    15.994914619570
         O            3.203694933525     1.903181301166    -0.299839912142    15.994914619570
         O            2.801044933525    -2.746978698834    -0.400527912142    15.994914619570
         O           -1.360548066475     2.375973301166     0.154456087858    15.994914619570
         N           -0.796606066475     0.201386301166    -0.229582912142    14.003074004430
         N           -3.052534066475     0.807207301166     0.239685087858    14.003074004430
         N           -4.671772066475    -0.810466698834     0.412310087858    14.003074004430
         C            2.703232933525     0.877522301166     0.559147087858    12.000000000000
         C            1.238481933525     1.109194301166     0.887525087858    12.000000000000
         C            2.653456933525    -0.390322698834    -0.285796912142    12.000000000000
         C            0.575595933525     0.684972301166    -0.415242912142    12.000000000000
         C            2.779624433525    -1.665500298834     0.514503887858    12.000000000000
         C           -1.125699066475    -1.113850698834    -0.308602912142    12.000000000000
         C           -1.743050066475     1.205860301166     0.081718087858    12.000000000000
         C           -2.415669066475    -1.502592698834    -0.104868912142    12.000000000000
         C           -3.360354066475    -0.471191698834     0.168184087858    12.000000000000
         H            3.336018933525     0.758753301166     1.450526087858     1.007825032230
         H            0.906344933525     0.445797301166     1.693162087858     1.007825032230
         H            0.986966933525     2.136035301166     1.157820087858     1.007825032230
         H            0.529091933525     1.515222301166    -1.125239912142     1.007825032230
         H            3.419129933525    -0.362314698834    -1.066952912142     1.007825032230
         H            1.972386933525    -1.731215698834     1.242896087858     1.007825032230
         H            3.747726933525    -1.607546698834     1.087962087858     1.007825032230
         H            3.105488933525     2.748292301166     0.177656087858     1.007825032230
         H           -0.309102066475    -1.787232698834    -0.544024912142     1.007825032230
         H            2.911667933525    -3.563103698834     0.118885087858     1.007825032230
         H           -2.701830066475    -2.547115698834    -0.153576912142     1.007825032230
         H           -5.027073066475    -1.635773698834    -0.057045912142     1.007825032230
         H           -5.297833066475    -0.011829698834     0.385774087858     1.007825032230

  Basis Set: AUG-CC-PVTZ
    Blend: AUG-CC-PVTZ
  Basis Set: (AUG-CC-PVTZ AUX)
    Blend: AUG-CC-PVTZ-JKFIT
	 Reference Energy          =    -811.4779197675619571 [Eh]
	 Singles Energy            =      -0.0000000000000000 [Eh]
	 Same-Spin Energy          =      -0.8297665309659276 [Eh]
	 Opposite-Spin Energy      =      -2.5253658016079967 [Eh]
	 Correlation Energy        =      -3.3551323325739242 [Eh]
	 Total Energy              =    -814.8330521001358875 [Eh]

	 ================> DF-SCS-MP2 Energies <==================
	-----------------------------------------------------------
	 SCS Same-Spin Scale       =       0.3333333333333333 [-]
	 SCS Opposite-Spin Scale   =       1.2000000000000000 [-]
	 SCS Same-Spin Energy      =      -0.2765888436553092 [Eh]
	 SCS Opposite-Spin Energy  =      -3.0304389619295962 [Eh]
	 SCS Correlation Energy    =      -3.3070278055849052 [Eh]
	 SCS Total Energy          =    -814.7849475731468374 [Eh]
	-----------------------------------------------------------

  Dipole Moment: [D]
     X:     1.0292      Y:    -4.6577      Z:     2.4495     Total:     5.3622

*** Psi4 exiting successfully. Buy a developer a beer!
