                               Psi4 1.3.2 release

  ==> Input File <==

--------------------------------------------------------------------------
#psi4
#
memory 32 gb

molecule  {
0 1
  O        1.3620710    -0.3800110    -0.9318440
  O        3.1964092     1.9491081    -0.2423600
  O        2.7994070    -2.7489470    -0.4002010
  O       -1.3621860     2.3740050     0.1547830
  N       -0.7982440     0.1994180    -0.2292560
  N       -3.0541720     0.8052390     0.2400120
  N       -4.6734100    -0.8124350     0.4126370
  C        2.7015950     0.8755540     0.5594740
  C        1.2368440     1.1072260     0.8878520
  C        2.6235566    -0.4311411    -0.2217410
  C        0.5739580     0.6830040    -0.4149160
  C        2.8020980    -1.6600160     0.5224700
  C       -1.1273370    -1.1158190    -0.3082760
  C       -1.7446880     1.2038920     0.0820450
  C       -2.4173070    -1.5045610    -0.1045420
  C       -3.3619920    -0.4731600     0.1685110
  H        3.3343810     0.7567850     1.4508530
  H        0.9047070     0.4438290     1.6934890
  H        0.9853290     2.1340670     1.1581470
  H        0.5274540     1.5132540    -1.1249130
  H        3.4174920    -0.3642830    -1.0666260
  H        1.9707490    -1.7331840     1.2432230
  H        3.7460890    -1.6095150     1.0882890
  H        3.1038510     2.7463240     0.1779830
  H       -0.3107400    -1.7892010    -0.5436980
  H        2.9100300    -3.5650720     0.1192120
  H       -2.7034680    -2.5490840    -0.1532500
  H       -5.0287110    -1.6377420    -0.0567190
  H       -5.2994710    -0.0137980     0.3861010
units angstrom
no_reorient  #important for SAPT in psi4, default
symmetry c1  #important for SAPT in psi4, default
}

set PROPERTIES_ORIGIN ["COM"]
properties('MP2/aug-cc-pvtz', properties = ['dipole'])
--------------------------------------------------------------------------

    Molecular point group: c1
  Charge       = 0
  Multiplicity = 1
  Basis Set: AUG-CC-PVTZ
    Blend: AUG-CC-PVTZ
  Basis Set: (AUG-CC-PVTZ AUX)
    Blend: AUG-CC-PVTZ-JKFIT

    Orbital Energies [Eh]
    ---------------------

    Doubly Occupied:

       1A    -20.580851     2A    -20.574165     3A    -20.566186
       4A    -20.502948     5A    -15.621492     6A    -15.588373
       7A    -15.540770     8A    -11.369752     9A    -11.345041
      10A    -11.330556    11A    -11.318390    12A    -11.304171
      13A    -11.298594    14A    -11.297714    15A    -11.237134
      16A    -11.236269    17A     -1.417904    18A     -1.386565
      19A     -1.380728    20A     -1.370319    21A     -1.292203
      22A     -1.261396    23A     -1.169097    24A     -1.084842
      25A     -1.074246    26A     -1.033427    27A     -0.934425
      28A     -0.897670    29A     -0.870412    30A     -0.832730
      31A     -0.800983    32A     -0.754677    33A     -0.738830
      34A     -0.729285    35A     -0.712723    36A     -0.697846
      37A     -0.690904    38A     -0.676860    39A     -0.657873
      40A     -0.640778    41A     -0.627246    42A     -0.618924
      43A     -0.611135    44A     -0.597381    45A     -0.590385
      46A     -0.573474    47A     -0.561450    48A     -0.545215
      49A     -0.533655    50A     -0.526930    51A     -0.510671
      52A     -0.484272    53A     -0.478493    54A     -0.469429
      55A     -0.461136    56A     -0.443685    57A     -0.440743
      58A     -0.416138    59A     -0.383774    60A     -0.334927

  @DF-RHF Final Energy:  -811.46957263140951

   => Energetics <=

    Nuclear Repulsion Energy =           1170.3912299873566099
    One-Electron Energy =               -3435.6652254263749455
    Two-Electron Energy =                1453.8044228076087165
    Total Energy =                       -811.4695726314093918
  Basis Set: (AUG-CC-PVTZ AUX)
    Blend: AUG-CC-PVTZ-RI
    Molecular point group: c1

    Geometry (in Angstrom), charge = 0, multiplicity = 1:

       Center              X                  Y                   Z               Mass
    ------------   -----------------  -----------------  -----------------  -----------------
         O            1.363962233075    -0.381331553300    -0.939237073686    15.994914619570
         O            3.198300433075     1.947787546700    -0.249753073686    15.994914619570
         O            2.801298233075    -2.750267553300    -0.407594073686    15.994914619570
         O           -1.360294766925     2.372684446700     0.147389926314    15.994914619570
         N           -0.796352766925     0.198097446700    -0.236649073686    14.003074004430
         N           -3.052280766925     0.803918446700     0.232618926314    14.003074004430
         N           -4.671518766925    -0.813755553300     0.405243926314    14.003074004430
         C            2.703486233075     0.874233446700     0.552080926314    12.000000000000
         C            1.238735233075     1.105905446700     0.880458926314    12.000000000000
         C            2.625447833075    -0.432461653300    -0.229134073686    12.000000000000
         C            0.575849233075     0.681683446700    -0.422309073686    12.000000000000
         C            2.803989233075    -1.661336553300     0.515076926314    12.000000000000
         C           -1.125445766925    -1.117139553300    -0.315669073686    12.000000000000
         C           -1.742796766925     1.202571446700     0.074651926314    12.000000000000
         C           -2.415415766925    -1.505881553300    -0.111935073686    12.000000000000
         C           -3.360100766925    -0.474480553300     0.161117926314    12.000000000000
         H            3.336272233075     0.755464446700     1.443459926314     1.007825032230
         H            0.906598233075     0.442508446700     1.686095926314     1.007825032230
         H            0.987220233075     2.132746446700     1.150753926314     1.007825032230
         H            0.529345233075     1.511933446700    -1.132306073686     1.007825032230
         H            3.419383233075    -0.365603553300    -1.074019073686     1.007825032230
         H            1.972640233075    -1.734504553300     1.235829926314     1.007825032230
         H            3.747980233075    -1.610835553300     1.080895926314     1.007825032230
         H            3.105742233075     2.745003446700     0.170589926314     1.007825032230
         H           -0.308848766925    -1.790521553300    -0.551091073686     1.007825032230
         H            2.911921233075    -3.566392553300     0.111818926314     1.007825032230
         H           -2.701576766925    -2.550404553300    -0.160643073686     1.007825032230
         H           -5.026819766925    -1.639062553300    -0.064112073686     1.007825032230
         H           -5.297579766925    -0.015118553300     0.378707926314     1.007825032230

  Basis Set: AUG-CC-PVTZ
    Blend: AUG-CC-PVTZ
  Basis Set: (AUG-CC-PVTZ AUX)
    Blend: AUG-CC-PVTZ-JKFIT
	 Reference Energy          =    -811.4695726314095054 [Eh]
	 Singles Energy            =      -0.0000000000000000 [Eh]
	 Same-Spin Energy          =      -0.8295316988562692 [Eh]
	 Opposite-Spin Energy      =      -2.5237971335003775 [Eh]
	 Correlation Energy        =      -3.3533288323566466 [Eh]
	 Total Energy              =    -814.8229014637661294 [Eh]

	 ================> DF-SCS-MP2 Energies <==================
	-----------------------------------------------------------
	 SCS Same-Spin Scale       =       0.3333333333333333 [-]
	 SCS Opposite-Spin Scale   =       1.2000000000000000 [-]
	 SCS Same-Spin Energy      =      -0.2765105662854230 [Eh]
	 SCS Opposite-Spin Energy  =      -3.0285565602004527 [Eh]
	 SCS Correlation Energy    =      -3.3050671264858758 [Eh]
	 SCS Total Energy          =    -814.7746397578953292 [Eh]
	-----------------------------------------------------------

  Dipole Moment: [D]
     X:     1.0603      Y:    -4.8294      Z:     2.5101     Total:     5.5451

*** Psi4 exiting successfully. Buy a developer a beer!
