                               Psi4 1.4a3.dev225

  ==> Input File <==

--------------------------------------------------------------------------
#psi4
#
memory 32 gb

molecule  {
0 1
  O       -1.4695130     0.3030610    -1.0874480
  O       -3.6436400    -1.4204040    -0.2669360
  O       -1.6911330     2.8536240     0.0000030
  O        1.1857770    -2.4961310     0.0874550
  N        0.6842480    -0.3150290    -0.3399290
  N        2.9133760    -0.9647370     0.2108410
  N        4.5636770     0.6178870     0.3785230
  C       -2.7686820    -0.6858470     0.5863090
  C       -1.3787780    -1.3118450     0.6568060
  C       -2.4925280     0.6283540    -0.1295840
  C       -0.6939390    -0.7805590    -0.6115670
  C       -2.0414120     1.7324860     0.8087370
  C        1.0545030     0.9838330    -0.4888120
  C        1.6080830    -1.3384950     0.0010630
  C        2.3487550     1.3478080    -0.2622830
  C        3.2578570     0.3046130     0.0876290
  H       -3.2188600    -0.5381750     1.5798200
  H       -0.8341690    -0.9801840     1.5464130
  H       -1.3950130    -2.4033150     0.6754970
  H       -0.6232102    -1.5731009    -1.4327503
  H       -3.3591510     0.9641520    -0.7058050
  H       -1.1849610     1.3939850     1.4098140
  H       -2.8667900     1.9743150     1.4948250
  H       -3.6905400    -2.3294490     0.0774600
  H        0.2668220     1.6750250    -0.7707300
  H       -1.4321050     3.5760960     0.5972330
  H        2.6621150     2.3809760    -0.3596430
  H        4.9550500     1.4416620    -0.0591730
  H        5.1797170    -0.1867780     0.4106900
units angstrom
no_reorient  #important for SAPT in psi4, default
symmetry c1  #important for SAPT in psi4, default
}

set PROPERTIES_ORIGIN ["COM"]
properties('MP2/aug-cc-pvtz', properties = ['dipole'])
--------------------------------------------------------------------------

    Molecular point group: c1
  Charge       = 0
  Multiplicity = 1
  Basis Set: AUG-CC-PVTZ
    Blend: AUG-CC-PVTZ
  Basis Set: (AUG-CC-PVTZ AUX)
    Blend: AUG-CC-PVTZ-JKFIT

    Orbital Energies [Eh]
    ---------------------

    Doubly Occupied:

       1A    -20.583681     2A    -20.574892     3A    -20.572593
       4A    -20.501809     5A    -15.619507     6A    -15.588935
       7A    -15.539847     8A    -11.368694     9A    -11.345836
      10A    -11.338468    11A    -11.314669    12A    -11.300381
      13A    -11.299633    14A    -11.294942    15A    -11.237599
      16A    -11.235436    17A     -1.418933    18A     -1.381697
      19A     -1.377565    20A     -1.366114    21A     -1.290270
      22A     -1.258669    23A     -1.168442    24A     -1.076156
      25A     -1.067544    26A     -1.024308    27A     -0.928981
      28A     -0.895150    29A     -0.867890    30A     -0.828182
      31A     -0.804297    32A     -0.753309    33A     -0.737638
      34A     -0.724023    35A     -0.707354    36A     -0.701682
      37A     -0.689411    38A     -0.672358    39A     -0.650542
      40A     -0.641210    41A     -0.622030    42A     -0.617871
      43A     -0.606800    44A     -0.595824    45A     -0.587648
      46A     -0.572585    47A     -0.564663    48A     -0.551029
      49A     -0.526753    50A     -0.519640    51A     -0.509841
      52A     -0.485078    53A     -0.480790    54A     -0.472419
      55A     -0.459531    56A     -0.446791    57A     -0.440448
      58A     -0.413499    59A     -0.382071    60A     -0.333875

  @DF-RHF Final Energy:  -811.47664374804492

   => Energetics <=

    Nuclear Repulsion Energy =           1184.8228271319228497
    One-Electron Energy =               -3464.7232732246297928
    Two-Electron Energy =                1468.4238023446623629
    Total Energy =                       -811.4766437480448076
  Basis Set: (AUG-CC-PVTZ AUX)
    Blend: AUG-CC-PVTZ-RI
    Molecular point group: c1

    Geometry (in Angstrom), charge = 0, multiplicity = 1:

       Center              X                  Y                   Z               Mass
    ------------   -----------------  -----------------  -----------------  -----------------
         O           -1.493985979234     0.326930211524    -1.067661353580    15.994914619570
         O           -3.668112979234    -1.396534788476    -0.247149353580    15.994914619570
         O           -1.715605979234     2.877493211524     0.019789646420    15.994914619570
         O            1.161304020766    -2.472261788476     0.107241646420    15.994914619570
         N            0.659775020766    -0.291159788476    -0.320142353580    14.003074004430
         N            2.888903020766    -0.940867788476     0.230627646420    14.003074004430
         N            4.539204020766     0.641756211524     0.398309646420    14.003074004430
         C           -2.793154979234    -0.661977788476     0.606095646420    12.000000000000
         C           -1.403250979234    -1.287975788476     0.676592646420    12.000000000000
         C           -2.517000979234     0.652223211524    -0.109797353580    12.000000000000
         C           -0.718411979234    -0.756689788476    -0.591780353580    12.000000000000
         C           -2.065884979234     1.756355211524     0.828523646420    12.000000000000
         C            1.030030020766     1.007702211524    -0.469025353580    12.000000000000
         C            1.583610020766    -1.314625788476     0.020849646420    12.000000000000
         C            2.324282020766     1.371677211524    -0.242496353580    12.000000000000
         C            3.233384020766     0.328482211524     0.107415646420    12.000000000000
         H           -3.243332979234    -0.514305788476     1.599606646420     1.007825032230
         H           -0.858641979234    -0.956314788476     1.566199646420     1.007825032230
         H           -1.419485979234    -2.379445788476     0.695283646420     1.007825032230
         H           -0.647683179234    -1.549231688476    -1.412963653580     1.007825032230
         H           -3.383623979234     0.988021211524    -0.686018353580     1.007825032230
         H           -1.209433979234     1.417854211524     1.429600646420     1.007825032230
         H           -2.891262979234     1.998184211524     1.514611646420     1.007825032230
         H           -3.715012979234    -2.305579788476     0.097246646420     1.007825032230
         H            0.242349020766     1.698894211524    -0.750943353580     1.007825032230
         H           -1.456577979234     3.599965211524     0.617019646420     1.007825032230
         H            2.637642020766     2.404845211524    -0.339856353580     1.007825032230
         H            4.930577020766     1.465531211524    -0.039386353580     1.007825032230
         H            5.155244020766    -0.162908788476     0.430476646420     1.007825032230

  Basis Set: AUG-CC-PVTZ
    Blend: AUG-CC-PVTZ
  Basis Set: (AUG-CC-PVTZ AUX)
    Blend: AUG-CC-PVTZ-JKFIT
	 Reference Energy          =    -811.4766437480449213 [Eh]
	 Singles Energy            =      -0.0000000000000000 [Eh]
	 Same-Spin Energy          =      -0.8310036059711177 [Eh]
	 Opposite-Spin Energy      =      -2.5275952178331309 [Eh]
	 Correlation Energy        =      -3.3585988238042486 [Eh]
	 Total Energy              =    -814.8352425718492213 [Eh]

	 ================> DF-SCS-MP2 Energies <==================
	-----------------------------------------------------------
	 SCS Same-Spin Scale       =       0.3333333333333333 [-]
	 SCS Opposite-Spin Scale   =       1.2000000000000000 [-]
	 SCS Same-Spin Energy      =      -0.2770012019903725 [Eh]
	 SCS Opposite-Spin Energy  =      -3.0331142613997568 [Eh]
	 SCS Correlation Energy    =      -3.3101154633901295 [Eh]
	 SCS Total Energy          =    -814.7867592114350828 [Eh]
	-----------------------------------------------------------

  Dipole Moment: [D]
     X:    -0.3290      Y:     4.6090      Z:     2.4174     Total:     5.2149

*** Psi4 exiting successfully. Buy a developer a beer!
