                               Psi4 1.3.2 release

  ==> Input File <==

--------------------------------------------------------------------------
#psi4
#
memory 32 gb

molecule  {
0 1
  O        1.3620710    -0.3800110    -0.9318440
  O        3.2020570     1.9012130    -0.2995130
  O        2.7994070    -2.7489470    -0.4002010
  O       -1.3621860     2.3740050     0.1547830
  N       -0.7982440     0.1994180    -0.2292560
  N       -3.0541720     0.8052390     0.2400120
  N       -4.6734100    -0.8124350     0.4126370
  C        2.7015950     0.8755540     0.5594740
  C        1.2368440     1.1072260     0.8878520
  C        2.5861199    -0.3763746    -0.2444041
  C        0.5739580     0.6830040    -0.4149160
  C        2.8020980    -1.6600160     0.5224700
  C       -1.1273370    -1.1158190    -0.3082760
  C       -1.7446880     1.2038920     0.0820450
  C       -2.4173070    -1.5045610    -0.1045420
  C       -3.3619920    -0.4731600     0.1685110
  H        3.3343810     0.7567850     1.4508530
  H        0.9047070     0.4438290     1.6934890
  H        0.9853290     2.1340670     1.1581470
  H        0.5274540     1.5132540    -1.1249130
  H        3.4174920    -0.3642830    -1.0666260
  H        1.9505846    -1.6831186     1.2227348
  H        3.7460890    -1.6095150     1.0882890
  H        3.1038510     2.7463240     0.1779830
  H       -0.3107400    -1.7892010    -0.5436980
  H        2.9100300    -3.5650720     0.1192120
  H       -2.7034680    -2.5490840    -0.1532500
  H       -5.0287110    -1.6377420    -0.0567190
  H       -5.2994710    -0.0137980     0.3861010
units angstrom
no_reorient  #important for SAPT in psi4, default
symmetry c1  #important for SAPT in psi4, default
}

set PROPERTIES_ORIGIN ["COM"]
properties('MP2/aug-cc-pvtz', properties = ['dipole'])
--------------------------------------------------------------------------

    Molecular point group: c1
  Charge       = 0
  Multiplicity = 1
  Basis Set: AUG-CC-PVTZ
    Blend: AUG-CC-PVTZ
  Basis Set: (AUG-CC-PVTZ AUX)
    Blend: AUG-CC-PVTZ-JKFIT

    Orbital Energies [Eh]
    ---------------------

    Doubly Occupied:

       1A    -20.578980     2A    -20.578768     3A    -20.574869
       4A    -20.504107     5A    -15.623080     6A    -15.589170
       7A    -15.541782     8A    -11.370964     9A    -11.346034
      10A    -11.333112    11A    -11.319627    12A    -11.299787
      13A    -11.296317    14A    -11.293534    15A    -11.238225
      16A    -11.237987    17A     -1.429765    18A     -1.383966
      19A     -1.373648    20A     -1.368612    21A     -1.293593
      22A     -1.263405    23A     -1.170260    24A     -1.084569
      25A     -1.071679    26A     -1.028048    27A     -0.929111
      28A     -0.898888    29A     -0.870540    30A     -0.834796
      31A     -0.800174    32A     -0.755039    33A     -0.741643
      34A     -0.724201    35A     -0.707978    36A     -0.692069
      37A     -0.690243    38A     -0.676157    39A     -0.658443
      40A     -0.641156    41A     -0.630569    42A     -0.619789
      43A     -0.607167    44A     -0.596359    45A     -0.592336
      46A     -0.575129    47A     -0.562044    48A     -0.545569
      49A     -0.535914    50A     -0.526149    51A     -0.510250
      52A     -0.489055    53A     -0.480539    54A     -0.469527
      55A     -0.458413    56A     -0.442994    57A     -0.434307
      58A     -0.416826    59A     -0.384696    60A     -0.336120

  @DF-RHF Final Energy:  -811.47038170527890

   => Energetics <=

    Nuclear Repulsion Energy =           1171.6487306389988134
    One-Electron Energy =               -3438.1820740347784522
    Two-Electron Energy =                1455.0629616905005150
    Total Energy =                       -811.4703817052788963
  Basis Set: (AUG-CC-PVTZ AUX)
    Blend: AUG-CC-PVTZ-RI
    Molecular point group: c1

    Geometry (in Angstrom), charge = 0, multiplicity = 1:

       Center              X                  Y                   Z               Mass
    ------------   -----------------  -----------------  -----------------  -----------------
         O            1.365632167887    -0.381074286508    -0.933923057850    15.994914619570
         O            3.205618167887     1.900149713492    -0.301592057850    15.994914619570
         O            2.802968167887    -2.750010286508    -0.402280057850    15.994914619570
         O           -1.358624832113     2.372941713492     0.152703942150    15.994914619570
         N           -0.794682832113     0.198354713492    -0.231335057850    14.003074004430
         N           -3.050610832113     0.804175713492     0.237932942150    14.003074004430
         N           -4.669848832113    -0.813498286508     0.410557942150    14.003074004430
         C            2.705156167887     0.874490713492     0.557394942150    12.000000000000
         C            1.240405167887     1.106162713492     0.885772942150    12.000000000000
         C            2.589681067887    -0.377437886508    -0.246483157850    12.000000000000
         C            0.577519167887     0.681940713492    -0.416995057850    12.000000000000
         C            2.805659167887    -1.661079286508     0.520390942150    12.000000000000
         C           -1.123775832113    -1.116882286508    -0.310355057850    12.000000000000
         C           -1.741126832113     1.202828713492     0.079965942150    12.000000000000
         C           -2.413745832113    -1.505624286508    -0.106621057850    12.000000000000
         C           -3.358430832113    -0.474223286508     0.166431942150    12.000000000000
         H            3.337942167887     0.755721713492     1.448773942150     1.007825032230
         H            0.908268167887     0.442765713492     1.691409942150     1.007825032230
         H            0.988890167887     2.133003713492     1.156067942150     1.007825032230
         H            0.531015167887     1.512190713492    -1.126992057850     1.007825032230
         H            3.421053167887    -0.365346286508    -1.068705057850     1.007825032230
         H            1.954145767887    -1.684181886508     1.220655742150     1.007825032230
         H            3.749650167887    -1.610578286508     1.086209942150     1.007825032230
         H            3.107412167887     2.745260713492     0.175903942150     1.007825032230
         H           -0.307178832113    -1.790264286508    -0.545777057850     1.007825032230
         H            2.913591167887    -3.566135286508     0.117132942150     1.007825032230
         H           -2.699906832113    -2.550147286508    -0.155329057850     1.007825032230
         H           -5.025149832113    -1.638805286508    -0.058798057850     1.007825032230
         H           -5.295909832113    -0.014861286508     0.384021942150     1.007825032230

  Basis Set: AUG-CC-PVTZ
    Blend: AUG-CC-PVTZ
  Basis Set: (AUG-CC-PVTZ AUX)
    Blend: AUG-CC-PVTZ-JKFIT
	 Reference Energy          =    -811.4703817052788963 [Eh]
	 Singles Energy            =      -0.0000000000000000 [Eh]
	 Same-Spin Energy          =      -0.8305831905269273 [Eh]
	 Opposite-Spin Energy      =      -2.5260641411967337 [Eh]
	 Correlation Energy        =      -3.3566473317236611 [Eh]
	 Total Energy              =    -814.8270290370026032 [Eh]

	 ================> DF-SCS-MP2 Energies <==================
	-----------------------------------------------------------
	 SCS Same-Spin Scale       =       0.3333333333333333 [-]
	 SCS Opposite-Spin Scale   =       1.2000000000000000 [-]
	 SCS Same-Spin Energy      =      -0.2768610635089758 [Eh]
	 SCS Opposite-Spin Energy  =      -3.0312769694360804 [Eh]
	 SCS Correlation Energy    =      -3.3081380329450560 [Eh]
	 SCS Total Energy          =    -814.7785197382239630 [Eh]
	-----------------------------------------------------------

  Dipole Moment: [D]
     X:     0.8633      Y:    -4.6228      Z:     2.5011     Total:     5.3265

*** Psi4 exiting successfully. Buy a developer a beer!
