                               Psi4 1.3.2 release

  ==> Input File <==

--------------------------------------------------------------------------
#psi4
#
memory 32 gb

molecule  {
0 1
  O        1.3620710    -0.3800110    -0.9318440
  O        3.2207870     1.9051495    -0.2835385
  O        2.7994070    -2.7489470    -0.4002010
  O       -1.3621860     2.3740050     0.1547830
  N       -0.7982440     0.1994180    -0.2292560
  N       -3.0541720     0.8052390     0.2400120
  N       -4.6734100    -0.8124350     0.4126370
  C        2.7015950     0.8755540     0.5594740
  C        1.2368440     1.1072260     0.8878520
  C        2.6518190    -0.3922910    -0.2854700
  C        0.5739580     0.6830040    -0.4149160
  C        2.8020980    -1.6600160     0.5224700
  C       -1.1273370    -1.1158190    -0.3082760
  C       -1.7446880     1.2038920     0.0820450
  C       -2.4173070    -1.5045610    -0.1045420
  C       -3.3619920    -0.4731600     0.1685110
  H        3.3458100     0.7707856     1.4443985
  H        0.9047070     0.4438290     1.6934890
  H        0.9853290     2.1340670     1.1581470
  H        0.5274540     1.5132540    -1.1249130
  H        3.4174920    -0.3642830    -1.0666260
  H        1.9707490    -1.7331840     1.2432230
  H        3.7460890    -1.6095150     1.0882890
  H        3.1038510     2.7463240     0.1779830
  H       -0.3107400    -1.7892010    -0.5436980
  H        2.9100300    -3.5650720     0.1192120
  H       -2.7034680    -2.5490840    -0.1532500
  H       -5.0287110    -1.6377420    -0.0567190
  H       -5.2994710    -0.0137980     0.3861010
units angstrom
no_reorient  #important for SAPT in psi4, default
symmetry c1  #important for SAPT in psi4, default
}

set PROPERTIES_ORIGIN ["COM"]
properties('MP2/aug-cc-pvtz', properties = ['dipole'])
--------------------------------------------------------------------------

    Molecular point group: c1
  Charge       = 0
  Multiplicity = 1
  Basis Set: AUG-CC-PVTZ
    Blend: AUG-CC-PVTZ
  Basis Set: (AUG-CC-PVTZ AUX)
    Blend: AUG-CC-PVTZ-JKFIT

    Orbital Energies [Eh]
    ---------------------

    Doubly Occupied:

       1A    -20.577853     2A    -20.573289     3A    -20.572412
       4A    -20.503296     5A    -15.622021     6A    -15.588523
       7A    -15.541002     8A    -11.370142     9A    -11.345238
      10A    -11.331254    11A    -11.318515    12A    -11.300848
      13A    -11.297027    14A    -11.293481    15A    -11.237367
      16A    -11.237240    17A     -1.416940    18A     -1.382727
      19A     -1.374039    20A     -1.366413    21A     -1.292455
      22A     -1.261671    23A     -1.169313    24A     -1.079386
      25A     -1.069182    26A     -1.028233    27A     -0.927111
      28A     -0.897723    29A     -0.869447    30A     -0.831375
      31A     -0.806523    32A     -0.754495    33A     -0.738769
      34A     -0.721517    35A     -0.706666    36A     -0.693101
      37A     -0.690340    38A     -0.675971    39A     -0.656769
      40A     -0.637703    41A     -0.627945    42A     -0.618575
      43A     -0.604761    44A     -0.595594    45A     -0.588967
      46A     -0.573692    47A     -0.568397    48A     -0.545058
      49A     -0.532395    50A     -0.524062    51A     -0.510617
      52A     -0.485290    53A     -0.482460    54A     -0.468546
      55A     -0.461301    56A     -0.444682    57A     -0.438116
      58A     -0.416582    59A     -0.383955    60A     -0.335181

  @DF-RHF Final Energy:  -811.48016440074605

   => Energetics <=

    Nuclear Repulsion Energy =           1169.5986714833193219
    One-Electron Energy =               -3434.2305686212284854
    Two-Electron Energy =                1453.1517327371632291
    Total Energy =                       -811.4801644007459345
  Basis Set: (AUG-CC-PVTZ AUX)
    Blend: AUG-CC-PVTZ-RI
    Molecular point group: c1

    Geometry (in Angstrom), charge = 0, multiplicity = 1:

       Center              X                  Y                   Z               Mass
    ------------   -----------------  -----------------  -----------------  -----------------
         O            1.360701032292    -0.380350435223    -0.932940469771    15.994914619570
         O            3.219417032292     1.904810064777    -0.284634969771    15.994914619570
         O            2.798037032292    -2.749286435223    -0.401297469771    15.994914619570
         O           -1.363555967708     2.373665564777     0.153686530229    15.994914619570
         N           -0.799613967708     0.199078564777    -0.230352469771    14.003074004430
         N           -3.055541967708     0.804899564777     0.238915530229    14.003074004430
         N           -4.674779967708    -0.812774435223     0.411540530229    14.003074004430
         C            2.700225032292     0.875214564777     0.558377530229    12.000000000000
         C            1.235474032292     1.106886564777     0.886755530229    12.000000000000
         C            2.650449032292    -0.392630435223    -0.286566469771    12.000000000000
         C            0.572588032292     0.682664564777    -0.416012469771    12.000000000000
         C            2.800728032292    -1.660355435223     0.521373530229    12.000000000000
         C           -1.128706967708    -1.116158435223    -0.309372469771    12.000000000000
         C           -1.746057967708     1.203552564777     0.080948530229    12.000000000000
         C           -2.418676967708    -1.504900435223    -0.105638469771    12.000000000000
         C           -3.363361967708    -0.473499435223     0.167414530229    12.000000000000
         H            3.344440032292     0.770446164777     1.443302030229     1.007825032230
         H            0.903337032292     0.443489564777     1.692392530229     1.007825032230
         H            0.983959032292     2.133727564777     1.157050530229     1.007825032230
         H            0.526084032292     1.512914564777    -1.126009469771     1.007825032230
         H            3.416122032292    -0.364622435223    -1.067722469771     1.007825032230
         H            1.969379032292    -1.733523435223     1.242126530229     1.007825032230
         H            3.744719032292    -1.609854435223     1.087192530229     1.007825032230
         H            3.102481032292     2.745984564777     0.176886530229     1.007825032230
         H           -0.312109967708    -1.789540435223    -0.544794469771     1.007825032230
         H            2.908660032292    -3.565411435223     0.118115530229     1.007825032230
         H           -2.704837967708    -2.549423435223    -0.154346469771     1.007825032230
         H           -5.030080967708    -1.638081435223    -0.057815469771     1.007825032230
         H           -5.300840967708    -0.014137435223     0.385004530229     1.007825032230

  Basis Set: AUG-CC-PVTZ
    Blend: AUG-CC-PVTZ
  Basis Set: (AUG-CC-PVTZ AUX)
    Blend: AUG-CC-PVTZ-JKFIT
	 Reference Energy          =    -811.4801644007460482 [Eh]
	 Singles Energy            =      -0.0000000000000000 [Eh]
	 Same-Spin Energy          =      -0.8294361316121294 [Eh]
	 Opposite-Spin Energy      =      -2.5246710120669680 [Eh]
	 Correlation Energy        =      -3.3541071436790975 [Eh]
	 Total Energy              =    -814.8342715444251780 [Eh]

	 ================> DF-SCS-MP2 Energies <==================
	-----------------------------------------------------------
	 SCS Same-Spin Scale       =       0.3333333333333333 [-]
	 SCS Opposite-Spin Scale   =       1.2000000000000000 [-]
	 SCS Same-Spin Energy      =      -0.2764787105373764 [Eh]
	 SCS Opposite-Spin Energy  =      -3.0296052144803616 [Eh]
	 SCS Correlation Energy    =      -3.3060839250177381 [Eh]
	 SCS Total Energy          =    -814.7862483257638360 [Eh]
	-----------------------------------------------------------

  Dipole Moment: [D]
     X:     1.0129      Y:    -4.6965      Z:     2.4671     Total:     5.4009

*** Psi4 exiting successfully. Buy a developer a beer!
