                               Psi4 1.3.2 release

  ==> Input File <==

--------------------------------------------------------------------------
#psi4
#
memory 32 gb

molecule  {
0 1
  O        1.3620710    -0.3800110    -0.9318440
  O        3.2020570     1.9012130    -0.2995130
  O        2.7994070    -2.7489470    -0.4002010
  O       -1.3621860     2.3740050     0.1547830
  N       -0.7982440     0.1994180    -0.2292560
  N       -3.0541720     0.8052390     0.2400120
  N       -4.6734100    -0.8124350     0.4126370
  C        2.7116999     0.8800244     0.5520661
  C        1.2368440     1.1072260     0.8878520
  C        2.6518190    -0.3922910    -0.2854700
  C        0.5739580     0.6830040    -0.4149160
  C        2.8020980    -1.6600160     0.5224700
  C       -1.1273370    -1.1158190    -0.3082760
  C       -1.7446880     1.2038920     0.0820450
  C       -2.4173070    -1.5045610    -0.1045420
  C       -3.3619920    -0.4731600     0.1685110
  H        3.3343810     0.7567850     1.4508530
  H        0.9047070     0.4438290     1.6934890
  H        0.9853290     2.1340670     1.1581470
  H        0.5274540     1.5132540    -1.1249130
  H        3.4203051    -0.3557094    -1.0635029
  H        1.9707490    -1.7331840     1.2432230
  H        3.7460890    -1.6095150     1.0882890
  H        3.1038510     2.7463240     0.1779830
  H       -0.3107400    -1.7892010    -0.5436980
  H        2.9100300    -3.5650720     0.1192120
  H       -2.7034680    -2.5490840    -0.1532500
  H       -5.0287110    -1.6377420    -0.0567190
  H       -5.2994710    -0.0137980     0.3861010
units angstrom
no_reorient  #important for SAPT in psi4, default
symmetry c1  #important for SAPT in psi4, default
}

set PROPERTIES_ORIGIN ["COM"]
properties('MP2/aug-cc-pvtz', properties = ['dipole'])
--------------------------------------------------------------------------

    Molecular point group: c1
  Charge       = 0
  Multiplicity = 1
  Basis Set: AUG-CC-PVTZ
    Blend: AUG-CC-PVTZ
  Basis Set: (AUG-CC-PVTZ AUX)
    Blend: AUG-CC-PVTZ-JKFIT

    Orbital Energies [Eh]
    ---------------------

    Doubly Occupied:

       1A    -20.577637     2A    -20.575548     3A    -20.572831
       4A    -20.502873     5A    -15.621566     6A    -15.588240
       7A    -15.540661     8A    -11.369731     9A    -11.344897
      10A    -11.330442    11A    -11.318139    12A    -11.300824
      13A    -11.296900    14A    -11.292846    15A    -11.236874
      16A    -11.236577    17A     -1.416793    18A     -1.383079
      19A     -1.375404    20A     -1.367015    21A     -1.292077
      22A     -1.261268    23A     -1.168968    24A     -1.077618
      25A     -1.068322    26A     -1.027246    27A     -0.926519
      28A     -0.897396    29A     -0.869219    30A     -0.830823
      31A     -0.805976    32A     -0.754110    33A     -0.738517
      34A     -0.720596    35A     -0.707565    36A     -0.693349
      37A     -0.690319    38A     -0.675742    39A     -0.656565
      40A     -0.637048    41A     -0.627722    42A     -0.618642
      43A     -0.604509    44A     -0.595685    45A     -0.588739
      46A     -0.572931    47A     -0.569090    48A     -0.545007
      49A     -0.533357    50A     -0.523263    51A     -0.510734
      52A     -0.484788    53A     -0.481155    54A     -0.468241
      55A     -0.460178    56A     -0.443872    57A     -0.437842
      58A     -0.416142    59A     -0.383548    60A     -0.334753

  @DF-RHF Final Energy:  -811.47948300362691

   => Energetics <=

    Nuclear Repulsion Energy =           1169.8617659612805255
    One-Electron Energy =               -3434.7858663456468094
    Two-Electron Energy =                1453.4446173807393734
    Total Energy =                       -811.4794830036269104
  Basis Set: (AUG-CC-PVTZ AUX)
    Blend: AUG-CC-PVTZ-RI
    Molecular point group: c1

    Geometry (in Angstrom), charge = 0, multiplicity = 1:

       Center              X                  Y                   Z               Mass
    ------------   -----------------  -----------------  -----------------  -----------------
         O            1.361524532981    -0.380285312988    -0.931466375247    15.994914619570
         O            3.201510532981     1.900938687012    -0.299135375247    15.994914619570
         O            2.798860532981    -2.749221312988    -0.399823375247    15.994914619570
         O           -1.362732467019     2.373730687012     0.155160624753    15.994914619570
         N           -0.798790467019     0.199143687012    -0.228878375247    14.003074004430
         N           -3.054718467019     0.804964687012     0.240389624753    14.003074004430
         N           -4.673956467019    -0.812709312988     0.413014624753    14.003074004430
         C            2.711153432981     0.879750087012     0.552443724753    12.000000000000
         C            1.236297532981     1.106951687012     0.888229624753    12.000000000000
         C            2.651272532981    -0.392565312988    -0.285092375247    12.000000000000
         C            0.573411532981     0.682729687012    -0.414538375247    12.000000000000
         C            2.801551532981    -1.660290312988     0.522847624753    12.000000000000
         C           -1.127883467019    -1.116093312988    -0.307898375247    12.000000000000
         C           -1.745234467019     1.203617687012     0.082422624753    12.000000000000
         C           -2.417853467019    -1.504835312988    -0.104164375247    12.000000000000
         C           -3.362538467019    -0.473434312988     0.168888624753    12.000000000000
         H            3.333834532981     0.756510687012     1.451230624753     1.007825032230
         H            0.904160532981     0.443554687012     1.693866624753     1.007825032230
         H            0.984782532981     2.133792687012     1.158524624753     1.007825032230
         H            0.526907532981     1.512979687012    -1.124535375247     1.007825032230
         H            3.419758632981    -0.355983712988    -1.063125275247     1.007825032230
         H            1.970202532981    -1.733458312988     1.243600624753     1.007825032230
         H            3.745542532981    -1.609789312988     1.088666624753     1.007825032230
         H            3.103304532981     2.746049687012     0.178360624753     1.007825032230
         H           -0.311286467019    -1.789475312988    -0.543320375247     1.007825032230
         H            2.909483532981    -3.565346312988     0.119589624753     1.007825032230
         H           -2.704014467019    -2.549358312988    -0.152872375247     1.007825032230
         H           -5.029257467019    -1.638016312988    -0.056341375247     1.007825032230
         H           -5.300017467019    -0.014072312988     0.386478624753     1.007825032230

  Basis Set: AUG-CC-PVTZ
    Blend: AUG-CC-PVTZ
  Basis Set: (AUG-CC-PVTZ AUX)
    Blend: AUG-CC-PVTZ-JKFIT
	 Reference Energy          =    -811.4794830036269104 [Eh]
	 Singles Energy            =      -0.0000000000000000 [Eh]
	 Same-Spin Energy          =      -0.8296085440815879 [Eh]
	 Opposite-Spin Energy      =      -2.5249622173771762 [Eh]
	 Correlation Energy        =      -3.3545707614587643 [Eh]
	 Total Energy              =    -814.8340537650856277 [Eh]

	 ================> DF-SCS-MP2 Energies <==================
	-----------------------------------------------------------
	 SCS Same-Spin Scale       =       0.3333333333333333 [-]
	 SCS Opposite-Spin Scale   =       1.2000000000000000 [-]
	 SCS Same-Spin Energy      =      -0.2765361813605293 [Eh]
	 SCS Opposite-Spin Energy  =      -3.0299546608526113 [Eh]
	 SCS Correlation Energy    =      -3.3064908422131407 [Eh]
	 SCS Total Energy          =    -814.7859738458400898 [Eh]
	-----------------------------------------------------------

  Dipole Moment: [D]
     X:     1.1090      Y:    -4.6448      Z:     2.4731     Total:     5.3778

*** Psi4 exiting successfully. Buy a developer a beer!
