                               Psi4 1.3.2 release

  ==> Input File <==

--------------------------------------------------------------------------
#psi4
#
memory 32 gb

molecule  {
0 1
  O        1.3620710    -0.3800110    -0.9318440
  O        3.2020570     1.9012130    -0.2995130
  O        2.7994070    -2.7489470    -0.4002010
  O       -1.3621860     2.3740050     0.1547830
  N       -0.7982440     0.1994180    -0.2292560
  N       -3.0541720     0.8052390     0.2400120
  N       -4.6734100    -0.8124350     0.4126370
  C        2.7015950     0.8755540     0.5594740
  C        1.2314831     1.1085645     0.8619251
  C        2.6518190    -0.3922910    -0.2854700
  C        0.5739580     0.6830040    -0.4149160
  C        2.8020980    -1.6600160     0.5224700
  C       -1.1273370    -1.1158190    -0.3082760
  C       -1.7446880     1.2038920     0.0820450
  C       -2.4173070    -1.5045610    -0.1045420
  C       -3.3619920    -0.4731600     0.1685110
  H        3.3496751     0.7545096     1.4394860
  H        0.9047070     0.4438290     1.6934890
  H        0.9853290     2.1340670     1.1581470
  H        0.5274540     1.5132540    -1.1249130
  H        3.4174920    -0.3642830    -1.0666260
  H        1.9707490    -1.7331840     1.2432230
  H        3.7460890    -1.6095150     1.0882890
  H        3.1038510     2.7463240     0.1779830
  H       -0.3107400    -1.7892010    -0.5436980
  H        2.9100300    -3.5650720     0.1192120
  H       -2.7034680    -2.5490840    -0.1532500
  H       -5.0287110    -1.6377420    -0.0567190
  H       -5.2994710    -0.0137980     0.3861010
units angstrom
no_reorient  #important for SAPT in psi4, default
symmetry c1  #important for SAPT in psi4, default
}

set PROPERTIES_ORIGIN ["COM"]
properties('MP2/aug-cc-pvtz', properties = ['dipole'])
--------------------------------------------------------------------------

    Molecular point group: c1
  Charge       = 0
  Multiplicity = 1
  Basis Set: AUG-CC-PVTZ
    Blend: AUG-CC-PVTZ
  Basis Set: (AUG-CC-PVTZ AUX)
    Blend: AUG-CC-PVTZ-JKFIT

    Orbital Energies [Eh]
    ---------------------

    Doubly Occupied:

       1A    -20.577694     2A    -20.573504     3A    -20.572843
       4A    -20.503151     5A    -15.621881     6A    -15.588432
       7A    -15.540874     8A    -11.370031     9A    -11.345138
      10A    -11.329946    11A    -11.318435    12A    -11.300924
      13A    -11.296773    14A    -11.292847    15A    -11.237727
      16A    -11.237116    17A     -1.417338    18A     -1.382532
      19A     -1.373453    20A     -1.365669    21A     -1.292340
      22A     -1.261617    23A     -1.169281    24A     -1.080455
      25A     -1.068870    26A     -1.029412    27A     -0.927258
      28A     -0.897531    29A     -0.868942    30A     -0.829929
      31A     -0.807078    32A     -0.754371    33A     -0.739531
      34A     -0.721259    35A     -0.706922    36A     -0.693143
      37A     -0.688700    38A     -0.675617    39A     -0.656846
      40A     -0.637489    41A     -0.627595    42A     -0.618061
      43A     -0.604287    44A     -0.595215    45A     -0.589437
      46A     -0.574221    47A     -0.568306    48A     -0.544215
      49A     -0.531619    50A     -0.523570    51A     -0.509519
      52A     -0.484875    53A     -0.481947    54A     -0.468080
      55A     -0.461735    56A     -0.445104    57A     -0.438285
      58A     -0.416414    59A     -0.384110    60A     -0.335275

  @DF-RHF Final Energy:  -811.47843472284615

   => Energetics <=

    Nuclear Repulsion Energy =           1170.4085149785453268
    One-Electron Energy =               -3435.8643665735608010
    Two-Electron Energy =                1453.9774168721696697
    Total Energy =                       -811.4784347228460319
  Basis Set: (AUG-CC-PVTZ AUX)
    Blend: AUG-CC-PVTZ-RI
    Molecular point group: c1

    Geometry (in Angstrom), charge = 0, multiplicity = 1:

       Center              X                  Y                   Z               Mass
    ------------   -----------------  -----------------  -----------------  -----------------
         O            1.362286391602    -0.380071668335    -0.930423481004    15.994914619570
         O            3.202272391602     1.901152331665    -0.298092481004    15.994914619570
         O            2.799622391602    -2.749007668335    -0.398780481004    15.994914619570
         O           -1.361970608398     2.373944331665     0.156203518996    15.994914619570
         N           -0.798028608398     0.199357331665    -0.227835481004    14.003074004430
         N           -3.053956608398     0.805178331665     0.241432518996    14.003074004430
         N           -4.673194608398    -0.812495668335     0.414057518996    14.003074004430
         C            2.701810391602     0.875493331665     0.560894518996    12.000000000000
         C            1.231698491602     1.108503831665     0.863345618996    12.000000000000
         C            2.652034391602    -0.392351668335    -0.284049481004    12.000000000000
         C            0.574173391602     0.682943331665    -0.413495481004    12.000000000000
         C            2.802313391602    -1.660076668335     0.523890518996    12.000000000000
         C           -1.127121608398    -1.115879668335    -0.306855481004    12.000000000000
         C           -1.744472608398     1.203831331665     0.083465518996    12.000000000000
         C           -2.417091608398    -1.504621668335    -0.103121481004    12.000000000000
         C           -3.361776608398    -0.473220668335     0.169931518996    12.000000000000
         H            3.349890491602     0.754448931665     1.440906518996     1.007825032230
         H            0.904922391602     0.443768331665     1.694909518996     1.007825032230
         H            0.985544391602     2.134006331665     1.159567518996     1.007825032230
         H            0.527669391602     1.513193331665    -1.123492481004     1.007825032230
         H            3.417707391602    -0.364343668335    -1.065205481004     1.007825032230
         H            1.970964391602    -1.733244668335     1.244643518996     1.007825032230
         H            3.746304391602    -1.609575668335     1.089709518996     1.007825032230
         H            3.104066391602     2.746263331665     0.179403518996     1.007825032230
         H           -0.310524608398    -1.789261668335    -0.542277481004     1.007825032230
         H            2.910245391602    -3.565132668335     0.120632518996     1.007825032230
         H           -2.703252608398    -2.549144668335    -0.151829481004     1.007825032230
         H           -5.028495608398    -1.637802668335    -0.055298481004     1.007825032230
         H           -5.299255608398    -0.013858668335     0.387521518996     1.007825032230

  Basis Set: AUG-CC-PVTZ
    Blend: AUG-CC-PVTZ
  Basis Set: (AUG-CC-PVTZ AUX)
    Blend: AUG-CC-PVTZ-JKFIT
	 Reference Energy          =    -811.4784347228461456 [Eh]
	 Singles Energy            =      -0.0000000000000000 [Eh]
	 Same-Spin Energy          =      -0.8297833616567342 [Eh]
	 Opposite-Spin Energy      =      -2.5252273512049879 [Eh]
	 Correlation Energy        =      -3.3550107128617221 [Eh]
	 Total Energy              =    -814.8334454357078585 [Eh]

	 ================> DF-SCS-MP2 Energies <==================
	-----------------------------------------------------------
	 SCS Same-Spin Scale       =       0.3333333333333333 [-]
	 SCS Opposite-Spin Scale   =       1.2000000000000000 [-]
	 SCS Same-Spin Energy      =      -0.2765944538855780 [Eh]
	 SCS Opposite-Spin Energy  =      -3.0302728214459855 [Eh]
	 SCS Correlation Energy    =      -3.3068672753315633 [Eh]
	 SCS Total Energy          =    -814.7853019981777152 [Eh]
	-----------------------------------------------------------

  Dipole Moment: [D]
     X:     1.0720      Y:    -4.6782      Z:     2.4964     Total:     5.4099

*** Psi4 exiting successfully. Buy a developer a beer!
