                               Psi4 1.3.2 release

  ==> Input File <==

--------------------------------------------------------------------------
#psi4
#
memory 32 gb

molecule  {
0 1
  O        1.3620710    -0.3800110    -0.9318440
  O        3.2020570     1.9012130    -0.2995130
  O        2.7994070    -2.7489470    -0.4002010
  O       -1.3621860     2.3740050     0.1547830
  N       -0.7630127     0.2340167    -0.2298653
  N       -3.0661242     0.8509543     0.2489806
  N       -4.6734100    -0.8124350     0.4126370
  C        2.7015950     0.8755540     0.5594740
  C        1.2368440     1.1072260     0.8878520
  C        2.6518190    -0.3922910    -0.2854700
  C        0.5739580     0.6830040    -0.4149160
  C        2.8020980    -1.6600160     0.5224700
  C       -1.1273370    -1.1158190    -0.3082760
  C       -1.7446880     1.2038920     0.0820450
  C       -2.4173070    -1.5045610    -0.1045420
  C       -3.3619920    -0.4731600     0.1685110
  H        3.3343810     0.7567850     1.4508530
  H        0.9047070     0.4438290     1.6934890
  H        0.9853290     2.1340670     1.1581470
  H        0.5274540     1.5132540    -1.1249130
  H        3.4174920    -0.3642830    -1.0666260
  H        1.9707490    -1.7331840     1.2432230
  H        3.7460890    -1.6095150     1.0882890
  H        3.1038510     2.7463240     0.1779830
  H       -0.3107400    -1.7892010    -0.5436980
  H        2.9100300    -3.5650720     0.1192120
  H       -2.7034680    -2.5490840    -0.1532500
  H       -5.0287110    -1.6377420    -0.0567190
  H       -5.2994710    -0.0137980     0.3861010
units angstrom
no_reorient  #important for SAPT in psi4, default
symmetry c1  #important for SAPT in psi4, default
}

set PROPERTIES_ORIGIN ["COM"]
properties('MP2/aug-cc-pvtz', properties = ['dipole'])
--------------------------------------------------------------------------

    Molecular point group: c1
  Charge       = 0
  Multiplicity = 1
  Basis Set: AUG-CC-PVTZ
    Blend: AUG-CC-PVTZ
  Basis Set: (AUG-CC-PVTZ AUX)
    Blend: AUG-CC-PVTZ-JKFIT

    Orbital Energies [Eh]
    ---------------------

    Doubly Occupied:

       1A    -20.577353     2A    -20.572550     3A    -20.571528
       4A    -20.495328     5A    -15.621131     6A    -15.594617
       7A    -15.547295     8A    -11.364985     9A    -11.354258
      10A    -11.325690    11A    -11.325521    12A    -11.298852
      13A    -11.296173    14A    -11.291876    15A    -11.244760
      16A    -11.233668    17A     -1.416225    18A     -1.379233
      19A     -1.372634    20A     -1.363986    21A     -1.284927
      22A     -1.258945    23A     -1.166287    24A     -1.080126
      25A     -1.069809    26A     -1.026900    27A     -0.927688
      28A     -0.896756    29A     -0.864042    30A     -0.829470
      31A     -0.806154    32A     -0.755394    33A     -0.736647
      34A     -0.719785    35A     -0.708184    36A     -0.692669
      37A     -0.688431    38A     -0.675657    39A     -0.656408
      40A     -0.637862    41A     -0.625147    42A     -0.617738
      43A     -0.604040    44A     -0.595664    45A     -0.584893
      46A     -0.571992    47A     -0.566033    48A     -0.544043
      49A     -0.532203    50A     -0.522344    51A     -0.509015
      52A     -0.483876    53A     -0.477334    54A     -0.467613
      55A     -0.458357    56A     -0.443050    57A     -0.438285
      58A     -0.417741    59A     -0.380205    60A     -0.337848

  @DF-RHF Final Energy:  -811.47150248117669

   => Energetics <=

    Nuclear Repulsion Energy =           1168.9896416052918084
    One-Electron Energy =               -3433.1078432137346681
    Two-Electron Energy =                1452.6466991272664018
    Total Energy =                       -811.4715024811766853
  Basis Set: (AUG-CC-PVTZ AUX)
    Blend: AUG-CC-PVTZ-RI
    Molecular point group: c1

    Geometry (in Angstrom), charge = 0, multiplicity = 1:

       Center              X                  Y                   Z               Mass
    ------------   -----------------  -----------------  -----------------  -----------------
         O            1.360635526381    -0.384963434272    -0.932359424774    15.994914619570
         O            3.200621526381     1.896260565728    -0.300028424774    15.994914619570
         O            2.797971526381    -2.753899434272    -0.400716424774    15.994914619570
         O           -1.363621473619     2.369052565728     0.154267575226    15.994914619570
         N           -0.764448173619     0.229064265728    -0.230380724774    14.003074004430
         N           -3.067559673619     0.846001865728     0.248465175226    14.003074004430
         N           -4.674845473619    -0.817387434272     0.412121575226    14.003074004430
         C            2.700159526381     0.870601565728     0.558958575226    12.000000000000
         C            1.235408526381     1.102273565728     0.887336575226    12.000000000000
         C            2.650383526381    -0.397243434272    -0.285985424774    12.000000000000
         C            0.572522526381     0.678051565728    -0.415431424774    12.000000000000
         C            2.800662526381    -1.664968434272     0.521954575226    12.000000000000
         C           -1.128772473619    -1.120771434272    -0.308791424774    12.000000000000
         C           -1.746123473619     1.198939565728     0.081529575226    12.000000000000
         C           -2.418742473619    -1.509513434272    -0.105057424774    12.000000000000
         C           -3.363427473619    -0.478112434272     0.167995575226    12.000000000000
         H            3.332945526381     0.751832565728     1.450337575226     1.007825032230
         H            0.903271526381     0.438876565728     1.692973575226     1.007825032230
         H            0.983893526381     2.129114565728     1.157631575226     1.007825032230
         H            0.526018526381     1.508301565728    -1.125428424774     1.007825032230
         H            3.416056526381    -0.369235434272    -1.067141424774     1.007825032230
         H            1.969313526381    -1.738136434272     1.242707575226     1.007825032230
         H            3.744653526381    -1.614467434272     1.087773575226     1.007825032230
         H            3.102415526381     2.741371565728     0.177467575226     1.007825032230
         H           -0.312175473619    -1.794153434272    -0.544213424774     1.007825032230
         H            2.908594526381    -3.570024434272     0.118696575226     1.007825032230
         H           -2.704903473619    -2.554036434272    -0.153765424774     1.007825032230
         H           -5.030146473619    -1.642694434272    -0.057234424774     1.007825032230
         H           -5.300906473619    -0.018750434272     0.385585575226     1.007825032230

  Basis Set: AUG-CC-PVTZ
    Blend: AUG-CC-PVTZ
  Basis Set: (AUG-CC-PVTZ AUX)
    Blend: AUG-CC-PVTZ-JKFIT
	 Reference Energy          =    -811.4715024811766853 [Eh]
	 Singles Energy            =      -0.0000000000000000 [Eh]
	 Same-Spin Energy          =      -0.8298769845125502 [Eh]
	 Opposite-Spin Energy      =      -2.5264500703293509 [Eh]
	 Correlation Energy        =      -3.3563270548419011 [Eh]
	 Total Energy              =    -814.8278295360186121 [Eh]

	 ================> DF-SCS-MP2 Energies <==================
	-----------------------------------------------------------
	 SCS Same-Spin Scale       =       0.3333333333333333 [-]
	 SCS Opposite-Spin Scale   =       1.2000000000000000 [-]
	 SCS Same-Spin Energy      =      -0.2766256615041834 [Eh]
	 SCS Opposite-Spin Energy  =      -3.0317400843952211 [Eh]
	 SCS Correlation Energy    =      -3.3083657458994047 [Eh]
	 SCS Total Energy          =    -814.7798682270761219 [Eh]
	-----------------------------------------------------------

  Dipole Moment: [D]
     X:     0.7637      Y:    -4.9831      Z:     2.4922     Total:     5.6237

*** Psi4 exiting successfully. Buy a developer a beer!
