                               Psi4 1.3.2 release

  ==> Input File <==

--------------------------------------------------------------------------
#psi4
#
memory 32 gb

molecule  {
0 1
  O        1.3620710    -0.3800110    -0.9318440
  O        3.2020570     1.9012130    -0.2995130
  O        2.7994070    -2.7489470    -0.4002010
  O       -1.3621860     2.3740050     0.1547830
  N       -0.7982440     0.1994180    -0.2292560
  N       -2.9891354     0.7885983     0.2243093
  N       -4.6556795    -0.8813764     0.4014360
  C        2.7015950     0.8755540     0.5594740
  C        1.2368440     1.1072260     0.8878520
  C        2.6518190    -0.3922910    -0.2854700
  C        0.5739580     0.6830040    -0.4149160
  C        2.8020980    -1.6600160     0.5224700
  C       -1.1273370    -1.1158190    -0.3082760
  C       -1.7446880     1.2038920     0.0820450
  C       -2.4173070    -1.5045610    -0.1045420
  C       -3.3619920    -0.4731600     0.1685110
  H        3.3343810     0.7567850     1.4508530
  H        0.9047070     0.4438290     1.6934890
  H        0.9853290     2.1340670     1.1581470
  H        0.5274540     1.5132540    -1.1249130
  H        3.4174920    -0.3642830    -1.0666260
  H        1.9707490    -1.7331840     1.2432230
  H        3.7460890    -1.6095150     1.0882890
  H        3.1038510     2.7463240     0.1779830
  H       -0.3107400    -1.7892010    -0.5436980
  H        2.9100300    -3.5650720     0.1192120
  H       -2.7034680    -2.5490840    -0.1532500
  H       -5.0287110    -1.6377420    -0.0567190
  H       -5.2994710    -0.0137980     0.3861010
units angstrom
no_reorient  #important for SAPT in psi4, default
symmetry c1  #important for SAPT in psi4, default
}

set PROPERTIES_ORIGIN ["COM"]
properties('MP2/aug-cc-pvtz', properties = ['dipole'])
--------------------------------------------------------------------------

    Molecular point group: c1
  Charge       = 0
  Multiplicity = 1
  Basis Set: AUG-CC-PVTZ
    Blend: AUG-CC-PVTZ
  Basis Set: (AUG-CC-PVTZ AUX)
    Blend: AUG-CC-PVTZ-JKFIT

    Orbital Energies [Eh]
    ---------------------

    Doubly Occupied:

       1A    -20.576866     2A    -20.573204     3A    -20.571042
       4A    -20.496836     5A    -15.618344     6A    -15.595217
       7A    -15.536502     8A    -11.363921     9A    -11.351878
      10A    -11.328322    11A    -11.315985    12A    -11.299580
      13A    -11.295838    14A    -11.291756    15A    -11.235236
      16A    -11.233912    17A     -1.415232    18A     -1.383131
      19A     -1.372576    20A     -1.364710    21A     -1.293378
      22A     -1.260062    23A     -1.184482    24A     -1.077493
      25A     -1.067714    26A     -1.027437    27A     -0.928850
      28A     -0.894371    29A     -0.878113    30A     -0.833841
      31A     -0.804598    32A     -0.753391    33A     -0.738749
      34A     -0.725065    35A     -0.716437    36A     -0.692748
      37A     -0.689935    38A     -0.674176    39A     -0.653872
      40A     -0.636649    41A     -0.628852    42A     -0.613376
      43A     -0.604160    44A     -0.593415    45A     -0.587962
      46A     -0.571168    47A     -0.567937    48A     -0.543944
      49A     -0.532791    50A     -0.522236    51A     -0.510237
      52A     -0.484440    53A     -0.481407    54A     -0.467471
      55A     -0.459783    56A     -0.440926    57A     -0.431593
      58A     -0.413866    59A     -0.387849    60A     -0.333798

  @DF-RHF Final Energy:  -811.46857206836444

   => Energetics <=

    Nuclear Repulsion Energy =           1171.8516870045707492
    One-Electron Energy =               -3438.7831960089656604
    Two-Electron Energy =                1455.4629369360302462
    Total Energy =                       -811.4685720683644377
  Basis Set: (AUG-CC-PVTZ AUX)
    Blend: AUG-CC-PVTZ-RI
    Molecular point group: c1

    Geometry (in Angstrom), charge = 0, multiplicity = 1:

       Center              X                  Y                   Z               Mass
    ------------   -----------------  -----------------  -----------------  -----------------
         O            1.356967321512    -0.374733793305    -0.930185004583    15.994914619570
         O            3.196953321512     1.906490206695    -0.297854004583    15.994914619570
         O            2.794303321512    -2.743669793305    -0.398542004583    15.994914619570
         O           -1.367289678488     2.379282206695     0.156441995417    15.994914619570
         N           -0.803347678488     0.204695206695    -0.227597004583    14.003074004430
         N           -2.994239078488     0.793875506695     0.225968295417    14.003074004430
         N           -4.660783178488    -0.876099193305     0.403094995417    14.003074004430
         C            2.696491321512     0.880831206695     0.561132995417    12.000000000000
         C            1.231740321512     1.112503206695     0.889510995417    12.000000000000
         C            2.646715321512    -0.387013793305    -0.283811004583    12.000000000000
         C            0.568854321512     0.688281206695    -0.413257004583    12.000000000000
         C            2.796994321512    -1.654738793305     0.524128995417    12.000000000000
         C           -1.132440678488    -1.110541793305    -0.306617004583    12.000000000000
         C           -1.749791678488     1.209169206695     0.083703995417    12.000000000000
         C           -2.422410678488    -1.499283793305    -0.102883004583    12.000000000000
         C           -3.367095678488    -0.467882793305     0.170169995417    12.000000000000
         H            3.329277321512     0.762062206695     1.452511995417     1.007825032230
         H            0.899603321512     0.449106206695     1.695147995417     1.007825032230
         H            0.980225321512     2.139344206695     1.159805995417     1.007825032230
         H            0.522350321512     1.518531206695    -1.123254004583     1.007825032230
         H            3.412388321512    -0.359005793305    -1.064967004583     1.007825032230
         H            1.965645321512    -1.727906793305     1.244881995417     1.007825032230
         H            3.740985321512    -1.604237793305     1.089947995417     1.007825032230
         H            3.098747321512     2.751601206695     0.179641995417     1.007825032230
         H           -0.315843678488    -1.783923793305    -0.542039004583     1.007825032230
         H            2.904926321512    -3.559794793305     0.120870995417     1.007825032230
         H           -2.708571678488    -2.543806793305    -0.151591004583     1.007825032230
         H           -5.033814678488    -1.632464793305    -0.055060004583     1.007825032230
         H           -5.304574678488    -0.008520793305     0.387759995417     1.007825032230

  Basis Set: AUG-CC-PVTZ
    Blend: AUG-CC-PVTZ
  Basis Set: (AUG-CC-PVTZ AUX)
    Blend: AUG-CC-PVTZ-JKFIT
	 Reference Energy          =    -811.4685720683644377 [Eh]
	 Singles Energy            =      -0.0000000000000000 [Eh]
	 Same-Spin Energy          =      -0.8303091508771540 [Eh]
	 Opposite-Spin Energy      =      -2.5249700250509464 [Eh]
	 Correlation Energy        =      -3.3552791759281004 [Eh]
	 Total Energy              =    -814.8238512442925412 [Eh]

	 ================> DF-SCS-MP2 Energies <==================
	-----------------------------------------------------------
	 SCS Same-Spin Scale       =       0.3333333333333333 [-]
	 SCS Opposite-Spin Scale   =       1.2000000000000000 [-]
	 SCS Same-Spin Energy      =      -0.2767697169590513 [Eh]
	 SCS Opposite-Spin Energy  =      -3.0299640300611355 [Eh]
	 SCS Correlation Energy    =      -3.3067337470201865 [Eh]
	 SCS Total Energy          =    -814.7753058153846268 [Eh]
	-----------------------------------------------------------

  Dipole Moment: [D]
     X:     0.7551      Y:    -4.7167      Z:     2.5228     Total:     5.4021

*** Psi4 exiting successfully. Buy a developer a beer!
