                               Psi4 1.3.2 release

  ==> Input File <==

--------------------------------------------------------------------------
#psi4
#
memory 32 gb

molecule  {
0 1
  O        1.3620710    -0.3800110    -0.9318440
  O        3.1449753     1.8875343    -0.3458475
  O        2.7994070    -2.7489470    -0.4002010
  O       -1.3621860     2.3740050     0.1547830
  N       -0.7982440     0.1994180    -0.2292560
  N       -3.0541720     0.8052390     0.2400120
  N       -4.6734100    -0.8124350     0.4126370
  C        2.7015950     0.8755540     0.5594740
  C        1.2368440     1.1072260     0.8878520
  C        2.6518190    -0.3922910    -0.2854700
  C        0.5739580     0.6830040    -0.4149160
  C        2.8020980    -1.6600160     0.5224700
  C       -1.1273370    -1.1158190    -0.3082760
  C       -1.7446880     1.2038920     0.0820450
  C       -2.4173070    -1.5045610    -0.1045420
  C       -3.3619920    -0.4731600     0.1685110
  H        3.2989518     0.7150174     1.4685799
  H        0.9047070     0.4438290     1.6934890
  H        0.9853290     2.1340670     1.1581470
  H        0.5274540     1.5132540    -1.1249130
  H        3.4174920    -0.3642830    -1.0666260
  H        1.9707490    -1.7331840     1.2432230
  H        3.7460890    -1.6095150     1.0882890
  H        3.1038510     2.7463240     0.1779830
  H       -0.3107400    -1.7892010    -0.5436980
  H        2.9100300    -3.5650720     0.1192120
  H       -2.7034680    -2.5490840    -0.1532500
  H       -5.0287110    -1.6377420    -0.0567190
  H       -5.2994710    -0.0137980     0.3861010
units angstrom
no_reorient  #important for SAPT in psi4, default
symmetry c1  #important for SAPT in psi4, default
}

set PROPERTIES_ORIGIN ["COM"]
properties('MP2/aug-cc-pvtz', properties = ['dipole'])
--------------------------------------------------------------------------

    Molecular point group: c1
  Charge       = 0
  Multiplicity = 1
  Basis Set: AUG-CC-PVTZ
    Blend: AUG-CC-PVTZ
  Basis Set: (AUG-CC-PVTZ AUX)
    Blend: AUG-CC-PVTZ-JKFIT

    Orbital Energies [Eh]
    ---------------------

    Doubly Occupied:

       1A    -20.580431     2A    -20.577425     3A    -20.571634
       4A    -20.502264     5A    -15.620814     6A    -15.587817
       7A    -15.540144     8A    -11.369113     9A    -11.344384
      10A    -11.329150    11A    -11.317553    12A    -11.300799
      13A    -11.296334    14A    -11.291796    15A    -11.236318
      16A    -11.235054    17A     -1.415850    18A     -1.381541
      19A     -1.372387    20A     -1.363208    21A     -1.291495
      22A     -1.260634    23A     -1.168453    24A     -1.077706
      25A     -1.068105    26A     -1.027124    27A     -0.925777
      28A     -0.896629    29A     -0.867586    30A     -0.829061
      31A     -0.806068    32A     -0.753426    33A     -0.738742
      34A     -0.719416    35A     -0.706688    36A     -0.692138
      37A     -0.685086    38A     -0.675213    39A     -0.656098
      40A     -0.635470    41A     -0.626448    42A     -0.618383
      43A     -0.603966    44A     -0.593709    45A     -0.587756
      46A     -0.570362    47A     -0.569516    48A     -0.544231
      49A     -0.533038    50A     -0.522633    51A     -0.509771
      52A     -0.487065    53A     -0.480806    54A     -0.468196
      55A     -0.460062    56A     -0.443741    57A     -0.436907
      58A     -0.415574    59A     -0.383039    60A     -0.334139

  @DF-RHF Final Energy:  -811.47359106433555

   => Energetics <=

    Nuclear Repulsion Energy =           1171.0071675659107768
    One-Electron Energy =               -3437.1529654321875569
    Two-Electron Energy =                1454.6722068019410017
    Total Energy =                       -811.4735910643355510
  Basis Set: (AUG-CC-PVTZ AUX)
    Blend: AUG-CC-PVTZ-RI
    Molecular point group: c1

    Geometry (in Angstrom), charge = 0, multiplicity = 1:

       Center              X                  Y                   Z               Mass
    ------------   -----------------  -----------------  -----------------  -----------------
         O            1.366248714595    -0.378862226556    -0.928659110307    15.994914619570
         O            3.149153014595     1.888683073444    -0.342662610307    15.994914619570
         O            2.803584714595    -2.747798226556    -0.397016110307    15.994914619570
         O           -1.358008285405     2.375153773444     0.157967889693    15.994914619570
         N           -0.794066285405     0.200566773444    -0.226071110307    14.003074004430
         N           -3.049994285405     0.806387773444     0.243196889693    14.003074004430
         N           -4.669232285405    -0.811286226556     0.415821889693    14.003074004430
         C            2.705772714595     0.876702773444     0.562658889693    12.000000000000
         C            1.241021714595     1.108374773444     0.891036889693    12.000000000000
         C            2.655996714595    -0.391142226556    -0.282285110307    12.000000000000
         C            0.578135714595     0.684152773444    -0.411731110307    12.000000000000
         C            2.806275714595    -1.658867226556     0.525654889693    12.000000000000
         C           -1.123159285405    -1.114670226556    -0.305091110307    12.000000000000
         C           -1.740510285405     1.205040773444     0.085229889693    12.000000000000
         C           -2.413129285405    -1.503412226556    -0.101357110307    12.000000000000
         C           -3.357814285405    -0.472011226556     0.171695889693    12.000000000000
         H            3.303129514595     0.716166173444     1.471764789693     1.007825032230
         H            0.908884714595     0.444977773444     1.696673889693     1.007825032230
         H            0.989506714595     2.135215773444     1.161331889693     1.007825032230
         H            0.531631714595     1.514402773444    -1.121728110307     1.007825032230
         H            3.421669714595    -0.363134226556    -1.063441110307     1.007825032230
         H            1.974926714595    -1.732035226556     1.246407889693     1.007825032230
         H            3.750266714595    -1.608366226556     1.091473889693     1.007825032230
         H            3.108028714595     2.747472773444     0.181167889693     1.007825032230
         H           -0.306562285405    -1.788052226556    -0.540513110307     1.007825032230
         H            2.914207714595    -3.563923226556     0.122396889693     1.007825032230
         H           -2.699290285405    -2.547935226556    -0.150065110307     1.007825032230
         H           -5.024533285405    -1.636593226556    -0.053534110307     1.007825032230
         H           -5.295293285405    -0.012649226556     0.389285889693     1.007825032230

  Basis Set: AUG-CC-PVTZ
    Blend: AUG-CC-PVTZ
  Basis Set: (AUG-CC-PVTZ AUX)
    Blend: AUG-CC-PVTZ-JKFIT
	 Reference Energy          =    -811.4735910643355510 [Eh]
	 Singles Energy            =      -0.0000000000000000 [Eh]
	 Same-Spin Energy          =      -0.8304701756234155 [Eh]
	 Opposite-Spin Energy      =      -2.5268823583108433 [Eh]
	 Correlation Energy        =      -3.3573525339342587 [Eh]
	 Total Energy              =    -814.8309435982697551 [Eh]

	 ================> DF-SCS-MP2 Energies <==================
	-----------------------------------------------------------
	 SCS Same-Spin Scale       =       0.3333333333333333 [-]
	 SCS Opposite-Spin Scale   =       1.2000000000000000 [-]
	 SCS Same-Spin Energy      =      -0.2768233918744718 [Eh]
	 SCS Opposite-Spin Energy  =      -3.0322588299730118 [Eh]
	 SCS Correlation Energy    =      -3.3090822218474836 [Eh]
	 SCS Total Energy          =    -814.7826732861830124 [Eh]
	-----------------------------------------------------------

  Dipole Moment: [D]
     X:     1.2601      Y:    -4.6212      Z:     2.5454     Total:     5.4243

*** Psi4 exiting successfully. Buy a developer a beer!
