                               Psi4 1.3.2 release

  ==> Input File <==

--------------------------------------------------------------------------
#psi4
#
memory 32 gb

molecule  {
0 1
  O        1.3620710    -0.3800110    -0.9318440
  O        3.2020570     1.9012130    -0.2995130
  O        2.7994070    -2.7489470    -0.4002010
  O       -1.3621860     2.3740050     0.1547830
  N       -0.7982440     0.1994180    -0.2292560
  N       -3.0541720     0.8052390     0.2400120
  N       -4.6734100    -0.8124350     0.4126370
  C        2.7015950     0.8755540     0.5594740
  C        1.0439716     1.1377316     0.9310915
  C        2.6518190    -0.3922910    -0.2854700
  C        0.5739580     0.6830040    -0.4149160
  C        2.8020980    -1.6600160     0.5224700
  C       -1.1273370    -1.1158190    -0.3082760
  C       -1.7446880     1.2038920     0.0820450
  C       -2.4173070    -1.5045610    -0.1045420
  C       -3.3619920    -0.4731600     0.1685110
  H        3.3343810     0.7567850     1.4508530
  H        0.9047070     0.4438290     1.6934890
  H        0.9853290     2.1340670     1.1581470
  H        0.5274540     1.5132540    -1.1249130
  H        3.4174920    -0.3642830    -1.0666260
  H        1.9707490    -1.7331840     1.2432230
  H        3.7460890    -1.6095150     1.0882890
  H        3.1038510     2.7463240     0.1779830
  H       -0.3107400    -1.7892010    -0.5436980
  H        2.9100300    -3.5650720     0.1192120
  H       -2.7034680    -2.5490840    -0.1532500
  H       -5.0287110    -1.6377420    -0.0567190
  H       -5.2994710    -0.0137980     0.3861010
units angstrom
no_reorient  #important for SAPT in psi4, default
symmetry c1  #important for SAPT in psi4, default
}

set PROPERTIES_ORIGIN ["COM"]
properties('MP2/aug-cc-pvtz', properties = ['dipole'])
--------------------------------------------------------------------------

    Molecular point group: c1
  Charge       = 0
  Multiplicity = 1
  Basis Set: AUG-CC-PVTZ
    Blend: AUG-CC-PVTZ
  Basis Set: (AUG-CC-PVTZ AUX)
    Blend: AUG-CC-PVTZ-JKFIT

    Orbital Energies [Eh]
    ---------------------

    Doubly Occupied:

       1A    -20.578291     2A    -20.576056     3A    -20.575940
       4A    -20.501962     5A    -15.618484     6A    -15.587065
       7A    -15.539675     8A    -11.368451     9A    -11.343441
      10A    -11.331960    11A    -11.316498    12A    -11.306712
      13A    -11.297442    14A    -11.293834    15A    -11.237106
      16A    -11.235314    17A     -1.415988    18A     -1.381620
      19A     -1.373104    20A     -1.365562    21A     -1.291076
      22A     -1.260771    23A     -1.168398    24A     -1.076564
      25A     -1.058508    26A     -1.026785    27A     -0.921704
      28A     -0.896724    29A     -0.871996    30A     -0.836109
      31A     -0.802664    32A     -0.753432    33A     -0.735215
      34A     -0.721325    35A     -0.704878    36A     -0.695305
      37A     -0.688937    38A     -0.676409    39A     -0.656570
      40A     -0.633602    41A     -0.629853    42A     -0.615097
      43A     -0.608637    44A     -0.595186    45A     -0.590943
      46A     -0.570627    47A     -0.566478    48A     -0.558696
      49A     -0.536588    50A     -0.530923    51A     -0.516360
      52A     -0.482786    53A     -0.478578    54A     -0.468474
      55A     -0.450942    56A     -0.439519    57A     -0.427297
      58A     -0.409471    59A     -0.380322    60A     -0.332803

  @DF-RHF Final Energy:  -811.44843174432219

   => Energetics <=

    Nuclear Repulsion Energy =           1168.9846884778646654
    One-Electron Energy =               -3433.0441204100143295
    Two-Electron Energy =                1452.6110001878275853
    Total Energy =                       -811.4484317443223063
  Basis Set: (AUG-CC-PVTZ AUX)
    Blend: AUG-CC-PVTZ-RI
    Molecular point group: c1

    Geometry (in Angstrom), charge = 0, multiplicity = 1:

       Center              X                  Y                   Z               Mass
    ------------   -----------------  -----------------  -----------------  -----------------
         O            1.372262813866    -0.381623024471    -0.934128842323    15.994914619570
         O            3.212248813866     1.899600975529    -0.301797842323    15.994914619570
         O            2.809598813866    -2.750559024471    -0.402485842323    15.994914619570
         O           -1.351994186134     2.372392975529     0.152498157677    15.994914619570
         N           -0.788052186134     0.197805975529    -0.231540842323    14.003074004430
         N           -3.043980186134     0.803626975529     0.237727157677    14.003074004430
         N           -4.663218186134    -0.814047024471     0.410352157677    14.003074004430
         C            2.711786813866     0.873941975529     0.557189157677    12.000000000000
         C            1.054163413866     1.136119575529     0.928806657677    12.000000000000
         C            2.662010813866    -0.393903024471    -0.287754842323    12.000000000000
         C            0.584149813866     0.681391975529    -0.417200842323    12.000000000000
         C            2.812289813866    -1.661628024471     0.520185157677    12.000000000000
         C           -1.117145186134    -1.117431024471    -0.310560842323    12.000000000000
         C           -1.734496186134     1.202279975529     0.079760157677    12.000000000000
         C           -2.407115186134    -1.506173024471    -0.106826842323    12.000000000000
         C           -3.351800186134    -0.474772024471     0.166226157677    12.000000000000
         H            3.344572813866     0.755172975529     1.448568157677     1.007825032230
         H            0.914898813866     0.442216975529     1.691204157677     1.007825032230
         H            0.995520813866     2.132454975529     1.155862157677     1.007825032230
         H            0.537645813866     1.511641975529    -1.127197842323     1.007825032230
         H            3.427683813866    -0.365895024471    -1.068910842323     1.007825032230
         H            1.980940813866    -1.734796024471     1.240938157677     1.007825032230
         H            3.756280813866    -1.611127024471     1.086004157677     1.007825032230
         H            3.114042813866     2.744711975529     0.175698157677     1.007825032230
         H           -0.300548186134    -1.790813024471    -0.545982842323     1.007825032230
         H            2.920221813866    -3.566684024471     0.116927157677     1.007825032230
         H           -2.693276186134    -2.550696024471    -0.155534842323     1.007825032230
         H           -5.018519186134    -1.639354024471    -0.059003842323     1.007825032230
         H           -5.289279186134    -0.015410024471     0.383816157677     1.007825032230

  Basis Set: AUG-CC-PVTZ
    Blend: AUG-CC-PVTZ
  Basis Set: (AUG-CC-PVTZ AUX)
    Blend: AUG-CC-PVTZ-JKFIT
	 Reference Energy          =    -811.4484317443221926 [Eh]
	 Singles Energy            =      -0.0000000000000000 [Eh]
	 Same-Spin Energy          =      -0.8307635131552287 [Eh]
	 Opposite-Spin Energy      =      -2.5281729595320126 [Eh]
	 Correlation Energy        =      -3.3589364726872413 [Eh]
	 Total Energy              =    -814.8073682170094116 [Eh]

	 ================> DF-SCS-MP2 Energies <==================
	-----------------------------------------------------------
	 SCS Same-Spin Scale       =       0.3333333333333333 [-]
	 SCS Opposite-Spin Scale   =       1.2000000000000000 [-]
	 SCS Same-Spin Energy      =      -0.2769211710517429 [Eh]
	 SCS Opposite-Spin Energy  =      -3.0338075514384149 [Eh]
	 SCS Correlation Energy    =      -3.3107287224901576 [Eh]
	 SCS Total Energy          =    -814.7591604668123182 [Eh]
	-----------------------------------------------------------

  Dipole Moment: [D]
     X:     1.3527      Y:    -4.6002      Z:     2.4581     Total:     5.3883

*** Psi4 exiting successfully. Buy a developer a beer!
