                               Psi4 1.3.2 release

  ==> Input File <==

--------------------------------------------------------------------------
#psi4
#
memory 32 gb

molecule  {
0 1
  O        1.3620710    -0.3800110    -0.9318440
  O        3.2020570     1.9012130    -0.2995130
  O        2.7994070    -2.7489470    -0.4002010
  O       -1.3621860     2.3740050     0.1547830
  N       -0.7982440     0.1994180    -0.2292560
  N       -3.0541720     0.8052390     0.2400120
  N       -4.6734100    -0.8124350     0.4126370
  C        2.7015950     0.8755540     0.5594740
  C        1.2368440     1.1072260     0.8878520
  C        2.6551350    -0.4022661    -0.2923988
  C        0.5646865     0.6797300    -0.4224674
  C        2.8020980    -1.6600160     0.5224700
  C       -1.1273370    -1.1158190    -0.3082760
  C       -1.7446880     1.2038920     0.0820450
  C       -2.4173070    -1.5045610    -0.1045420
  C       -3.3619920    -0.4731600     0.1685110
  H        3.3343810     0.7567850     1.4508530
  H        0.9047070     0.4438290     1.6934890
  H        0.9853290     2.1340670     1.1581470
  H        0.5274540     1.5132540    -1.1249130
  H        3.4174920    -0.3642830    -1.0666260
  H        1.9707490    -1.7331840     1.2432230
  H        3.7460890    -1.6095150     1.0882890
  H        3.1038510     2.7463240     0.1779830
  H       -0.3107400    -1.7892010    -0.5436980
  H        2.9100300    -3.5650720     0.1192120
  H       -2.7034680    -2.5490840    -0.1532500
  H       -5.0287110    -1.6377420    -0.0567190
  H       -5.2994710    -0.0137980     0.3861010
units angstrom
no_reorient  #important for SAPT in psi4, default
symmetry c1  #important for SAPT in psi4, default
}

set PROPERTIES_ORIGIN ["COM"]
properties('MP2/aug-cc-pvtz', properties = ['dipole'])
--------------------------------------------------------------------------

    Molecular point group: c1
  Charge       = 0
  Multiplicity = 1
  Basis Set: AUG-CC-PVTZ
    Blend: AUG-CC-PVTZ
  Basis Set: (AUG-CC-PVTZ AUX)
    Blend: AUG-CC-PVTZ-JKFIT

    Orbital Energies [Eh]
    ---------------------

    Doubly Occupied:

       1A    -20.577497     2A    -20.573720     3A    -20.571956
       4A    -20.503444     5A    -15.622318     6A    -15.588630
       7A    -15.541173     8A    -11.370380     9A    -11.345372
      10A    -11.330363    11A    -11.318660    12A    -11.300539
      13A    -11.296519    14A    -11.292818    15A    -11.237406
      16A    -11.236329    17A     -1.415787    18A     -1.382771
      19A     -1.373279    20A     -1.365208    21A     -1.292767
      22A     -1.262540    23A     -1.169649    24A     -1.077318
      25A     -1.068266    26A     -1.027437    27A     -0.927125
      28A     -0.897944    29A     -0.868726    30A     -0.830658
      31A     -0.806652    32A     -0.754852    33A     -0.738745
      34A     -0.720505    35A     -0.706676    36A     -0.692864
      37A     -0.688652    38A     -0.676307    39A     -0.657056
      40A     -0.636945    41A     -0.627589    42A     -0.618742
      43A     -0.605075    44A     -0.595322    45A     -0.588763
      46A     -0.573143    47A     -0.569490    48A     -0.544661
      49A     -0.532098    50A     -0.523231    51A     -0.509716
      52A     -0.482913    53A     -0.481570    54A     -0.468317
      55A     -0.461014    56A     -0.444497    57A     -0.437938
      58A     -0.416914    59A     -0.383793    60A     -0.335136

  @DF-RHF Final Energy:  -811.47935754285663

   => Energetics <=

    Nuclear Repulsion Energy =           1169.7727297358242140
    One-Electron Energy =               -3434.6126204218057865
    Two-Electron Energy =                1453.3605331431249397
    Total Energy =                       -811.4793575428566328
  Basis Set: (AUG-CC-PVTZ AUX)
    Blend: AUG-CC-PVTZ-RI
    Molecular point group: c1

    Geometry (in Angstrom), charge = 0, multiplicity = 1:

       Center              X                  Y                   Z               Mass
    ------------   -----------------  -----------------  -----------------  -----------------
         O            1.362385686668    -0.379310923546    -0.931078798059    15.994914619570
         O            3.202371686668     1.901913076454    -0.298747798059    15.994914619570
         O            2.799721686668    -2.748246923546    -0.399435798059    15.994914619570
         O           -1.361871313332     2.374705076454     0.155548201941    15.994914619570
         N           -0.797929313332     0.200118076454    -0.228490798059    14.003074004430
         N           -3.053857313332     0.805939076454     0.240777201941    14.003074004430
         N           -4.673095313332    -0.811734923546     0.413402201941    14.003074004430
         C            2.701909686668     0.876254076454     0.560239201941    12.000000000000
         C            1.237158686668     1.107926076454     0.888617201941    12.000000000000
         C            2.655449686668    -0.401566023546    -0.291633598059    12.000000000000
         C            0.565001186668     0.680430076454    -0.421702198059    12.000000000000
         C            2.802412686668    -1.659315923546     0.523235201941    12.000000000000
         C           -1.127022313332    -1.115118923546    -0.307510798059    12.000000000000
         C           -1.744373313332     1.204592076454     0.082810201941    12.000000000000
         C           -2.416992313332    -1.503860923546    -0.103776798059    12.000000000000
         C           -3.361677313332    -0.472459923546     0.169276201941    12.000000000000
         H            3.334695686668     0.757485076454     1.451618201941     1.007825032230
         H            0.905021686668     0.444529076454     1.694254201941     1.007825032230
         H            0.985643686668     2.134767076454     1.158912201941     1.007825032230
         H            0.527768686668     1.513954076454    -1.124147798059     1.007825032230
         H            3.417806686668    -0.363582923546    -1.065860798059     1.007825032230
         H            1.971063686668    -1.732483923546     1.243988201941     1.007825032230
         H            3.746403686668    -1.608814923546     1.089054201941     1.007825032230
         H            3.104165686668     2.747024076454     0.178748201941     1.007825032230
         H           -0.310425313332    -1.788500923546    -0.542932798059     1.007825032230
         H            2.910344686668    -3.564371923546     0.119977201941     1.007825032230
         H           -2.703153313332    -2.548383923546    -0.152484798059     1.007825032230
         H           -5.028396313332    -1.637041923546    -0.055953798059     1.007825032230
         H           -5.299156313332    -0.013097923546     0.386866201941     1.007825032230

  Basis Set: AUG-CC-PVTZ
    Blend: AUG-CC-PVTZ
  Basis Set: (AUG-CC-PVTZ AUX)
    Blend: AUG-CC-PVTZ-JKFIT
	 Reference Energy          =    -811.4793575428566328 [Eh]
	 Singles Energy            =      -0.0000000000000000 [Eh]
	 Same-Spin Energy          =      -0.8295338354850891 [Eh]
	 Opposite-Spin Energy      =      -2.5249795692514936 [Eh]
	 Correlation Energy        =      -3.3545134047365828 [Eh]
	 Total Energy              =    -814.8338709475932546 [Eh]

	 ================> DF-SCS-MP2 Energies <==================
	-----------------------------------------------------------
	 SCS Same-Spin Scale       =       0.3333333333333333 [-]
	 SCS Opposite-Spin Scale   =       1.2000000000000000 [-]
	 SCS Same-Spin Energy      =      -0.2765112784950297 [Eh]
	 SCS Opposite-Spin Energy  =      -3.0299754831017922 [Eh]
	 SCS Correlation Energy    =      -3.3064867615968216 [Eh]
	 SCS Total Energy          =    -814.7858443044534624 [Eh]
	-----------------------------------------------------------

  Dipole Moment: [D]
     X:     1.0329      Y:    -4.6990      Z:     2.4716     Total:     5.4089

*** Psi4 exiting successfully. Buy a developer a beer!
