                               Psi4 1.3.2 release

  ==> Input File <==

--------------------------------------------------------------------------
#psi4
#
memory 32 gb

molecule  {
0 1
  O        1.3620710    -0.3800110    -0.9318440
  O        3.2020570     1.9012130    -0.2995130
  O        2.7994070    -2.7489470    -0.4002010
  O       -1.3621860     2.3740050     0.1547830
  N       -0.7982440     0.1994180    -0.2292560
  N       -3.0541720     0.8052390     0.2400120
  N       -4.6734100    -0.8124350     0.4126370
  C        2.7015950     0.8755540     0.5594740
  C        1.2368440     1.1072260     0.8878520
  C        2.6518190    -0.3922910    -0.2854700
  C        0.5739580     0.6830040    -0.4149160
  C        2.7921509    -1.5761044     0.4689919
  C       -1.1273370    -1.1158190    -0.3082760
  C       -1.7446880     1.2038920     0.0820450
  C       -2.4173070    -1.5045610    -0.1045420
  C       -3.3619920    -0.4731600     0.1685110
  H        3.3343810     0.7567850     1.4508530
  H        0.9047070     0.4438290     1.6934890
  H        0.9853290     2.1340670     1.1581470
  H        0.5274540     1.5132540    -1.1249130
  H        3.4174920    -0.3642830    -1.0666260
  H        1.9707490    -1.7331840     1.2432230
  H        3.7460890    -1.6095150     1.0882890
  H        3.1038510     2.7463240     0.1779830
  H       -0.3107400    -1.7892010    -0.5436980
  H        2.9100300    -3.5650720     0.1192120
  H       -2.7034680    -2.5490840    -0.1532500
  H       -5.0287110    -1.6377420    -0.0567190
  H       -5.2994710    -0.0137980     0.3861010
units angstrom
no_reorient  #important for SAPT in psi4, default
symmetry c1  #important for SAPT in psi4, default
}

set PROPERTIES_ORIGIN ["COM"]
properties('MP2/aug-cc-pvtz', properties = ['dipole'])
--------------------------------------------------------------------------

    Molecular point group: c1
  Charge       = 0
  Multiplicity = 1
  Basis Set: AUG-CC-PVTZ
    Blend: AUG-CC-PVTZ
  Basis Set: (AUG-CC-PVTZ AUX)
    Blend: AUG-CC-PVTZ-JKFIT

    Orbital Energies [Eh]
    ---------------------

    Doubly Occupied:

       1A    -20.576148     2A    -20.574051     3A    -20.571849
       4A    -20.503465     5A    -15.622197     6A    -15.588522
       7A    -15.541042     8A    -11.370291     9A    -11.345252
      10A    -11.331844    11A    -11.318423    12A    -11.303972
      13A    -11.301199    14A    -11.290501    15A    -11.237978
      16A    -11.237163    17A     -1.419232    18A     -1.382887
      19A     -1.371009    20A     -1.356261    21A     -1.292588
      22A     -1.261988    23A     -1.169503    24A     -1.085487
      25A     -1.076997    26A     -1.036763    27A     -0.928106
      28A     -0.896903    29A     -0.869269    30A     -0.832401
      31A     -0.807435    32A     -0.754690    33A     -0.739283
      34A     -0.721930    35A     -0.708863    36A     -0.693168
      37A     -0.686875    38A     -0.675912    39A     -0.655719
      40A     -0.635541    41A     -0.628475    42A     -0.618023
      43A     -0.611099    44A     -0.596318    45A     -0.587432
      46A     -0.573729    47A     -0.565294    48A     -0.537606
      49A     -0.532977    50A     -0.527251    51A     -0.513108
      52A     -0.487824    53A     -0.482291    54A     -0.466443
      55A     -0.458438    56A     -0.445798    57A     -0.440809
      58A     -0.416900    59A     -0.384084    60A     -0.335251

  @DF-RHF Final Energy:  -811.46694576558934

   => Energetics <=

    Nuclear Repulsion Energy =           1171.6743947023769579
    One-Electron Energy =               -3438.3189579412523926
    Two-Electron Energy =                1455.1776174732860909
    Total Energy =                       -811.4669457655893439
  Basis Set: (AUG-CC-PVTZ AUX)
    Blend: AUG-CC-PVTZ-RI
    Molecular point group: c1

    Geometry (in Angstrom), charge = 0, multiplicity = 1:

       Center              X                  Y                   Z               Mass
    ------------   -----------------  -----------------  -----------------  -----------------
         O            1.362596612170    -0.384445122715    -0.929018057598    15.994914619570
         O            3.202582612170     1.896778877285    -0.296687057598    15.994914619570
         O            2.799932612170    -2.753381122715    -0.397375057598    15.994914619570
         O           -1.361660387830     2.369570877285     0.157608942402    15.994914619570
         N           -0.797718387830     0.194983877285    -0.226430057598    14.003074004430
         N           -3.053646387830     0.800804877285     0.242837942402    14.003074004430
         N           -4.672884387830    -0.816869122715     0.415462942402    14.003074004430
         C            2.702120612170     0.871119877285     0.562299942402    12.000000000000
         C            1.237369612170     1.102791877285     0.890677942402    12.000000000000
         C            2.652344612170    -0.396725122715    -0.282644057598    12.000000000000
         C            0.574483612170     0.678569877285    -0.412090057598    12.000000000000
         C            2.792676512170    -1.580538522715     0.471817842402    12.000000000000
         C           -1.126811387830    -1.120253122715    -0.305450057598    12.000000000000
         C           -1.744162387830     1.199457877285     0.084870942402    12.000000000000
         C           -2.416781387830    -1.508995122715    -0.101716057598    12.000000000000
         C           -3.361466387830    -0.477594122715     0.171336942402    12.000000000000
         H            3.334906612170     0.752350877285     1.453678942402     1.007825032230
         H            0.905232612170     0.439394877285     1.696314942402     1.007825032230
         H            0.985854612170     2.129632877285     1.160972942402     1.007825032230
         H            0.527979612170     1.508819877285    -1.122087057598     1.007825032230
         H            3.418017612170    -0.368717122715    -1.063800057598     1.007825032230
         H            1.971274612170    -1.737618122715     1.246048942402     1.007825032230
         H            3.746614612170    -1.613949122715     1.091114942402     1.007825032230
         H            3.104376612170     2.741889877285     0.180808942402     1.007825032230
         H           -0.310214387830    -1.793635122715    -0.540872057598     1.007825032230
         H            2.910555612170    -3.569506122715     0.122037942402     1.007825032230
         H           -2.702942387830    -2.553518122715    -0.150424057598     1.007825032230
         H           -5.028185387830    -1.642176122715    -0.053893057598     1.007825032230
         H           -5.298945387830    -0.018232122715     0.388926942402     1.007825032230

  Basis Set: AUG-CC-PVTZ
    Blend: AUG-CC-PVTZ
  Basis Set: (AUG-CC-PVTZ AUX)
    Blend: AUG-CC-PVTZ-JKFIT
	 Reference Energy          =    -811.4669457655893439 [Eh]
	 Singles Energy            =      -0.0000000000000000 [Eh]
	 Same-Spin Energy          =      -0.8305803948863884 [Eh]
	 Opposite-Spin Energy      =      -2.5264117731704094 [Eh]
	 Correlation Energy        =      -3.3569921680567978 [Eh]
	 Total Energy              =    -814.8239379336461070 [Eh]

	 ================> DF-SCS-MP2 Energies <==================
	-----------------------------------------------------------
	 SCS Same-Spin Scale       =       0.3333333333333333 [-]
	 SCS Opposite-Spin Scale   =       1.2000000000000000 [-]
	 SCS Same-Spin Energy      =      -0.2768601316287961 [Eh]
	 SCS Opposite-Spin Energy  =      -3.0316941278044913 [Eh]
	 SCS Correlation Energy    =      -3.3085542594332873 [Eh]
	 SCS Total Energy          =    -814.7755000250226658 [Eh]
	-----------------------------------------------------------

  Dipole Moment: [D]
     X:     1.0495      Y:    -4.4911      Z:     2.5207     Total:     5.2560

*** Psi4 exiting successfully. Buy a developer a beer!
