                               Psi4 1.3.2 release

  ==> Input File <==

--------------------------------------------------------------------------
#psi4
#
memory 32 gb

molecule  {
0 1
  O        1.3620710    -0.3800110    -0.9318440
  O        3.2020570     1.9012130    -0.2995130
  O        2.7994070    -2.7489470    -0.4002010
  O       -1.3621860     2.3740050     0.1547830
  N       -0.7982440     0.1994180    -0.2292560
  N       -3.0541720     0.8052390     0.2400120
  N       -4.6734100    -0.8124350     0.4126370
  C        2.7015950     0.8755540     0.5594740
  C        1.2368440     1.1072260     0.8878520
  C        2.6518190    -0.3922910    -0.2854700
  C        0.5739580     0.6830040    -0.4149160
  C        2.8020980    -1.6600160     0.5224700
  C       -1.1273370    -1.1158190    -0.3082760
  C       -1.7446880     1.2038920     0.0820450
  C       -2.4173070    -1.5045610    -0.1045420
  C       -3.3619920    -0.4731600     0.1685110
  H        3.3343810     0.7567850     1.4508530
  H        0.9047070     0.4438290     1.6934890
  H        0.9853290     2.1340670     1.1581470
  H        0.5274540     1.5132540    -1.1249130
  H        3.4174920    -0.3642830    -1.0666260
  H        1.9707490    -1.7331840     1.2432230
  H        3.7460890    -1.6095150     1.0882890
  H        3.1038510     2.7463240     0.1779830
  H       -0.3107400    -1.7892010    -0.5436980
  H        2.9327522    -3.7327062     0.2259008
  H       -2.7034680    -2.5490840    -0.1532500
  H       -5.0287110    -1.6377420    -0.0567190
  H       -5.2994710    -0.0137980     0.3861010
units angstrom
no_reorient  #important for SAPT in psi4, default
symmetry c1  #important for SAPT in psi4, default
}

set PROPERTIES_ORIGIN ["COM"]
properties('MP2/aug-cc-pvtz', properties = ['dipole'])
--------------------------------------------------------------------------

    Molecular point group: c1
  Charge       = 0
  Multiplicity = 1
  Basis Set: AUG-CC-PVTZ
    Blend: AUG-CC-PVTZ
  Basis Set: (AUG-CC-PVTZ AUX)
    Blend: AUG-CC-PVTZ-JKFIT

    Orbital Energies [Eh]
    ---------------------

    Doubly Occupied:

       1A    -20.592778     2A    -20.574033     3A    -20.572363
       4A    -20.502758     5A    -15.621390     6A    -15.588128
       7A    -15.540516     8A    -11.369596     9A    -11.344755
      10A    -11.330349    11A    -11.317907    12A    -11.300626
      13A    -11.295001    14A    -11.292568    15A    -11.236680
      16A    -11.236405    17A     -1.415739    18A     -1.381537
      19A     -1.368216    20A     -1.340447    21A     -1.291889
      22A     -1.261025    23A     -1.168815    24A     -1.078506
      25A     -1.066783    26A     -1.024313    27A     -0.921232
      28A     -0.895782    29A     -0.867485    30A     -0.830319
      31A     -0.805585    32A     -0.753856    33A     -0.737878
      34A     -0.711736    35A     -0.705087    36A     -0.689342
      37A     -0.675358    38A     -0.666898    39A     -0.652314
      40A     -0.635693    41A     -0.626787    42A     -0.617096
      43A     -0.603060    44A     -0.593477    45A     -0.587426
      46A     -0.572292    47A     -0.566759    48A     -0.539727
      49A     -0.532077    50A     -0.518000    51A     -0.507264
      52A     -0.484715    53A     -0.481685    54A     -0.465582
      55A     -0.459431    56A     -0.443861    57A     -0.436507
      58A     -0.416002    59A     -0.383465    60A     -0.334615

  @DF-RHF Final Energy:  -811.44338581896386

   => Energetics <=

    Nuclear Repulsion Energy =           1168.7595537631955267
    One-Electron Energy =               -3432.7428502518737332
    Two-Electron Energy =                1452.5399106697143452
    Total Energy =                       -811.4433858189638613
  Basis Set: (AUG-CC-PVTZ AUX)
    Blend: AUG-CC-PVTZ-RI
    Molecular point group: c1

    Geometry (in Angstrom), charge = 0, multiplicity = 1:

       Center              X                  Y                   Z               Mass
    ------------   -----------------  -----------------  -----------------  -----------------
         O            1.361970143271    -0.379267078743    -0.932317449223    15.994914619570
         O            3.201956143271     1.901956921257    -0.299986449223    15.994914619570
         O            2.799306143271    -2.748203078743    -0.400674449223    15.994914619570
         O           -1.362286856729     2.374748921257     0.154309550777    15.994914619570
         N           -0.798344856729     0.200161921257    -0.229729449223    14.003074004430
         N           -3.054272856729     0.805982921257     0.239538550777    14.003074004430
         N           -4.673510856729    -0.811691078743     0.412163550777    14.003074004430
         C            2.701494143271     0.876297921257     0.559000550777    12.000000000000
         C            1.236743143271     1.107969921257     0.887378550777    12.000000000000
         C            2.651718143271    -0.391547078743    -0.285943449223    12.000000000000
         C            0.573857143271     0.683747921257    -0.415389449223    12.000000000000
         C            2.801997143271    -1.659272078743     0.521996550777    12.000000000000
         C           -1.127437856729    -1.115075078743    -0.308749449223    12.000000000000
         C           -1.744788856729     1.204635921257     0.081571550777    12.000000000000
         C           -2.417407856729    -1.503817078743    -0.105015449223    12.000000000000
         C           -3.362092856729    -0.472416078743     0.168037550777    12.000000000000
         H            3.334280143271     0.757528921257     1.450379550777     1.007825032230
         H            0.904606143271     0.444572921257     1.693015550777     1.007825032230
         H            0.985228143271     2.134810921257     1.157673550777     1.007825032230
         H            0.527353143271     1.513997921257    -1.125386449223     1.007825032230
         H            3.417391143271    -0.363539078743    -1.067099449223     1.007825032230
         H            1.970648143271    -1.732440078743     1.242749550777     1.007825032230
         H            3.745988143271    -1.608771078743     1.087815550777     1.007825032230
         H            3.103750143271     2.747067921257     0.177509550777     1.007825032230
         H           -0.310840856729    -1.788457078743    -0.544171449223     1.007825032230
         H            2.932651343271    -3.731962278743     0.225427350777     1.007825032230
         H           -2.703568856729    -2.548340078743    -0.153723449223     1.007825032230
         H           -5.028811856729    -1.636998078743    -0.057192449223     1.007825032230
         H           -5.299571856729    -0.013054078743     0.385627550777     1.007825032230

  Basis Set: AUG-CC-PVTZ
    Blend: AUG-CC-PVTZ
  Basis Set: (AUG-CC-PVTZ AUX)
    Blend: AUG-CC-PVTZ-JKFIT
	 Reference Energy          =    -811.4433858189638613 [Eh]
	 Singles Energy            =      -0.0000000000000000 [Eh]
	 Same-Spin Energy          =      -0.8317546217098228 [Eh]
	 Opposite-Spin Energy      =      -2.5318863288467233 [Eh]
	 Correlation Energy        =      -3.3636409505565461 [Eh]
	 Total Energy              =    -814.8070267695204620 [Eh]

	 ================> DF-SCS-MP2 Energies <==================
	-----------------------------------------------------------
	 SCS Same-Spin Scale       =       0.3333333333333333 [-]
	 SCS Opposite-Spin Scale   =       1.2000000000000000 [-]
	 SCS Same-Spin Energy      =      -0.2772515405699409 [Eh]
	 SCS Opposite-Spin Energy  =      -3.0382635946160677 [Eh]
	 SCS Correlation Energy    =      -3.3155151351860086 [Eh]
	 SCS Total Energy          =    -814.7589009541499081 [Eh]
	-----------------------------------------------------------

  Dipole Moment: [D]
     X:     1.1019      Y:    -4.8155      Z:     2.5442     Total:     5.5566

*** Psi4 exiting successfully. Buy a developer a beer!
