                               Psi4 1.4a3.dev225

  ==> Input File <==

--------------------------------------------------------------------------
#psi4
#
memory 32 gb

molecule  {
0 1
  O       -1.4695130     0.3030610    -1.0874480
  O       -3.6436400    -1.4204040    -0.2669360
  O       -1.6911330     2.8536240     0.0000030
  O        1.1857770    -2.4961310     0.0874550
  N        0.6842480    -0.3150290    -0.3399290
  N        2.9133760    -0.9647370     0.2108410
  N        4.5636770     0.6178870     0.3785230
  C       -2.7686820    -0.6858470     0.5863090
  C       -1.3787780    -1.3118450     0.6568060
  C       -2.4925280     0.6283540    -0.1295840
  C       -0.6939390    -0.7805590    -0.6115670
  C       -2.0414120     1.7324860     0.8087370
  C        1.0545030     0.9838330    -0.4888120
  C        1.6080830    -1.3384950     0.0010630
  C        2.3487550     1.3478080    -0.2622830
  C        3.2578570     0.3046130     0.0876290
  H       -3.2188600    -0.5381750     1.5798200
  H       -0.8341690    -0.9801840     1.5464130
  H       -1.3950130    -2.4033150     0.6754970
  H       -0.6263030    -1.5384450    -1.3968420
  H       -3.3591510     0.9641520    -0.7058050
  H       -1.1849610     1.3939850     1.4098140
  H       -2.8667900     1.9743150     1.4948250
  H       -3.6905400    -2.3294490     0.0774600
  H        0.3031139     1.6431788    -0.7577408
  H       -1.4321050     3.5760960     0.5972330
  H        2.6621150     2.3809760    -0.3596430
  H        4.9550500     1.4416620    -0.0591730
  H        5.1797170    -0.1867780     0.4106900
units angstrom
no_reorient  #important for SAPT in psi4, default
symmetry c1  #important for SAPT in psi4, default
}

set PROPERTIES_ORIGIN ["COM"]
properties('MP2/aug-cc-pvtz', properties = ['dipole'])
--------------------------------------------------------------------------

    Molecular point group: c1
  Charge       = 0
  Multiplicity = 1
  Basis Set: AUG-CC-PVTZ
    Blend: AUG-CC-PVTZ
  Basis Set: (AUG-CC-PVTZ AUX)
    Blend: AUG-CC-PVTZ-JKFIT

    Orbital Energies [Eh]
    ---------------------

    Doubly Occupied:

       1A    -20.583009     2A    -20.574332     3A    -20.572573
       4A    -20.501933     5A    -15.619049     6A    -15.589093
       7A    -15.540090     8A    -11.368792     9A    -11.346015
      10A    -11.333144    11A    -11.310398    12A    -11.300013
      13A    -11.299412    14A    -11.294588    15A    -11.237211
      16A    -11.235698    17A     -1.418751    18A     -1.381454
      19A     -1.377295    20A     -1.365992    21A     -1.290509
      22A     -1.259024    23A     -1.168726    24A     -1.076720
      25A     -1.068546    26A     -1.024873    27A     -0.930138
      28A     -0.899464    29A     -0.868038    30A     -0.830359
      31A     -0.805598    32A     -0.753891    33A     -0.739669
      34A     -0.725374    35A     -0.709454    36A     -0.702176
      37A     -0.690347    38A     -0.675440    39A     -0.651801
      40A     -0.642040    41A     -0.623109    42A     -0.618199
      43A     -0.607191    44A     -0.597671    45A     -0.590175
      46A     -0.572645    47A     -0.565607    48A     -0.551039
      49A     -0.526811    50A     -0.520467    51A     -0.510994
      52A     -0.485028    53A     -0.480882    54A     -0.472037
      55A     -0.459520    56A     -0.448474    57A     -0.440926
      58A     -0.413860    59A     -0.382556    60A     -0.334146

  @DF-RHF Final Energy:  -811.47866571639622

   => Energetics <=

    Nuclear Repulsion Energy =           1185.3613348211572429
    One-Electron Energy =               -3465.7552716054524353
    Two-Electron Energy =                1468.9152710678986296
    Total Energy =                       -811.4786657163963355
  Basis Set: (AUG-CC-PVTZ AUX)
    Blend: AUG-CC-PVTZ-RI
    Molecular point group: c1

    Geometry (in Angstrom), charge = 0, multiplicity = 1:

       Center              X                  Y                   Z               Mass
    ------------   -----------------  -----------------  -----------------  -----------------
         O           -1.494133316390     0.326917742113    -1.067878360023    15.994914619570
         O           -3.668260316390    -1.396547257887    -0.247366360023    15.994914619570
         O           -1.715753316390     2.877480742113     0.019572639977    15.994914619570
         O            1.161156683610    -2.472274257887     0.107024639977    15.994914619570
         N            0.659627683610    -0.291172257887    -0.320359360023    14.003074004430
         N            2.888755683610    -0.940880257887     0.230410639977    14.003074004430
         N            4.539056683610     0.641743742113     0.398092639977    14.003074004430
         C           -2.793302316390    -0.661990257887     0.605878639977    12.000000000000
         C           -1.403398316390    -1.287988257887     0.676375639977    12.000000000000
         C           -2.517148316390     0.652210742113    -0.110014360023    12.000000000000
         C           -0.718559316390    -0.756702257887    -0.591997360023    12.000000000000
         C           -2.066032316390     1.756342742113     0.828306639977    12.000000000000
         C            1.029882683610     1.007689742113    -0.469242360023    12.000000000000
         C            1.583462683610    -1.314638257887     0.020632639977    12.000000000000
         C            2.324134683610     1.371664742113    -0.242713360023    12.000000000000
         C            3.233236683610     0.328469742113     0.107198639977    12.000000000000
         H           -3.243480316390    -0.514318257887     1.599389639977     1.007825032230
         H           -0.858789316390    -0.956327257887     1.565982639977     1.007825032230
         H           -1.419633316390    -2.379458257887     0.695066639977     1.007825032230
         H           -0.650923316390    -1.514588257887    -1.377272360023     1.007825032230
         H           -3.383771316390     0.988008742113    -0.686235360023     1.007825032230
         H           -1.209581316390     1.417841742113     1.429383639977     1.007825032230
         H           -2.891410316390     1.998171742113     1.514394639977     1.007825032230
         H           -3.715160316390    -2.305592257887     0.097029639977     1.007825032230
         H            0.278493583610     1.667035542113    -0.738171160023     1.007825032230
         H           -1.456725316390     3.599952742113     0.616802639977     1.007825032230
         H            2.637494683610     2.404832742113    -0.340073360023     1.007825032230
         H            4.930429683610     1.465518742113    -0.039603360023     1.007825032230
         H            5.155096683610    -0.162921257887     0.430259639977     1.007825032230

  Basis Set: AUG-CC-PVTZ
    Blend: AUG-CC-PVTZ
  Basis Set: (AUG-CC-PVTZ AUX)
    Blend: AUG-CC-PVTZ-JKFIT
	 Reference Energy          =    -811.4786657163962218 [Eh]
	 Singles Energy            =      -0.0000000000000000 [Eh]
	 Same-Spin Energy          =      -0.8305105958141021 [Eh]
	 Opposite-Spin Energy      =      -2.5265756781968918 [Eh]
	 Correlation Energy        =      -3.3570862740109941 [Eh]
	 Total Energy              =    -814.8357519904071751 [Eh]

	 ================> DF-SCS-MP2 Energies <==================
	-----------------------------------------------------------
	 SCS Same-Spin Scale       =       0.3333333333333333 [-]
	 SCS Opposite-Spin Scale   =       1.2000000000000000 [-]
	 SCS Same-Spin Energy      =      -0.2768368652713674 [Eh]
	 SCS Opposite-Spin Energy  =      -3.0318908138362701 [Eh]
	 SCS Correlation Energy    =      -3.3087276791076374 [Eh]
	 SCS Total Energy          =    -814.7873933955038410 [Eh]
	-----------------------------------------------------------

  Dipole Moment: [D]
     X:    -0.2886      Y:     4.5835      Z:     2.4091     Total:     5.1861

*** Psi4 exiting successfully. Buy a developer a beer!
