                               Psi4 1.3.2 release

  ==> Input File <==

--------------------------------------------------------------------------
#psi4
#
memory 32 gb

molecule  {
0 1
  O        1.3620710    -0.3800110    -0.9318440
  O        3.2020570     1.9012130    -0.2995130
  O        2.7994070    -2.7489470    -0.4002010
  O       -1.3621860     2.3740050     0.1547830
  N       -0.7982440     0.1994180    -0.2292560
  N       -3.0541720     0.8052390     0.2400120
  N       -4.6734100    -0.8124350     0.4126370
  C        2.7015950     0.8755540     0.5594740
  C        1.2368440     1.1072260     0.8878520
  C        2.6518190    -0.3922910    -0.2854700
  C        0.5739580     0.6830040    -0.4149160
  C        2.8020980    -1.6600160     0.5224700
  C       -1.1273370    -1.1158190    -0.3082760
  C       -1.7446880     1.2038920     0.0820450
  C       -2.4173070    -1.5045610    -0.1045420
  C       -3.3619920    -0.4731600     0.1685110
  H        3.3343810     0.7567850     1.4508530
  H        0.9047070     0.4438290     1.6934890
  H        0.9853290     2.1340670     1.1581470
  H        0.5359601     1.3613914    -0.9950461
  H        3.4174920    -0.3642830    -1.0666260
  H        1.9707490    -1.7331840     1.2432230
  H        3.7460890    -1.6095150     1.0882890
  H        3.1038510     2.7463240     0.1779830
  H       -0.3107400    -1.7892010    -0.5436980
  H        2.9100300    -3.5650720     0.1192120
  H       -2.7034680    -2.5490840    -0.1532500
  H       -5.0287110    -1.6377420    -0.0567190
  H       -5.2994710    -0.0137980     0.3861010
units angstrom
no_reorient  #important for SAPT in psi4, default
symmetry c1  #important for SAPT in psi4, default
}

set PROPERTIES_ORIGIN ["COM"]
properties('MP2/aug-cc-pvtz', properties = ['dipole'])
--------------------------------------------------------------------------

    Molecular point group: c1
  Charge       = 0
  Multiplicity = 1
  Basis Set: AUG-CC-PVTZ
    Blend: AUG-CC-PVTZ
  Basis Set: (AUG-CC-PVTZ AUX)
    Blend: AUG-CC-PVTZ-JKFIT

    Orbital Energies [Eh]
    ---------------------

    Doubly Occupied:

       1A    -20.577559     2A    -20.574995     3A    -20.571642
       4A    -20.503458     5A    -15.620623     6A    -15.588415
       7A    -15.540823     8A    -11.370298     9A    -11.345126
      10A    -11.318063    11A    -11.308856    12A    -11.300813
      13A    -11.296595    14A    -11.292786    15A    -11.236816
      16A    -11.235877    17A     -1.417416    18A     -1.382738
      19A     -1.373664    20A     -1.365897    21A     -1.292284
      22A     -1.261628    23A     -1.169631    24A     -1.082319
      25A     -1.070128    26A     -1.031355    27A     -0.935461
      28A     -0.897378    29A     -0.869513    30A     -0.847045
      31A     -0.808930    32A     -0.756755    33A     -0.741534
      34A     -0.726540    35A     -0.707086    36A     -0.700624
      37A     -0.690249    38A     -0.677593    39A     -0.658191
      40A     -0.640710    41A     -0.628203    42A     -0.619092
      43A     -0.604501    44A     -0.595382    45A     -0.588663
      46A     -0.576512    47A     -0.571387    48A     -0.544664
      49A     -0.532724    50A     -0.526650    51A     -0.513772
      52A     -0.485748    53A     -0.482084    54A     -0.468358
      55A     -0.461109    56A     -0.445946    57A     -0.442350
      58A     -0.416824    59A     -0.385133    60A     -0.335195

  @DF-RHF Final Energy:  -811.44701365566129

   => Energetics <=

    Nuclear Repulsion Energy =           1171.3426410505492186
    One-Electron Energy =               -3437.5558814713258471
    Two-Electron Energy =                1454.7662267651155616
    Total Energy =                       -811.4470136556612943
  Basis Set: (AUG-CC-PVTZ AUX)
    Blend: AUG-CC-PVTZ-RI
    Molecular point group: c1

    Geometry (in Angstrom), charge = 0, multiplicity = 1:

       Center              X                  Y                   Z               Mass
    ------------   -----------------  -----------------  -----------------  -----------------
         O            1.362033234130    -0.379337072890    -0.932420313317    15.994914619570
         O            3.202019234130     1.901886927110    -0.300089313317    15.994914619570
         O            2.799369234130    -2.748273072890    -0.400777313317    15.994914619570
         O           -1.362223765870     2.374678927110     0.154206686683    15.994914619570
         N           -0.798281765870     0.200091927110    -0.229832313317    14.003074004430
         N           -3.054209765870     0.805912927110     0.239435686683    14.003074004430
         N           -4.673447765870    -0.811761072890     0.412060686683    14.003074004430
         C            2.701557234130     0.876227927110     0.558897686683    12.000000000000
         C            1.236806234130     1.107899927110     0.887275686683    12.000000000000
         C            2.651781234130    -0.391617072890    -0.286046313317    12.000000000000
         C            0.573920234130     0.683677927110    -0.415492313317    12.000000000000
         C            2.802060234130    -1.659342072890     0.521893686683    12.000000000000
         C           -1.127374765870    -1.115145072890    -0.308852313317    12.000000000000
         C           -1.744725765870     1.204565927110     0.081468686683    12.000000000000
         C           -2.417344765870    -1.503887072890    -0.105118313317    12.000000000000
         C           -3.362029765870    -0.472486072890     0.167934686683    12.000000000000
         H            3.334343234130     0.757458927110     1.450276686683     1.007825032230
         H            0.904669234130     0.444502927110     1.692912686683     1.007825032230
         H            0.985291234130     2.134740927110     1.157570686683     1.007825032230
         H            0.535922334130     1.362065327110    -0.995622413317     1.007825032230
         H            3.417454234130    -0.363609072890    -1.067202313317     1.007825032230
         H            1.970711234130    -1.732510072890     1.242646686683     1.007825032230
         H            3.746051234130    -1.608841072890     1.087712686683     1.007825032230
         H            3.103813234130     2.746997927110     0.177406686683     1.007825032230
         H           -0.310777765870    -1.788527072890    -0.544274313317     1.007825032230
         H            2.909992234130    -3.564398072890     0.118635686683     1.007825032230
         H           -2.703505765870    -2.548410072890    -0.153826313317     1.007825032230
         H           -5.028748765870    -1.637068072890    -0.057295313317     1.007825032230
         H           -5.299508765870    -0.013124072890     0.385524686683     1.007825032230

  Basis Set: AUG-CC-PVTZ
    Blend: AUG-CC-PVTZ
  Basis Set: (AUG-CC-PVTZ AUX)
    Blend: AUG-CC-PVTZ-JKFIT
	 Reference Energy          =    -811.4470136556612943 [Eh]
	 Singles Energy            =      -0.0000000000000000 [Eh]
	 Same-Spin Energy          =      -0.8289441951062653 [Eh]
	 Opposite-Spin Energy      =      -2.5236103063465256 [Eh]
	 Correlation Energy        =      -3.3525545014527909 [Eh]
	 Total Energy              =    -814.7995681571140949 [Eh]

	 ================> DF-SCS-MP2 Energies <==================
	-----------------------------------------------------------
	 SCS Same-Spin Scale       =       0.3333333333333333 [-]
	 SCS Opposite-Spin Scale   =       1.2000000000000000 [-]
	 SCS Same-Spin Energy      =      -0.2763147317020884 [Eh]
	 SCS Opposite-Spin Energy  =      -3.0283323676158305 [Eh]
	 SCS Correlation Energy    =      -3.3046470993179189 [Eh]
	 SCS Total Energy          =    -814.7516607549791843 [Eh]
	-----------------------------------------------------------

  Dipole Moment: [D]
     X:     1.0610      Y:    -4.6742      Z:     2.4954     Total:     5.4038

*** Psi4 exiting successfully. Buy a developer a beer!
