                               Psi4 1.3.2 release

  ==> Input File <==

--------------------------------------------------------------------------
#psi4
#
memory 32 gb

molecule  {
0 1
  O        1.3620710    -0.3800110    -0.9318440
  O        3.2020570     1.9012130    -0.2995130
  O        2.7994070    -2.7489470    -0.4002010
  O       -1.3621860     2.3740050     0.1547830
  N       -0.7982440     0.1994180    -0.2292560
  N       -3.0541720     0.8052390     0.2400120
  N       -4.6734100    -0.8124350     0.4126370
  C        2.7015950     0.8755540     0.5594740
  C        1.2368440     1.1072260     0.8878520
  C        2.6518190    -0.3922910    -0.2854700
  C        0.5739580     0.6830040    -0.4149160
  C        2.8020980    -1.6600160     0.5224700
  C       -1.1273370    -1.1158190    -0.3082760
  C       -1.7446880     1.2038920     0.0820450
  C       -2.4203668    -1.4932291    -0.1026401
  C       -3.3619920    -0.4731600     0.1685110
  H        3.3343810     0.7567850     1.4508530
  H        0.9047070     0.4438290     1.6934890
  H        0.9853290     2.1340670     1.1581470
  H        0.5274540     1.5132540    -1.1249130
  H        3.4174920    -0.3642830    -1.0666260
  H        1.9707490    -1.7331840     1.2432230
  H        3.7460890    -1.6095150     1.0882890
  H        3.1038510     2.7463240     0.1779830
  H       -0.3048060    -1.7818365    -0.5439896
  H        2.9100300    -3.5650720     0.1192120
  H       -2.7034680    -2.5490840    -0.1532500
  H       -5.0287110    -1.6377420    -0.0567190
  H       -5.2994710    -0.0137980     0.3861010
units angstrom
no_reorient  #important for SAPT in psi4, default
symmetry c1  #important for SAPT in psi4, default
}

set PROPERTIES_ORIGIN ["COM"]
properties('MP2/aug-cc-pvtz', properties = ['dipole'])
--------------------------------------------------------------------------

    Molecular point group: c1
  Charge       = 0
  Multiplicity = 1
  Basis Set: AUG-CC-PVTZ
    Blend: AUG-CC-PVTZ
  Basis Set: (AUG-CC-PVTZ AUX)
    Blend: AUG-CC-PVTZ-JKFIT

    Orbital Energies [Eh]
    ---------------------

    Doubly Occupied:

       1A    -20.577955     2A    -20.574469     3A    -20.573228
       4A    -20.502636     5A    -15.621927     6A    -15.587990
       7A    -15.540351     8A    -11.369565     9A    -11.343861
      10A    -11.330874    11A    -11.318859    12A    -11.301019
      13A    -11.297080    14A    -11.293304    15A    -11.236950
      16A    -11.236944    17A     -1.416956    18A     -1.382387
      19A     -1.373754    20A     -1.365858    21A     -1.292552
      22A     -1.261563    23A     -1.168942    24A     -1.079247
      25A     -1.069242    26A     -1.028282    27A     -0.927360
      28A     -0.898563    29A     -0.868901    30A     -0.830572
      31A     -0.806624    32A     -0.754673    33A     -0.738504
      34A     -0.721091    35A     -0.707087    36A     -0.693012
      37A     -0.689336    38A     -0.675765    39A     -0.655978
      40A     -0.635888    41A     -0.627798    42A     -0.619221
      43A     -0.604857    44A     -0.595907    45A     -0.588855
      46A     -0.571880    47A     -0.568987    48A     -0.545059
      49A     -0.532685    50A     -0.523763    51A     -0.510540
      52A     -0.486062    53A     -0.482101    54A     -0.468700
      55A     -0.461236    56A     -0.444293    57A     -0.437902
      58A     -0.416307    59A     -0.383763    60A     -0.334766

  @DF-RHF Final Energy:  -811.47885399189056

   => Energetics <=

    Nuclear Repulsion Energy =           1170.1804157520998615
    One-Electron Energy =               -3435.4108854406472346
    Two-Electron Energy =                1453.7516156966571543
    Total Energy =                       -811.4788539918904462
  Basis Set: (AUG-CC-PVTZ AUX)
    Blend: AUG-CC-PVTZ-RI
    Molecular point group: c1

    Geometry (in Angstrom), charge = 0, multiplicity = 1:

       Center              X                  Y                   Z               Mass
    ------------   -----------------  -----------------  -----------------  -----------------
         O            1.362206336080    -0.380642524764    -0.931943172512    15.994914619570
         O            3.202192336080     1.900581475236    -0.299612172512    15.994914619570
         O            2.799542336080    -2.749578524764    -0.400300172512    15.994914619570
         O           -1.362050663920     2.373373475236     0.154683827488    15.994914619570
         N           -0.798108663920     0.198786475236    -0.229355172512    14.003074004430
         N           -3.054036663920     0.804607475236     0.239912827488    14.003074004430
         N           -4.673274663920    -0.813066524764     0.412537827488    14.003074004430
         C            2.701730336080     0.874922475236     0.559374827488    12.000000000000
         C            1.236979336080     1.106594475236     0.887752827488    12.000000000000
         C            2.651954336080    -0.392922524764    -0.285569172512    12.000000000000
         C            0.574093336080     0.682372475236    -0.415015172512    12.000000000000
         C            2.802233336080    -1.660647524764     0.522370827488    12.000000000000
         C           -1.127201663920    -1.116450524764    -0.308375172512    12.000000000000
         C           -1.744552663920     1.203260475236     0.081945827488    12.000000000000
         C           -2.420231463920    -1.493860624764    -0.102739272512    12.000000000000
         C           -3.361856663920    -0.473791524764     0.168411827488    12.000000000000
         H            3.334516336080     0.756153475236     1.450753827488     1.007825032230
         H            0.904842336080     0.443197475236     1.693389827488     1.007825032230
         H            0.985464336080     2.133435475236     1.158047827488     1.007825032230
         H            0.527589336080     1.512622475236    -1.125012172512     1.007825032230
         H            3.417627336080    -0.364914524764    -1.066725172512     1.007825032230
         H            1.970884336080    -1.733815524764     1.243123827488     1.007825032230
         H            3.746224336080    -1.610146524764     1.088189827488     1.007825032230
         H            3.103986336080     2.745692475236     0.177883827488     1.007825032230
         H           -0.304670663920    -1.782468024764    -0.544088772512     1.007825032230
         H            2.910165336080    -3.565703524764     0.119112827488     1.007825032230
         H           -2.703332663920    -2.549715524764    -0.153349172512     1.007825032230
         H           -5.028575663920    -1.638373524764    -0.056818172512     1.007825032230
         H           -5.299335663920    -0.014429524764     0.386001827488     1.007825032230

  Basis Set: AUG-CC-PVTZ
    Blend: AUG-CC-PVTZ
  Basis Set: (AUG-CC-PVTZ AUX)
    Blend: AUG-CC-PVTZ-JKFIT
	 Reference Energy          =    -811.4788539918905599 [Eh]
	 Singles Energy            =      -0.0000000000000000 [Eh]
	 Same-Spin Energy          =      -0.8298593501850564 [Eh]
	 Opposite-Spin Energy      =      -2.5253190209352696 [Eh]
	 Correlation Energy        =      -3.3551783711203260 [Eh]
	 Total Energy              =    -814.8340323630109197 [Eh]

	 ================> DF-SCS-MP2 Energies <==================
	-----------------------------------------------------------
	 SCS Same-Spin Scale       =       0.3333333333333333 [-]
	 SCS Opposite-Spin Scale   =       1.2000000000000000 [-]
	 SCS Same-Spin Energy      =      -0.2766197833950188 [Eh]
	 SCS Opposite-Spin Energy  =      -3.0303828251223233 [Eh]
	 SCS Correlation Energy    =      -3.3070026085173421 [Eh]
	 SCS Total Energy          =    -814.7858566004078966 [Eh]
	-----------------------------------------------------------

  Dipole Moment: [D]
     X:     1.1130      Y:    -4.6857      Z:     2.4834     Total:     5.4186

*** Psi4 exiting successfully. Buy a developer a beer!
