                               Psi4 1.3.2 release

  ==> Input File <==

--------------------------------------------------------------------------
#psi4
#
memory 32 gb

molecule  {
0 1
  O        1.3620710    -0.3800110    -0.9318440
  O        3.2020570     1.9012130    -0.2995130
  O        2.7994070    -2.7489470    -0.4002010
  O       -1.3621860     2.3740050     0.1547830
  N       -0.7982440     0.1994180    -0.2292560
  N       -3.0541720     0.8052390     0.2400120
  N       -4.6734100    -0.8124350     0.4126370
  C        2.7015950     0.8755540     0.5594740
  C        1.2368440     1.1072260     0.8878520
  C        2.6518190    -0.3922910    -0.2854700
  C        0.5739580     0.6830040    -0.4149160
  C        2.8020980    -1.6600160     0.5224700
  C       -1.1273370    -1.1158190    -0.3082760
  C       -1.7446880     1.2038920     0.0820450
  C       -2.4173070    -1.5045610    -0.1045420
  C       -3.3671345    -0.4355210     0.1979226
  H        3.3343810     0.7567850     1.4508530
  H        0.9047070     0.4438290     1.6934890
  H        0.9853290     2.1340670     1.1581470
  H        0.5274540     1.5132540    -1.1249130
  H        3.4174920    -0.3642830    -1.0666260
  H        1.9707490    -1.7331840     1.2432230
  H        3.7460890    -1.6095150     1.0882890
  H        3.1038510     2.7463240     0.1779830
  H       -0.3107400    -1.7892010    -0.5436980
  H        2.9100300    -3.5650720     0.1192120
  H       -2.7034680    -2.5490840    -0.1532500
  H       -5.0600021    -1.6324035    -0.0410851
  H       -5.2994710    -0.0137980     0.3861010
units angstrom
no_reorient  #important for SAPT in psi4, default
symmetry c1  #important for SAPT in psi4, default
}

set PROPERTIES_ORIGIN ["COM"]
properties('MP2/aug-cc-pvtz', properties = ['dipole'])
--------------------------------------------------------------------------

    Molecular point group: c1
  Charge       = 0
  Multiplicity = 1
  Basis Set: AUG-CC-PVTZ
    Blend: AUG-CC-PVTZ
  Basis Set: (AUG-CC-PVTZ AUX)
    Blend: AUG-CC-PVTZ-JKFIT

    Orbital Energies [Eh]
    ---------------------

    Doubly Occupied:

       1A    -20.577075     2A    -20.574075     3A    -20.572103
       4A    -20.507024     5A    -15.619277     6A    -15.586948
       7A    -15.541964     8A    -11.373944     9A    -11.345003
      10A    -11.330080    11A    -11.313036    12A    -11.300470
      13A    -11.296231    14A    -11.292508    15A    -11.237322
      16A    -11.236399    17A     -1.416151    18A     -1.384778
      19A     -1.373046    20A     -1.365696    21A     -1.295868
      22A     -1.262184    23A     -1.176721    24A     -1.077366
      25A     -1.065864    26A     -1.025177    27A     -0.925518
      28A     -0.893275    29A     -0.873355    30A     -0.831626
      31A     -0.805368    32A     -0.752630    33A     -0.737321
      34A     -0.720504    35A     -0.709688    36A     -0.692531
      37A     -0.690156    38A     -0.675580    39A     -0.655792
      40A     -0.637314    41A     -0.628294    42A     -0.615616
      43A     -0.604862    44A     -0.594131    45A     -0.588859
      46A     -0.572564    47A     -0.568524    48A     -0.544713
      49A     -0.533169    50A     -0.523138    51A     -0.510069
      52A     -0.485414    53A     -0.482386    54A     -0.467892
      55A     -0.460771    56A     -0.446405    57A     -0.436984
      58A     -0.417517    59A     -0.388337    60A     -0.333031

  @DF-RHF Final Energy:  -811.47808147631656

   => Energetics <=

    Nuclear Repulsion Energy =           1170.0296932407286477
    One-Electron Energy =               -3435.1162620710047122
    Two-Electron Energy =                1453.6084873539596174
    Total Energy =                       -811.4780814763164472
  Basis Set: (AUG-CC-PVTZ AUX)
    Blend: AUG-CC-PVTZ-RI
    Molecular point group: c1

    Geometry (in Angstrom), charge = 0, multiplicity = 1:

       Center              X                  Y                   Z               Mass
    ------------   -----------------  -----------------  -----------------  -----------------
         O            1.362481595320    -0.382023662241    -0.933467526706    15.994914619570
         O            3.202467595320     1.899200337759    -0.301136526706    15.994914619570
         O            2.799817595320    -2.750959662241    -0.401824526706    15.994914619570
         O           -1.361775404680     2.371992337759     0.153159473294    15.994914619570
         N           -0.797833404680     0.197405337759    -0.230879526706    14.003074004430
         N           -3.053761404680     0.803226337759     0.238388473294    14.003074004430
         N           -4.672999404680    -0.814447662241     0.411013473294    14.003074004430
         C            2.702005595320     0.873541337759     0.557850473294    12.000000000000
         C            1.237254595320     1.105213337759     0.886228473294    12.000000000000
         C            2.652229595320    -0.394303662241    -0.287093526706    12.000000000000
         C            0.574368595320     0.680991337759    -0.416539526706    12.000000000000
         C            2.802508595320    -1.662028662241     0.520846473294    12.000000000000
         C           -1.126926404680    -1.117831662241    -0.309899526706    12.000000000000
         C           -1.744277404680     1.201879337759     0.080421473294    12.000000000000
         C           -2.416896404680    -1.506573662241    -0.106165526706    12.000000000000
         C           -3.366723904680    -0.437533662241     0.196299073294    12.000000000000
         H            3.334791595320     0.754772337759     1.449229473294     1.007825032230
         H            0.905117595320     0.441816337759     1.691865473294     1.007825032230
         H            0.985739595320     2.132054337759     1.156523473294     1.007825032230
         H            0.527864595320     1.511241337759    -1.126536526706     1.007825032230
         H            3.417902595320    -0.366295662241    -1.068249526706     1.007825032230
         H            1.971159595320    -1.735196662241     1.241599473294     1.007825032230
         H            3.746499595320    -1.611527662241     1.086665473294     1.007825032230
         H            3.104261595320     2.744311337759     0.176359473294     1.007825032230
         H           -0.310329404680    -1.791213662241    -0.545321526706     1.007825032230
         H            2.910440595320    -3.567084662241     0.117588473294     1.007825032230
         H           -2.703057404680    -2.551096662241    -0.154873526706     1.007825032230
         H           -5.059591504680    -1.634416162241    -0.042708626706     1.007825032230
         H           -5.299060404680    -0.015810662241     0.384477473294     1.007825032230

  Basis Set: AUG-CC-PVTZ
    Blend: AUG-CC-PVTZ
  Basis Set: (AUG-CC-PVTZ AUX)
    Blend: AUG-CC-PVTZ-JKFIT
	 Reference Energy          =    -811.4780814763165608 [Eh]
	 Singles Energy            =      -0.0000000000000000 [Eh]
	 Same-Spin Energy          =      -0.8289288671300505 [Eh]
	 Opposite-Spin Energy      =      -2.5243836277654781 [Eh]
	 Correlation Energy        =      -3.3533124948955289 [Eh]
	 Total Energy              =    -814.8313939712120373 [Eh]

	 ================> DF-SCS-MP2 Energies <==================
	-----------------------------------------------------------
	 SCS Same-Spin Scale       =       0.3333333333333333 [-]
	 SCS Opposite-Spin Scale   =       1.2000000000000000 [-]
	 SCS Same-Spin Energy      =      -0.2763096223766835 [Eh]
	 SCS Opposite-Spin Energy  =      -3.0292603533185738 [Eh]
	 SCS Correlation Energy    =      -3.3055699756952572 [Eh]
	 SCS Total Energy          =    -814.7836514520117817 [Eh]
	-----------------------------------------------------------

  Dipole Moment: [D]
     X:     0.9650      Y:    -4.5188      Z:     2.5455     Total:     5.2754

*** Psi4 exiting successfully. Buy a developer a beer!
