                               Psi4 1.3.2 release

  ==> Input File <==

--------------------------------------------------------------------------
#psi4
#
memory 32 gb

molecule  {
0 1
  O        1.3920456    -0.3757282    -0.8925730
  O        3.2020570     1.9012130    -0.2995130
  O        2.7994070    -2.7489470    -0.4002010
  O       -1.3621860     2.3740050     0.1547830
  N       -0.7982440     0.1994180    -0.2292560
  N       -3.0541720     0.8052390     0.2400120
  N       -4.6734100    -0.8124350     0.4126370
  C        2.7015950     0.8755540     0.5594740
  C        1.2738253     1.0698776     0.8801134
  C        2.6518190    -0.3922910    -0.2854700
  C        0.5739580     0.6830040    -0.4149160
  C        2.8020980    -1.6600160     0.5224700
  C       -1.1273370    -1.1158190    -0.3082760
  C       -1.7446880     1.2038920     0.0820450
  C       -2.4173070    -1.5045610    -0.1045420
  C       -3.3619920    -0.4731600     0.1685110
  H        3.3343810     0.7567850     1.4508530
  H        0.9047070     0.4438290     1.6934890
  H        0.9853290     2.1340670     1.1581470
  H        0.5274540     1.5132540    -1.1249130
  H        3.4174920    -0.3642830    -1.0666260
  H        1.9707490    -1.7331840     1.2432230
  H        3.7460890    -1.6095150     1.0882890
  H        3.1038510     2.7463240     0.1779830
  H       -0.3107400    -1.7892010    -0.5436980
  H        2.9100300    -3.5650720     0.1192120
  H       -2.7034680    -2.5490840    -0.1532500
  H       -5.0287110    -1.6377420    -0.0567190
  H       -5.2994710    -0.0137980     0.3861010
units angstrom
no_reorient  #important for SAPT in psi4, default
symmetry c1  #important for SAPT in psi4, default
}

set PROPERTIES_ORIGIN ["COM"]
properties('MP2/aug-cc-pvtz', properties = ['dipole'])
--------------------------------------------------------------------------

    Molecular point group: c1
  Charge       = 0
  Multiplicity = 1
  Basis Set: AUG-CC-PVTZ
    Blend: AUG-CC-PVTZ
  Basis Set: (AUG-CC-PVTZ AUX)
    Blend: AUG-CC-PVTZ-JKFIT

    Orbital Energies [Eh]
    ---------------------

    Doubly Occupied:

       1A    -20.576300     2A    -20.573649     3A    -20.570376
       4A    -20.504371     5A    -15.624346     6A    -15.589529
       7A    -15.542229     8A    -11.371636     9A    -11.346490
      10A    -11.333175    11A    -11.320104    12A    -11.296098
      13A    -11.293714    14A    -11.288202    15A    -11.238622
      16A    -11.236643    17A     -1.427047    18A     -1.384257
      19A     -1.372558    20A     -1.366651    21A     -1.294021
      22A     -1.263966    23A     -1.170681    24A     -1.081649
      25A     -1.070321    26A     -1.030062    27A     -0.928684
      28A     -0.899475    29A     -0.868524    30A     -0.831933
      31A     -0.806763    32A     -0.755393    33A     -0.741771
      34A     -0.721843    35A     -0.707851    36A     -0.692531
      37A     -0.689028    38A     -0.678807    39A     -0.660026
      40A     -0.639598    41A     -0.629056    42A     -0.620024
      43A     -0.605990    44A     -0.597783    45A     -0.590001
      46A     -0.575112    47A     -0.571181    48A     -0.542014
      49A     -0.533062    50A     -0.514706    51A     -0.510112
      52A     -0.483041    53A     -0.481363    54A     -0.468258
      55A     -0.461820    56A     -0.445070    57A     -0.436572
      58A     -0.417816    59A     -0.385195    60A     -0.336462

  @DF-RHF Final Energy:  -811.47548419570307

   => Energetics <=

    Nuclear Repulsion Energy =           1171.5941009716796088
    One-Electron Energy =               -3438.1520491642058914
    Two-Electron Energy =                1455.0824639968229803
    Total Energy =                       -811.4754841957030749
  Basis Set: (AUG-CC-PVTZ AUX)
    Blend: AUG-CC-PVTZ-RI
    Molecular point group: c1

    Geometry (in Angstrom), charge = 0, multiplicity = 1:

       Center              X                  Y                   Z               Mass
    ------------   -----------------  -----------------  -----------------  -----------------
         O            1.387980172556    -0.374056315053    -0.894930056196    15.994914619570
         O            3.197991572556     1.902884884947    -0.301870056196    15.994914619570
         O            2.795341572556    -2.747275115053    -0.402558056196    15.994914619570
         O           -1.366251427444     2.375676884947     0.152425943804    15.994914619570
         N           -0.802309427444     0.201089884947    -0.231613056196    14.003074004430
         N           -3.058237427444     0.806910884947     0.237654943804    14.003074004430
         N           -4.677475427444    -0.810763115053     0.410279943804    14.003074004430
         C            2.697529572556     0.877225884947     0.557116943804    12.000000000000
         C            1.269759872556     1.071549484947     0.877756343804    12.000000000000
         C            2.647753572556    -0.390619115053    -0.287827056196    12.000000000000
         C            0.569892572556     0.684675884947    -0.417273056196    12.000000000000
         C            2.798032572556    -1.658344115053     0.520112943804    12.000000000000
         C           -1.131402427444    -1.114147115053    -0.310633056196    12.000000000000
         C           -1.748753427444     1.205563884947     0.079687943804    12.000000000000
         C           -2.421372427444    -1.502889115053    -0.106899056196    12.000000000000
         C           -3.366057427444    -0.471488115053     0.166153943804    12.000000000000
         H            3.330315572556     0.758456884947     1.448495943804     1.007825032230
         H            0.900641572556     0.445500884947     1.691131943804     1.007825032230
         H            0.981263572556     2.135738884947     1.155789943804     1.007825032230
         H            0.523388572556     1.514925884947    -1.127270056196     1.007825032230
         H            3.413426572556    -0.362611115053    -1.068983056196     1.007825032230
         H            1.966683572556    -1.731512115053     1.240865943804     1.007825032230
         H            3.742023572556    -1.607843115053     1.085931943804     1.007825032230
         H            3.099785572556     2.747995884947     0.175625943804     1.007825032230
         H           -0.314805427444    -1.787529115053    -0.546055056196     1.007825032230
         H            2.905964572556    -3.563400115053     0.116854943804     1.007825032230
         H           -2.707533427444    -2.547412115053    -0.155607056196     1.007825032230
         H           -5.032776427444    -1.636070115053    -0.059076056196     1.007825032230
         H           -5.303536427444    -0.012126115053     0.383743943804     1.007825032230

  Basis Set: AUG-CC-PVTZ
    Blend: AUG-CC-PVTZ
  Basis Set: (AUG-CC-PVTZ AUX)
    Blend: AUG-CC-PVTZ-JKFIT
	 Reference Energy          =    -811.4754841957030749 [Eh]
	 Singles Energy            =      -0.0000000000000000 [Eh]
	 Same-Spin Energy          =      -0.8299165086045613 [Eh]
	 Opposite-Spin Energy      =      -2.5244751130725840 [Eh]
	 Correlation Energy        =      -3.3543916216771454 [Eh]
	 Total Energy              =    -814.8298758173801843 [Eh]

	 ================> DF-SCS-MP2 Energies <==================
	-----------------------------------------------------------
	 SCS Same-Spin Scale       =       0.3333333333333333 [-]
	 SCS Opposite-Spin Scale   =       1.2000000000000000 [-]
	 SCS Same-Spin Energy      =      -0.2766388362015204 [Eh]
	 SCS Opposite-Spin Energy  =      -3.0293701356871008 [Eh]
	 SCS Correlation Energy    =      -3.3060089718886214 [Eh]
	 SCS Total Energy          =    -814.7814931675917478 [Eh]
	-----------------------------------------------------------

  Dipole Moment: [D]
     X:     0.8152      Y:    -4.6829      Z:     2.3956     Total:     5.3229

*** Psi4 exiting successfully. Buy a developer a beer!
