                               Psi4 1.3.2 release

  ==> Input File <==

--------------------------------------------------------------------------
#psi4
#
memory 32 gb

molecule  {
0 1
  O        1.3620710    -0.3800110    -0.9318440
  O        3.2020570     1.9012130    -0.2995130
  O        2.7994070    -2.7489470    -0.4002010
  O       -1.3621860     2.3740050     0.1547830
  N       -0.7982440     0.1994180    -0.2292560
  N       -3.0541720     0.8052390     0.2400120
  N       -4.6734100    -0.8124350     0.4126370
  C        2.7015950     0.8755540     0.5594740
  C        1.2368440     1.1072260     0.8878520
  C        2.6518190    -0.3922910    -0.2854700
  C        0.5739580     0.6830040    -0.4149160
  C        2.8020980    -1.6600160     0.5224700
  C       -1.1273370    -1.1158190    -0.3082760
  C       -1.7446880     1.2038920     0.0820450
  C       -2.4173070    -1.5045610    -0.1045420
  C       -3.3619920    -0.4731600     0.1685110
  H        3.3343810     0.7567850     1.4508530
  H        0.9047070     0.4438290     1.6934890
  H        0.9853290     2.1340670     1.1581470
  H        0.5274540     1.5132540    -1.1249130
  H        3.4174920    -0.3642830    -1.0666260
  H        1.9707490    -1.7331840     1.2432230
  H        3.7460890    -1.6095150     1.0882890
  H        3.1038510     2.7463240     0.1779830
  H       -0.3107400    -1.7892010    -0.5436980
  H        2.9213911    -3.6488891     0.1725564
  H       -2.7034680    -2.5490840    -0.1532500
  H       -5.0287110    -1.6377420    -0.0567190
  H       -5.2994710    -0.0137980     0.3861010
units angstrom
no_reorient  #important for SAPT in psi4, default
symmetry c1  #important for SAPT in psi4, default
}

set PROPERTIES_ORIGIN ["COM"]
properties('MP2/aug-cc-pvtz', properties = ['dipole'])
--------------------------------------------------------------------------

    Molecular point group: c1
  Charge       = 0
  Multiplicity = 1
  Basis Set: AUG-CC-PVTZ
    Blend: AUG-CC-PVTZ
  Basis Set: (AUG-CC-PVTZ AUX)
    Blend: AUG-CC-PVTZ-JKFIT

    Orbital Energies [Eh]
    ---------------------

    Doubly Occupied:

       1A    -20.585958     2A    -20.574130     3A    -20.572551
       4A    -20.502874     5A    -15.621527     6A    -15.588223
       7A    -15.540633     8A    -11.369716     9A    -11.344871
      10A    -11.330493    11A    -11.318070    12A    -11.300667
      13A    -11.295810    14A    -11.292697    15A    -11.236826
      16A    -11.236544    17A     -1.416032    18A     -1.381740
      19A     -1.368718    20A     -1.352722    21A     -1.292032
      22A     -1.261193    23A     -1.168936    24A     -1.078683
      25A     -1.067647    26A     -1.025854    27A     -0.923518
      28A     -0.896535    29A     -0.868134    30A     -0.830506
      31A     -0.805907    32A     -0.754014    33A     -0.738185
      34A     -0.714204    35A     -0.705795    36A     -0.689644
      37A     -0.679926    38A     -0.675033    39A     -0.655286
      40A     -0.636373    41A     -0.627203    42A     -0.617866
      43A     -0.603697    44A     -0.594264    45A     -0.587975
      46A     -0.572478    47A     -0.567668    48A     -0.542086
      49A     -0.532254    50A     -0.521085    51A     -0.509202
      52A     -0.485293    53A     -0.481840    54A     -0.466690
      55A     -0.460258    56A     -0.444123    57A     -0.437193
      58A     -0.416143    59A     -0.383577    60A     -0.334746

  @DF-RHF Final Energy:  -811.46578128197461

   => Energetics <=

    Nuclear Repulsion Energy =           1169.3116907196233569
    One-Electron Energy =               -3433.7872377709713874
    Two-Electron Energy =                1453.0097657693736437
    Total Energy =                       -811.4657812819746141
  Basis Set: (AUG-CC-PVTZ AUX)
    Blend: AUG-CC-PVTZ-RI
    Molecular point group: c1

    Geometry (in Angstrom), charge = 0, multiplicity = 1:

       Center              X                  Y                   Z               Mass
    ------------   -----------------  -----------------  -----------------  -----------------
         O            1.362020563679    -0.379639057897    -0.932080707499    15.994914619570
         O            3.202006563679     1.901584942103    -0.299749707499    15.994914619570
         O            2.799356563679    -2.748575057897    -0.400437707499    15.994914619570
         O           -1.362236436321     2.374376942103     0.154546292501    15.994914619570
         N           -0.798294436321     0.199789942103    -0.229492707499    14.003074004430
         N           -3.054222436321     0.805610942103     0.239775292501    14.003074004430
         N           -4.673460436321    -0.812063057897     0.412400292501    14.003074004430
         C            2.701544563679     0.875925942103     0.559237292501    12.000000000000
         C            1.236793563679     1.107597942103     0.887615292501    12.000000000000
         C            2.651768563679    -0.391919057897    -0.285706707499    12.000000000000
         C            0.573907563679     0.683375942103    -0.415152707499    12.000000000000
         C            2.802047563679    -1.659644057897     0.522233292501    12.000000000000
         C           -1.127387436321    -1.115447057897    -0.308512707499    12.000000000000
         C           -1.744738436321     1.204263942103     0.081808292501    12.000000000000
         C           -2.417357436321    -1.504189057897    -0.104778707499    12.000000000000
         C           -3.362042436321    -0.472788057897     0.168274292501    12.000000000000
         H            3.334330563679     0.757156942103     1.450616292501     1.007825032230
         H            0.904656563679     0.444200942103     1.693252292501     1.007825032230
         H            0.985278563679     2.134438942103     1.157910292501     1.007825032230
         H            0.527403563679     1.513625942103    -1.125149707499     1.007825032230
         H            3.417441563679    -0.363911057897    -1.066862707499     1.007825032230
         H            1.970698563679    -1.732812057897     1.242986292501     1.007825032230
         H            3.746038563679    -1.609143057897     1.088052292501     1.007825032230
         H            3.103800563679     2.746695942103     0.177746292501     1.007825032230
         H           -0.310790436321    -1.788829057897    -0.543934707499     1.007825032230
         H            2.921340663679    -3.648517157897     0.172319692501     1.007825032230
         H           -2.703518436321    -2.548712057897    -0.153486707499     1.007825032230
         H           -5.028761436321    -1.637370057897    -0.056955707499     1.007825032230
         H           -5.299521436321    -0.013426057897     0.385864292501     1.007825032230

  Basis Set: AUG-CC-PVTZ
    Blend: AUG-CC-PVTZ
  Basis Set: (AUG-CC-PVTZ AUX)
    Blend: AUG-CC-PVTZ-JKFIT
	 Reference Energy          =    -811.4657812819746141 [Eh]
	 Singles Energy            =      -0.0000000000000000 [Eh]
	 Same-Spin Energy          =      -0.8307527602457128 [Eh]
	 Opposite-Spin Energy      =      -2.5284013526907483 [Eh]
	 Correlation Energy        =      -3.3591541129364613 [Eh]
	 Total Energy              =    -814.8249353949111082 [Eh]

	 ================> DF-SCS-MP2 Energies <==================
	-----------------------------------------------------------
	 SCS Same-Spin Scale       =       0.3333333333333333 [-]
	 SCS Opposite-Spin Scale   =       1.2000000000000000 [-]
	 SCS Same-Spin Energy      =      -0.2769175867485709 [Eh]
	 SCS Opposite-Spin Energy  =      -3.0340816232288979 [Eh]
	 SCS Correlation Energy    =      -3.3109992099774690 [Eh]
	 SCS Total Energy          =    -814.7767804919520813 [Eh]
	-----------------------------------------------------------

  Dipole Moment: [D]
     X:     1.0905      Y:    -4.7561      Z:     2.5168     Total:     5.4904

*** Psi4 exiting successfully. Buy a developer a beer!
