                               Psi4 1.4a3.dev225

  ==> Input File <==

--------------------------------------------------------------------------
#psi4
#
memory 32 gb

molecule  {
0 1
  O       -1.4695130     0.3030610    -1.0874480
  O       -3.6436400    -1.4204040    -0.2669360
  O       -1.6911330     2.8536240     0.0000030
  O        1.1857770    -2.4961310     0.0874550
  N        0.6842480    -0.3150290    -0.3399290
  N        2.9133760    -0.9647370     0.2108410
  N        4.5636770     0.6178870     0.3785230
  C       -2.7686820    -0.6858470     0.5863090
  C       -1.3787780    -1.3118450     0.6568060
  C       -2.4925280     0.6283540    -0.1295840
  C       -0.6939390    -0.7805590    -0.6115670
  C       -2.0414120     1.7324860     0.8087370
  C        1.0545030     0.9838330    -0.4888120
  C        1.6080830    -1.3384950     0.0010630
  C        2.3962189     1.3611560    -0.2539755
  C        3.2578570     0.3046130     0.0876290
  H       -3.2188600    -0.5381750     1.5798200
  H       -0.8341690    -0.9801840     1.5464130
  H       -1.3950130    -2.4033150     0.6754970
  H       -0.6263030    -1.5384450    -1.3968420
  H       -3.3591510     0.9641520    -0.7058050
  H       -1.1849610     1.3939850     1.4098140
  H       -2.8667900     1.9743150     1.4948250
  H       -3.6905400    -2.3294490     0.0774600
  H        0.2668220     1.6750250    -0.7707300
  H       -1.4321050     3.5760960     0.5972330
  H        2.6621150     2.3809760    -0.3596430
  H        4.9550500     1.4416620    -0.0591730
  H        5.1797170    -0.1867780     0.4106900
units angstrom
no_reorient  #important for SAPT in psi4, default
symmetry c1  #important for SAPT in psi4, default
}

set PROPERTIES_ORIGIN ["COM"]
properties('MP2/aug-cc-pvtz', properties = ['dipole'])
--------------------------------------------------------------------------

    Molecular point group: c1
  Charge       = 0
  Multiplicity = 1
  Basis Set: AUG-CC-PVTZ
    Blend: AUG-CC-PVTZ
  Basis Set: (AUG-CC-PVTZ AUX)
    Blend: AUG-CC-PVTZ-JKFIT

    Orbital Energies [Eh]
    ---------------------

    Doubly Occupied:

       1A    -20.584741     2A    -20.576199     3A    -20.573728
       4A    -20.502204     5A    -15.624784     6A    -15.584103
       7A    -15.538229     8A    -11.369204     9A    -11.341454
      10A    -11.335391    11A    -11.324684    12A    -11.301424
      13A    -11.300782    14A    -11.296082    15A    -11.238894
      16A    -11.235053    17A     -1.420629    18A     -1.382683
      19A     -1.378546    20A     -1.367214    21A     -1.289480
      22A     -1.259138    23A     -1.166695    24A     -1.076429
      25A     -1.064371    26A     -1.025439    27A     -0.931963
      28A     -0.899187    29A     -0.867069    30A     -0.830911
      31A     -0.805894    32A     -0.751681    33A     -0.739548
      34A     -0.726749    35A     -0.707005    36A     -0.702793
      37A     -0.690656    38A     -0.673813    39A     -0.652673
      40A     -0.644992    41A     -0.624627    42A     -0.621359
      43A     -0.606869    44A     -0.592726    45A     -0.588408
      46A     -0.570942    47A     -0.566440    48A     -0.552120
      49A     -0.526971    50A     -0.522085    51A     -0.511919
      52A     -0.486398    53A     -0.480104    54A     -0.473401
      55A     -0.460402    56A     -0.448657    57A     -0.441573
      58A     -0.414381    59A     -0.381565    60A     -0.330044

  @DF-RHF Final Energy:  -811.47449769847299

   => Energetics <=

    Nuclear Repulsion Energy =           1184.4031626682688056
    One-Electron Energy =               -3463.7883125051553179
    Two-Electron Energy =                1467.9106521384137523
    Total Energy =                       -811.4744976984729874
  Basis Set: (AUG-CC-PVTZ AUX)
    Blend: AUG-CC-PVTZ-RI
    Molecular point group: c1

    Geometry (in Angstrom), charge = 0, multiplicity = 1:

       Center              X                  Y                   Z               Mass
    ------------   -----------------  -----------------  -----------------  -----------------
         O           -1.496480357178     0.326071069497    -1.068259701905    15.994914619570
         O           -3.670607357178    -1.397393930503    -0.247747701905    15.994914619570
         O           -1.718100357178     2.876634069497     0.019191298095    15.994914619570
         O            1.158809642822    -2.473120930503     0.106643298095    15.994914619570
         N            0.657280642822    -0.292018930503    -0.320740701905    14.003074004430
         N            2.886408642822    -0.941726930503     0.230029298095    14.003074004430
         N            4.536709642822     0.640897069497     0.397711298095    14.003074004430
         C           -2.795649357178    -0.662836930503     0.605497298095    12.000000000000
         C           -1.405745357178    -1.288834930503     0.675994298095    12.000000000000
         C           -2.519495357178     0.651364069497    -0.110395701905    12.000000000000
         C           -0.720906357178    -0.757548930503    -0.592378701905    12.000000000000
         C           -2.068379357178     1.755496069497     0.827925298095    12.000000000000
         C            1.027535642822     1.006843069497    -0.469623701905    12.000000000000
         C            1.581115642822    -1.315484930503     0.020251298095    12.000000000000
         C            2.369251542822     1.384166069497    -0.234787201905    12.000000000000
         C            3.230889642822     0.327623069497     0.106817298095    12.000000000000
         H           -3.245827357178    -0.515164930503     1.599008298095     1.007825032230
         H           -0.861136357178    -0.957173930503     1.565601298095     1.007825032230
         H           -1.421980357178    -2.380304930503     0.694685298095     1.007825032230
         H           -0.653270357178    -1.515434930503    -1.377653701905     1.007825032230
         H           -3.386118357178     0.987162069497    -0.686616701905     1.007825032230
         H           -1.211928357178     1.416995069497     1.429002298095     1.007825032230
         H           -2.893757357178     1.997325069497     1.514013298095     1.007825032230
         H           -3.717507357178    -2.306438930503     0.096648298095     1.007825032230
         H            0.239854642822     1.698035069497    -0.751541701905     1.007825032230
         H           -1.459072357178     3.599106069497     0.616421298095     1.007825032230
         H            2.635147642822     2.403986069497    -0.340454701905     1.007825032230
         H            4.928082642822     1.464672069497    -0.039984701905     1.007825032230
         H            5.152749642822    -0.163767930503     0.429878298095     1.007825032230

  Basis Set: AUG-CC-PVTZ
    Blend: AUG-CC-PVTZ
  Basis Set: (AUG-CC-PVTZ AUX)
    Blend: AUG-CC-PVTZ-JKFIT
	 Reference Energy          =    -811.4744976984729874 [Eh]
	 Singles Energy            =      -0.0000000000000000 [Eh]
	 Same-Spin Energy          =      -0.8313753603866845 [Eh]
	 Opposite-Spin Energy      =      -2.5277638786552874 [Eh]
	 Correlation Energy        =      -3.3591392390419719 [Eh]
	 Total Energy              =    -814.8336369375149388 [Eh]

	 ================> DF-SCS-MP2 Energies <==================
	-----------------------------------------------------------
	 SCS Same-Spin Scale       =       0.3333333333333333 [-]
	 SCS Opposite-Spin Scale   =       1.2000000000000000 [-]
	 SCS Same-Spin Energy      =      -0.2771251201288948 [Eh]
	 SCS Opposite-Spin Energy  =      -3.0333166543863448 [Eh]
	 SCS Correlation Energy    =      -3.3104417745152395 [Eh]
	 SCS Total Energy          =    -814.7849394729881851 [Eh]
	-----------------------------------------------------------

  Dipole Moment: [D]
     X:    -0.5401      Y:     4.5875      Z:     2.3805     Total:     5.1964

*** Psi4 exiting successfully. Buy a developer a beer!
