                               Psi4 1.3.2 release

  ==> Input File <==

--------------------------------------------------------------------------
#psi4
#
memory 32 gb

molecule  {
0 1
  O        1.3620710    -0.3800110    -0.9318440
  O        3.2020570     1.9012130    -0.2995130
  O        2.7994070    -2.7489470    -0.4002010
  O       -1.3621860     2.3740050     0.1547830
  N       -0.8435754     0.2093237    -0.2195579
  N       -3.0541720     0.8052390     0.2400120
  N       -4.6734100    -0.8124350     0.4126370
  C        2.7015950     0.8755540     0.5594740
  C        1.2368440     1.1072260     0.8878520
  C        2.6518190    -0.3922910    -0.2854700
  C        0.5739580     0.6830040    -0.4149160
  C        2.8020980    -1.6600160     0.5224700
  C       -1.1273370    -1.1158190    -0.3082760
  C       -1.7446880     1.2038920     0.0820450
  C       -2.4290264    -1.4590224    -0.0974051
  C       -3.3619920    -0.4731600     0.1685110
  H        3.3343810     0.7567850     1.4508530
  H        0.9047070     0.4438290     1.6934890
  H        0.9853290     2.1340670     1.1581470
  H        0.5274540     1.5132540    -1.1249130
  H        3.4174920    -0.3642830    -1.0666260
  H        1.9707490    -1.7331840     1.2432230
  H        3.7460890    -1.6095150     1.0882890
  H        3.1038510     2.7463240     0.1779830
  H       -0.3107400    -1.7892010    -0.5436980
  H        2.9100300    -3.5650720     0.1192120
  H       -2.7034680    -2.5490840    -0.1532500
  H       -5.0287110    -1.6377420    -0.0567190
  H       -5.2994710    -0.0137980     0.3861010
units angstrom
no_reorient  #important for SAPT in psi4, default
symmetry c1  #important for SAPT in psi4, default
}

set PROPERTIES_ORIGIN ["COM"]
properties('MP2/aug-cc-pvtz', properties = ['dipole'])
--------------------------------------------------------------------------

    Molecular point group: c1
  Charge       = 0
  Multiplicity = 1
  Basis Set: AUG-CC-PVTZ
    Blend: AUG-CC-PVTZ
  Basis Set: (AUG-CC-PVTZ AUX)
    Blend: AUG-CC-PVTZ-JKFIT

    Orbital Energies [Eh]
    ---------------------

    Doubly Occupied:

       1A    -20.579209     2A    -20.576032     3A    -20.575394
       4A    -20.497132     5A    -15.623319     6A    -15.585642
       7A    -15.537167     8A    -11.363861     9A    -11.338440
      10A    -11.334586    11A    -11.320917    12A    -11.302245
      13A    -11.298418    14A    -11.295070    15A    -11.238441
      16A    -11.237404    17A     -1.417667    18A     -1.384084
      19A     -1.374913    20A     -1.366879    21A     -1.293632
      22A     -1.260549    23A     -1.165993    24A     -1.080032
      25A     -1.070309    26A     -1.032240    27A     -0.927009
      28A     -0.907365    29A     -0.868424    30A     -0.828893
      31A     -0.808083    32A     -0.756467    33A     -0.738665
      34A     -0.722411    35A     -0.707070    36A     -0.693649
      37A     -0.688834    38A     -0.675885    39A     -0.656700
      40A     -0.632669    41A     -0.630574    42A     -0.621917
      43A     -0.605831    44A     -0.598524    45A     -0.589573
      46A     -0.570931    47A     -0.562773    48A     -0.545780
      49A     -0.533390    50A     -0.522335    51A     -0.511606
      52A     -0.487320    53A     -0.480211    54A     -0.469932
      55A     -0.462083    56A     -0.443481    57A     -0.437188
      58A     -0.414651    59A     -0.382949    60A     -0.335352

  @DF-RHF Final Energy:  -811.47260700096751

   => Energetics <=

    Nuclear Repulsion Energy =           1170.7483565144245858
    One-Electron Energy =               -3436.5057312918970638
    Two-Electron Energy =                1454.2847677765046228
    Total Energy =                       -811.4726070009676278
  Basis Set: (AUG-CC-PVTZ AUX)
    Blend: AUG-CC-PVTZ-RI
    Molecular point group: c1

    Geometry (in Angstrom), charge = 0, multiplicity = 1:

       Center              X                  Y                   Z               Mass
    ------------   -----------------  -----------------  -----------------  -----------------
         O            1.365485531975    -0.383028218001    -0.932819109643    15.994914619570
         O            3.205471531975     1.898195781999    -0.300488109643    15.994914619570
         O            2.802821531975    -2.751964218001    -0.401176109643    15.994914619570
         O           -1.358771468025     2.370987781999     0.153807890357    15.994914619570
         N           -0.840160868025     0.206306481999    -0.220533009643    14.003074004430
         N           -3.050757468025     0.802221781999     0.239036890357    14.003074004430
         N           -4.669995468025    -0.815452218001     0.411661890357    14.003074004430
         C            2.705009531975     0.872536781999     0.558498890357    12.000000000000
         C            1.240258531975     1.104208781999     0.886876890357    12.000000000000
         C            2.655233531975    -0.395308218001    -0.286445109643    12.000000000000
         C            0.577372531975     0.679986781999    -0.415891109643    12.000000000000
         C            2.805512531975    -1.663033218001     0.521494890357    12.000000000000
         C           -1.123922468025    -1.118836218001    -0.309251109643    12.000000000000
         C           -1.741273468025     1.200874781999     0.081069890357    12.000000000000
         C           -2.425611868025    -1.462039618001    -0.098380209643    12.000000000000
         C           -3.358577468025    -0.476177218001     0.167535890357    12.000000000000
         H            3.337795531975     0.753767781999     1.449877890357     1.007825032230
         H            0.908121531975     0.440811781999     1.692513890357     1.007825032230
         H            0.988743531975     2.131049781999     1.157171890357     1.007825032230
         H            0.530868531975     1.510236781999    -1.125888109643     1.007825032230
         H            3.420906531975    -0.367300218001    -1.067601109643     1.007825032230
         H            1.974163531975    -1.736201218001     1.242247890357     1.007825032230
         H            3.749503531975    -1.612532218001     1.087313890357     1.007825032230
         H            3.107265531975     2.743306781999     0.177007890357     1.007825032230
         H           -0.307325468025    -1.792218218001    -0.544673109643     1.007825032230
         H            2.913444531975    -3.568089218001     0.118236890357     1.007825032230
         H           -2.700053468025    -2.552101218001    -0.154225109643     1.007825032230
         H           -5.025296468025    -1.640759218001    -0.057694109643     1.007825032230
         H           -5.296056468025    -0.016815218001     0.385125890357     1.007825032230

  Basis Set: AUG-CC-PVTZ
    Blend: AUG-CC-PVTZ
  Basis Set: (AUG-CC-PVTZ AUX)
    Blend: AUG-CC-PVTZ-JKFIT
	 Reference Energy          =    -811.4726070009675141 [Eh]
	 Singles Energy            =      -0.0000000000000000 [Eh]
	 Same-Spin Energy          =      -0.8304919037791463 [Eh]
	 Opposite-Spin Energy      =      -2.5258937552734571 [Eh]
	 Correlation Energy        =      -3.3563856590526031 [Eh]
	 Total Energy              =    -814.8289926600201625 [Eh]

	 ================> DF-SCS-MP2 Energies <==================
	-----------------------------------------------------------
	 SCS Same-Spin Scale       =       0.3333333333333333 [-]
	 SCS Opposite-Spin Scale   =       1.2000000000000000 [-]
	 SCS Same-Spin Energy      =      -0.2768306345930487 [Eh]
	 SCS Opposite-Spin Energy  =      -3.0310725063281483 [Eh]
	 SCS Correlation Energy    =      -3.3079031409211970 [Eh]
	 SCS Total Energy          =    -814.7805101418887261 [Eh]
	-----------------------------------------------------------

  Dipole Moment: [D]
     X:     1.3432      Y:    -4.8379      Z:     2.4383     Total:     5.5816

*** Psi4 exiting successfully. Buy a developer a beer!
