                               Psi4 1.3.2 release

  ==> Input File <==

--------------------------------------------------------------------------
#psi4
#
memory 32 gb

molecule  {
0 1
  O        1.3620710    -0.3800110    -0.9318440
  O        3.2020570     1.9012130    -0.2995130
  O        2.7994070    -2.7489470    -0.4002010
  O       -1.3621860     2.3740050     0.1547830
  N       -0.7982440     0.1994180    -0.2292560
  N       -3.0541720     0.8052390     0.2400120
  N       -4.6734100    -0.8124350     0.4126370
  C        2.7142041     0.8923366     0.6081574
  C        1.2368440     1.1072260     0.8878520
  C        2.6518190    -0.3922910    -0.2854700
  C        0.5266977     0.6944221    -0.3935035
  C        2.8020980    -1.6600160     0.5224700
  C       -1.1273370    -1.1158190    -0.3082760
  C       -1.7446880     1.2038920     0.0820450
  C       -2.4173070    -1.5045610    -0.1045420
  C       -3.3619920    -0.4731600     0.1685110
  H        3.3343810     0.7567850     1.4508530
  H        0.9047070     0.4438290     1.6934890
  H        0.9853290     2.1340670     1.1581470
  H        0.5274540     1.5132540    -1.1249130
  H        3.4174920    -0.3642830    -1.0666260
  H        1.9707490    -1.7331840     1.2432230
  H        3.7460890    -1.6095150     1.0882890
  H        3.1038510     2.7463240     0.1779830
  H       -0.3107400    -1.7892010    -0.5436980
  H        2.9100300    -3.5650720     0.1192120
  H       -2.7034680    -2.5490840    -0.1532500
  H       -5.0287110    -1.6377420    -0.0567190
  H       -5.2994710    -0.0137980     0.3861010
units angstrom
no_reorient  #important for SAPT in psi4, default
symmetry c1  #important for SAPT in psi4, default
}

set PROPERTIES_ORIGIN ["COM"]
properties('MP2/aug-cc-pvtz', properties = ['dipole'])
--------------------------------------------------------------------------

    Molecular point group: c1
  Charge       = 0
  Multiplicity = 1
  Basis Set: AUG-CC-PVTZ
    Blend: AUG-CC-PVTZ
  Basis Set: (AUG-CC-PVTZ AUX)
    Blend: AUG-CC-PVTZ-JKFIT

    Orbital Energies [Eh]
    ---------------------

    Doubly Occupied:

       1A    -20.575064     2A    -20.572813     3A    -20.566561
       4A    -20.506198     5A    -15.625575     6A    -15.590413
       7A    -15.543127     8A    -11.372796     9A    -11.347565
      10A    -11.330527    11A    -11.321338    12A    -11.298685
      13A    -11.293333    14A    -11.290589    15A    -11.239933
      16A    -11.237072    17A     -1.406786    18A     -1.382980
      19A     -1.369694    20A     -1.358359    21A     -1.295597
      22A     -1.267320    23A     -1.172562    24A     -1.080781
      25A     -1.064370    26A     -1.024875    27A     -0.929308
      28A     -0.899377    29A     -0.870385    30A     -0.829116
      31A     -0.806785    32A     -0.757450    33A     -0.741392
      34A     -0.717389    35A     -0.707901    36A     -0.689657
      37A     -0.683573    38A     -0.675196    39A     -0.656385
      40A     -0.636599    41A     -0.630285    42A     -0.619904
      43A     -0.605513    44A     -0.592741    45A     -0.588075
      46A     -0.578875    47A     -0.563122    48A     -0.541739
      49A     -0.533023    50A     -0.518314    51A     -0.508939
      52A     -0.482788    53A     -0.475725    54A     -0.467756
      55A     -0.462135    56A     -0.446497    57A     -0.435283
      58A     -0.419436    59A     -0.385753    60A     -0.337980

  @DF-RHF Final Energy:  -811.47187239958760

   => Energetics <=

    Nuclear Repulsion Energy =           1169.0084778482259935
    One-Electron Energy =               -3433.1020829502026572
    Two-Electron Energy =                1452.6217327023891812
    Total Energy =                       -811.4718723995874825
  Basis Set: (AUG-CC-PVTZ AUX)
    Blend: AUG-CC-PVTZ-RI
    Molecular point group: c1

    Geometry (in Angstrom), charge = 0, multiplicity = 1:

       Center              X                  Y                   Z               Mass
    ------------   -----------------  -----------------  -----------------  -----------------
         O            1.363902034730    -0.381501228152    -0.935547997461    15.994914619570
         O            3.203888034730     1.899722771848    -0.303216997461    15.994914619570
         O            2.801238034730    -2.750437228152    -0.403904997461    15.994914619570
         O           -1.360354965270     2.372514771848     0.151079002539    15.994914619570
         N           -0.796412965270     0.197927771848    -0.232959997461    14.003074004430
         N           -3.052340965270     0.803748771848     0.236308002539    14.003074004430
         N           -4.671578965270    -0.813925228152     0.408933002539    14.003074004430
         C            2.716035134730     0.890846371848     0.604453402539    12.000000000000
         C            1.238675034730     1.105735771848     0.884148002539    12.000000000000
         C            2.653650034730    -0.393781228152    -0.289173997461    12.000000000000
         C            0.528528734730     0.692931871848    -0.397207497461    12.000000000000
         C            2.803929034730    -1.661506228152     0.518766002539    12.000000000000
         C           -1.125505965270    -1.117309228152    -0.311979997461    12.000000000000
         C           -1.742856965270     1.202401771848     0.078341002539    12.000000000000
         C           -2.415475965270    -1.506051228152    -0.108245997461    12.000000000000
         C           -3.360160965270    -0.474650228152     0.164807002539    12.000000000000
         H            3.336212034730     0.755294771848     1.447149002539     1.007825032230
         H            0.906538034730     0.442338771848     1.689785002539     1.007825032230
         H            0.987160034730     2.132576771848     1.154443002539     1.007825032230
         H            0.529285034730     1.511763771848    -1.128616997461     1.007825032230
         H            3.419323034730    -0.365773228152    -1.070329997461     1.007825032230
         H            1.972580034730    -1.734674228152     1.239519002539     1.007825032230
         H            3.747920034730    -1.611005228152     1.084585002539     1.007825032230
         H            3.105682034730     2.744833771848     0.174279002539     1.007825032230
         H           -0.308908965270    -1.790691228152    -0.547401997461     1.007825032230
         H            2.911861034730    -3.566562228152     0.115508002539     1.007825032230
         H           -2.701636965270    -2.550574228152    -0.156953997461     1.007825032230
         H           -5.026879965270    -1.639232228152    -0.060422997461     1.007825032230
         H           -5.297639965270    -0.015288228152     0.382397002539     1.007825032230

  Basis Set: AUG-CC-PVTZ
    Blend: AUG-CC-PVTZ
  Basis Set: (AUG-CC-PVTZ AUX)
    Blend: AUG-CC-PVTZ-JKFIT
	 Reference Energy          =    -811.4718723995875962 [Eh]
	 Singles Energy            =      -0.0000000000000000 [Eh]
	 Same-Spin Energy          =      -0.8299221781408310 [Eh]
	 Opposite-Spin Energy      =      -2.5265041241728792 [Eh]
	 Correlation Energy        =      -3.3564263023137100 [Eh]
	 Total Energy              =    -814.8282987019013035 [Eh]

	 ================> DF-SCS-MP2 Energies <==================
	-----------------------------------------------------------
	 SCS Same-Spin Scale       =       0.3333333333333333 [-]
	 SCS Opposite-Spin Scale   =       1.2000000000000000 [-]
	 SCS Same-Spin Energy      =      -0.2766407260469437 [Eh]
	 SCS Opposite-Spin Energy  =      -3.0318049490074550 [Eh]
	 SCS Correlation Energy    =      -3.3084456750543989 [Eh]
	 SCS Total Energy          =    -814.7803180746419685 [Eh]
	-----------------------------------------------------------

  Dipole Moment: [D]
     X:     0.7222      Y:    -4.6319      Z:     2.5834     Total:     5.3525

*** Psi4 exiting successfully. Buy a developer a beer!
