                               Psi4 1.3.2 release

  ==> Input File <==

--------------------------------------------------------------------------
#psi4
#
memory 32 gb

molecule  {
0 1
  O        1.3620710    -0.3800110    -0.9318440
  O        3.2020570     1.9012130    -0.2995130
  O        2.7994070    -2.7489470    -0.4002010
  O       -1.3621860     2.3740050     0.1547830
  N       -0.7982440     0.1994180    -0.2292560
  N       -3.0541720     0.8052390     0.2400120
  N       -4.6734100    -0.8124350     0.4126370
  C        2.7015950     0.8755540     0.5594740
  C        1.2368440     1.1072260     0.8878520
  C        2.6518190    -0.3922910    -0.2854700
  C        0.5739580     0.6830040    -0.4149160
  C        2.8020980    -1.6600160     0.5224700
  C       -1.1273370    -1.1158190    -0.3082760
  C       -1.7446880     1.2038920     0.0820450
  C       -2.6066479    -1.5616203    -0.0746381
  C       -3.3619920    -0.4731600     0.1685110
  H        3.3343810     0.7567850     1.4508530
  H        0.9047070     0.4438290     1.6934890
  H        0.9853290     2.1340670     1.1581470
  H        0.5274540     1.5132540    -1.1249130
  H        3.4174920    -0.3642830    -1.0666260
  H        1.9707490    -1.7331840     1.2432230
  H        3.7460890    -1.6095150     1.0882890
  H        3.1038510     2.7463240     0.1779830
  H       -0.3107400    -1.7892010    -0.5436980
  H        2.9100300    -3.5650720     0.1192120
  H       -2.7034680    -2.5490840    -0.1532500
  H       -5.0287110    -1.6377420    -0.0567190
  H       -5.2994710    -0.0137980     0.3861010
units angstrom
no_reorient  #important for SAPT in psi4, default
symmetry c1  #important for SAPT in psi4, default
}

set PROPERTIES_ORIGIN ["COM"]
properties('MP2/aug-cc-pvtz', properties = ['dipole'])
--------------------------------------------------------------------------

    Molecular point group: c1
  Charge       = 0
  Multiplicity = 1
  Basis Set: AUG-CC-PVTZ
    Blend: AUG-CC-PVTZ
  Basis Set: (AUG-CC-PVTZ AUX)
    Blend: AUG-CC-PVTZ-JKFIT

    Orbital Energies [Eh]
    ---------------------

    Doubly Occupied:

       1A    -20.581600     2A    -20.579722     3A    -20.578617
       4A    -20.505038     5A    -15.643924     6A    -15.568981
       7A    -15.534082     8A    -11.371783     9A    -11.352012
      10A    -11.339259    11A    -11.328030    12A    -11.305900
      13A    -11.301143    14A    -11.298146    15A    -11.243329
      16A    -11.236549    17A     -1.423568    18A     -1.386039
      19A     -1.377661    20A     -1.370071    21A     -1.291354
      22A     -1.263340    23A     -1.161865    24A     -1.081516
      25A     -1.059073    26A     -1.028344    27A     -0.935726
      28A     -0.911649    29A     -0.867937    30A     -0.831550
      31A     -0.809943    32A     -0.749904    33A     -0.745913
      34A     -0.726212    35A     -0.704165    36A     -0.697129
      37A     -0.692728    38A     -0.677970    39A     -0.670587
      40A     -0.648037    41A     -0.630841    42A     -0.625230
      43A     -0.607040    44A     -0.594688    45A     -0.589008
      46A     -0.573254    47A     -0.550192    48A     -0.543234
      49A     -0.533087    50A     -0.527329    51A     -0.513551
      52A     -0.490911    53A     -0.481188    54A     -0.472240
      55A     -0.464380    56A     -0.446216    57A     -0.440385
      58A     -0.418046    59A     -0.380044    60A     -0.322022

  @DF-RHF Final Energy:  -811.42834508059752

   => Energetics <=

    Nuclear Repulsion Energy =           1167.2956996930893183
    One-Electron Energy =               -3429.2815309115758282
    Two-Electron Energy =                1450.5574861378891001
    Total Energy =                       -811.4283450805974098
  Basis Set: (AUG-CC-PVTZ AUX)
    Blend: AUG-CC-PVTZ-RI
    Molecular point group: c1

    Geometry (in Angstrom), charge = 0, multiplicity = 1:

       Center              X                  Y                   Z               Mass
    ------------   -----------------  -----------------  -----------------  -----------------
         O            1.372076201127    -0.376995889871    -0.933424157956    15.994914619570
         O            3.212062201127     1.904228110129    -0.301093157956    15.994914619570
         O            2.809412201127    -2.745931889871    -0.401781157956    15.994914619570
         O           -1.352180798873     2.377020110129     0.153202842044    15.994914619570
         N           -0.788238798873     0.202433110129    -0.230836157956    14.003074004430
         N           -3.044166798873     0.808254110129     0.238431842044    14.003074004430
         N           -4.663404798873    -0.809419889871     0.411056842044    14.003074004430
         C            2.711600201127     0.878569110129     0.557893842044    12.000000000000
         C            1.246849201127     1.110241110129     0.886271842044    12.000000000000
         C            2.661824201127    -0.389275889871    -0.287050157956    12.000000000000
         C            0.583963201127     0.686019110129    -0.416496157956    12.000000000000
         C            2.812103201127    -1.657000889871     0.520889842044    12.000000000000
         C           -1.117331798873    -1.112803889871    -0.309856157956    12.000000000000
         C           -1.734682798873     1.206907110129     0.080464842044    12.000000000000
         C           -2.596642698873    -1.558605189871    -0.076218257956    12.000000000000
         C           -3.351986798873    -0.470144889871     0.166930842044    12.000000000000
         H            3.344386201127     0.759800110129     1.449272842044     1.007825032230
         H            0.914712201127     0.446844110129     1.691908842044     1.007825032230
         H            0.995334201127     2.137082110129     1.156566842044     1.007825032230
         H            0.537459201127     1.516269110129    -1.126493157956     1.007825032230
         H            3.427497201127    -0.361267889871    -1.068206157956     1.007825032230
         H            1.980754201127    -1.730168889871     1.241642842044     1.007825032230
         H            3.756094201127    -1.606499889871     1.086708842044     1.007825032230
         H            3.113856201127     2.749339110129     0.176402842044     1.007825032230
         H           -0.300734798873    -1.786185889871    -0.545278157956     1.007825032230
         H            2.920035201127    -3.562056889871     0.117631842044     1.007825032230
         H           -2.693462798873    -2.546068889871    -0.154830157956     1.007825032230
         H           -5.018705798873    -1.634726889871    -0.058299157956     1.007825032230
         H           -5.289465798873    -0.010782889871     0.384520842044     1.007825032230

  Basis Set: AUG-CC-PVTZ
    Blend: AUG-CC-PVTZ
  Basis Set: (AUG-CC-PVTZ AUX)
    Blend: AUG-CC-PVTZ-JKFIT
	 Reference Energy          =    -811.4283450805975235 [Eh]
	 Singles Energy            =      -0.0000000000000000 [Eh]
	 Same-Spin Energy          =      -0.8318564665513987 [Eh]
	 Opposite-Spin Energy      =      -2.5287417442595510 [Eh]
	 Correlation Energy        =      -3.3605982108109496 [Eh]
	 Total Energy              =    -814.7889432914084864 [Eh]

	 ================> DF-SCS-MP2 Energies <==================
	-----------------------------------------------------------
	 SCS Same-Spin Scale       =       0.3333333333333333 [-]
	 SCS Opposite-Spin Scale   =       1.2000000000000000 [-]
	 SCS Same-Spin Energy      =      -0.2772854888504662 [Eh]
	 SCS Opposite-Spin Energy  =      -3.0344900931114611 [Eh]
	 SCS Correlation Energy    =      -3.3117755819619275 [Eh]
	 SCS Total Energy          =    -814.7401206625594341 [Eh]
	-----------------------------------------------------------

  Dipole Moment: [D]
     X:     1.9147      Y:    -4.5879      Z:     2.3987     Total:     5.5199

*** Psi4 exiting successfully. Buy a developer a beer!
