                               Psi4 1.3.2 release

  ==> Input File <==

--------------------------------------------------------------------------
#psi4
#
memory 32 gb

molecule  {
0 1
  O        1.3620710    -0.3800110    -0.9318440
  O        3.2020570     1.9012130    -0.2995130
  O        2.7994070    -2.7489470    -0.4002010
  O       -1.3621860     2.3740050     0.1547830
  N       -0.7982440     0.1994180    -0.2292560
  N       -3.0541720     0.8052390     0.2400120
  N       -4.6734100    -0.8124350     0.4126370
  C        2.7015950     0.8755540     0.5594740
  C        1.2368440     1.1072260     0.8878520
  C        2.6518190    -0.3922910    -0.2854700
  C        0.5739580     0.6830040    -0.4149160
  C        2.8020980    -1.6600160     0.5224700
  C       -1.1273370    -1.1158190    -0.3082760
  C       -1.7446880     1.2038920     0.0820450
  C       -2.4173070    -1.5045610    -0.1045420
  C       -3.3619920    -0.4731600     0.1685110
  H        3.3343810     0.7567850     1.4508530
  H        0.9653603     0.5649754     1.5463675
  H        0.9853290     2.1340670     1.1581470
  H        0.5274540     1.5132540    -1.1249130
  H        3.4174920    -0.3642830    -1.0666260
  H        1.9707490    -1.7331840     1.2432230
  H        3.7460890    -1.6095150     1.0882890
  H        3.1038510     2.7463240     0.1779830
  H       -0.3107400    -1.7892010    -0.5436980
  H        2.9100300    -3.5650720     0.1192120
  H       -2.7034680    -2.5490840    -0.1532500
  H       -5.0287110    -1.6377420    -0.0567190
  H       -5.2994710    -0.0137980     0.3861010
units angstrom
no_reorient  #important for SAPT in psi4, default
symmetry c1  #important for SAPT in psi4, default
}

set PROPERTIES_ORIGIN ["COM"]
properties('MP2/aug-cc-pvtz', properties = ['dipole'])
--------------------------------------------------------------------------

    Molecular point group: c1
  Charge       = 0
  Multiplicity = 1
  Basis Set: AUG-CC-PVTZ
    Blend: AUG-CC-PVTZ
  Basis Set: (AUG-CC-PVTZ AUX)
    Blend: AUG-CC-PVTZ-JKFIT

    Orbital Energies [Eh]
    ---------------------

    Doubly Occupied:

       1A    -20.578176     2A    -20.572681     3A    -20.572534
       4A    -20.503022     5A    -15.621945     6A    -15.588438
       7A    -15.540894     8A    -11.369922     9A    -11.345126
      10A    -11.329135    11A    -11.318390    12A    -11.299637
      13A    -11.297493    14A    -11.292869    15A    -11.237140
      16A    -11.212001    17A     -1.416417    18A     -1.382295
      19A     -1.373284    20A     -1.365026    21A     -1.292299
      22A     -1.261554    23A     -1.169268    24A     -1.087936
      25A     -1.069478    26A     -1.032498    27A     -0.926717
      28A     -0.898909    29A     -0.875126    30A     -0.839711
      31A     -0.805969    32A     -0.755232    33A     -0.740653
      34A     -0.720916    35A     -0.707645    36A     -0.695138
      37A     -0.691900    38A     -0.679018    39A     -0.658257
      40A     -0.641419    41A     -0.632859    42A     -0.620046
      43A     -0.606054    44A     -0.595412    45A     -0.588672
      46A     -0.572975    47A     -0.568590    48A     -0.547873
      49A     -0.537624    50A     -0.524218    51A     -0.514005
      52A     -0.485698    53A     -0.481788    54A     -0.469737
      55A     -0.460452    56A     -0.444264    57A     -0.437717
      58A     -0.416373    59A     -0.383671    60A     -0.334938

  @DF-RHF Final Energy:  -811.44589228920438

   => Energetics <=

    Nuclear Repulsion Energy =           1171.0839102433021708
    One-Electron Energy =               -3437.0815362611301680
    Two-Electron Energy =                1454.5517337286237307
    Total Energy =                       -811.4458922892044939
  Basis Set: (AUG-CC-PVTZ AUX)
    Blend: AUG-CC-PVTZ-RI
    Molecular point group: c1

    Geometry (in Angstrom), charge = 0, multiplicity = 1:

       Center              X                  Y                   Z               Mass
    ------------   -----------------  -----------------  -----------------  -----------------
         O            1.361801805563    -0.380548683133    -0.931191042550    15.994914619570
         O            3.201787805563     1.900675316867    -0.298860042550    15.994914619570
         O            2.799137805563    -2.749484683133    -0.399548042550    15.994914619570
         O           -1.362455194437     2.373467316867     0.155435957450    15.994914619570
         N           -0.798513194437     0.198880316867    -0.228603042550    14.003074004430
         N           -3.054441194437     0.804701316867     0.240664957450    14.003074004430
         N           -4.673679194437    -0.812972683133     0.413289957450    14.003074004430
         C            2.701325805563     0.875016316867     0.560126957450    12.000000000000
         C            1.236574805563     1.106688316867     0.888504957450    12.000000000000
         C            2.651549805563    -0.392828683133    -0.284817042550    12.000000000000
         C            0.573688805563     0.682466316867    -0.414263042550    12.000000000000
         C            2.801828805563    -1.660553683133     0.523122957450    12.000000000000
         C           -1.127606194437    -1.116356683133    -0.307623042550    12.000000000000
         C           -1.744957194437     1.203354316867     0.082697957450    12.000000000000
         C           -2.417576194437    -1.505098683133    -0.103889042550    12.000000000000
         C           -3.362261194437    -0.473697683133     0.169163957450    12.000000000000
         H            3.334111805563     0.756247316867     1.451505957450     1.007825032230
         H            0.965091105563     0.564437716867     1.547020457450     1.007825032230
         H            0.985059805563     2.133529316867     1.158799957450     1.007825032230
         H            0.527184805563     1.512716316867    -1.124260042550     1.007825032230
         H            3.417222805563    -0.364820683133    -1.065973042550     1.007825032230
         H            1.970479805563    -1.733721683133     1.243875957450     1.007825032230
         H            3.745819805563    -1.610052683133     1.088941957450     1.007825032230
         H            3.103581805563     2.745786316867     0.178635957450     1.007825032230
         H           -0.311009194437    -1.789738683133    -0.543045042550     1.007825032230
         H            2.909760805563    -3.565609683133     0.119864957450     1.007825032230
         H           -2.703737194437    -2.549621683133    -0.152597042550     1.007825032230
         H           -5.028980194437    -1.638279683133    -0.056066042550     1.007825032230
         H           -5.299740194437    -0.014335683133     0.386753957450     1.007825032230

  Basis Set: AUG-CC-PVTZ
    Blend: AUG-CC-PVTZ
  Basis Set: (AUG-CC-PVTZ AUX)
    Blend: AUG-CC-PVTZ-JKFIT
	 Reference Energy          =    -811.4458922892043802 [Eh]
	 Singles Energy            =      -0.0000000000000000 [Eh]
	 Same-Spin Energy          =      -0.8295087005645978 [Eh]
	 Opposite-Spin Energy      =      -2.5242412943994128 [Eh]
	 Correlation Energy        =      -3.3537499949640104 [Eh]
	 Total Energy              =    -814.7996422841683852 [Eh]

	 ================> DF-SCS-MP2 Energies <==================
	-----------------------------------------------------------
	 SCS Same-Spin Scale       =       0.3333333333333333 [-]
	 SCS Opposite-Spin Scale   =       1.2000000000000000 [-]
	 SCS Same-Spin Energy      =      -0.2765029001881992 [Eh]
	 SCS Opposite-Spin Energy  =      -3.0290895532792952 [Eh]
	 SCS Correlation Energy    =      -3.3055924534674945 [Eh]
	 SCS Total Energy          =    -814.7514847426718916 [Eh]
	-----------------------------------------------------------

  Dipole Moment: [D]
     X:     1.0554      Y:    -4.7182      Z:     2.5336     Total:     5.4584

*** Psi4 exiting successfully. Buy a developer a beer!
