                               Psi4 1.3.2 release

  ==> Input File <==

--------------------------------------------------------------------------
#psi4
#
memory 32 gb

molecule  {
0 1
  O        1.3620710    -0.3800110    -0.9318440
  O        3.2020570     1.9012130    -0.2995130
  O        2.7994070    -2.7489470    -0.4002010
  O       -1.3621860     2.3740050     0.1547830
  N       -0.7982440     0.1994180    -0.2292560
  N       -3.0541720     0.8052390     0.2400120
  N       -4.6734100    -0.8124350     0.4126370
  C        2.6872013     0.8590537     0.5111906
  C        1.2368440     1.1072260     0.8878520
  C        2.6518190    -0.3922910    -0.2854700
  C        0.6220259     0.6721027    -0.4347413
  C        2.8020980    -1.6600160     0.5224700
  C       -1.1273370    -1.1158190    -0.3082760
  C       -1.7446880     1.2038920     0.0820450
  C       -2.4173070    -1.5045610    -0.1045420
  C       -3.3619920    -0.4731600     0.1685110
  H        3.3343810     0.7567850     1.4508530
  H        0.9047070     0.4438290     1.6934890
  H        0.9853290     2.1340670     1.1581470
  H        0.5274540     1.5132540    -1.1249130
  H        3.4174920    -0.3642830    -1.0666260
  H        1.9707490    -1.7331840     1.2432230
  H        3.7460890    -1.6095150     1.0882890
  H        3.1038510     2.7463240     0.1779830
  H       -0.3107400    -1.7892010    -0.5436980
  H        2.9100300    -3.5650720     0.1192120
  H       -2.7034680    -2.5490840    -0.1532500
  H       -5.0287110    -1.6377420    -0.0567190
  H       -5.2994710    -0.0137980     0.3861010
units angstrom
no_reorient  #important for SAPT in psi4, default
symmetry c1  #important for SAPT in psi4, default
}

set PROPERTIES_ORIGIN ["COM"]
properties('MP2/aug-cc-pvtz', properties = ['dipole'])
--------------------------------------------------------------------------

    Molecular point group: c1
  Charge       = 0
  Multiplicity = 1
  Basis Set: AUG-CC-PVTZ
    Blend: AUG-CC-PVTZ
  Basis Set: (AUG-CC-PVTZ AUX)
    Blend: AUG-CC-PVTZ-JKFIT

    Orbital Energies [Eh]
    ---------------------

    Doubly Occupied:

       1A    -20.580524     2A    -20.579417     3A    -20.576118
       4A    -20.499936     5A    -15.617097     6A    -15.586237
       7A    -15.538379     8A    -11.366900     9A    -11.342418
      10A    -11.332231    11A    -11.315141    12A    -11.303837
      13A    -11.300578    14A    -11.295933    15A    -11.237273
      16A    -11.234056    17A     -1.432631    18A     -1.380288
      19A     -1.377385    20A     -1.371219    21A     -1.288898
      22A     -1.255322    23A     -1.165611    24A     -1.083711
      25A     -1.069653    26A     -1.030453    27A     -0.926295
      28A     -0.895202    29A     -0.867946    30A     -0.833503
      31A     -0.805905    32A     -0.751258    33A     -0.736893
      34A     -0.726006    35A     -0.706329    36A     -0.697771
      37A     -0.692092    38A     -0.677786    39A     -0.657327
      40A     -0.637845    41A     -0.624572    42A     -0.617561
      43A     -0.604721    44A     -0.597109    45A     -0.588724
      46A     -0.574688    47A     -0.567369    48A     -0.548217
      49A     -0.532538    50A     -0.527787    51A     -0.512944
      52A     -0.492476    53A     -0.480603    54A     -0.471093
      55A     -0.458342    56A     -0.441398    57A     -0.438076
      58A     -0.412774    59A     -0.381459    60A     -0.331695

  @DF-RHF Final Energy:  -811.47413479396005

   => Energetics <=

    Nuclear Repulsion Energy =           1170.9367767797180022
    One-Electron Energy =               -3436.8667241108814778
    Two-Electron Energy =                1454.4558125372034283
    Total Energy =                       -811.4741347939600473
  Basis Set: (AUG-CC-PVTZ AUX)
    Blend: AUG-CC-PVTZ-RI
    Molecular point group: c1

    Geometry (in Angstrom), charge = 0, multiplicity = 1:

       Center              X                  Y                   Z               Mass
    ------------   -----------------  -----------------  -----------------  -----------------
         O            1.360291560414    -0.378563072268    -0.928244942394    15.994914619570
         O            3.200277560414     1.902660927732    -0.295913942394    15.994914619570
         O            2.797627560414    -2.747499072268    -0.396601942394    15.994914619570
         O           -1.363965439586     2.375452927732     0.158382057606    15.994914619570
         N           -0.800023439586     0.200865927732    -0.225656942394    14.003074004430
         N           -3.055951439586     0.806686927732     0.243611057606    14.003074004430
         N           -4.675189439586    -0.810987072268     0.416236057606    14.003074004430
         C            2.685421860414     0.860501627732     0.514789657606    12.000000000000
         C            1.235064560414     1.108673927732     0.891451057606    12.000000000000
         C            2.650039560414    -0.390843072268    -0.281870942394    12.000000000000
         C            0.620246460414     0.673550627732    -0.431142242394    12.000000000000
         C            2.800318560414    -1.658568072268     0.526069057606    12.000000000000
         C           -1.129116439586    -1.114371072268    -0.304676942394    12.000000000000
         C           -1.746467439586     1.205339927732     0.085644057606    12.000000000000
         C           -2.419086439586    -1.503113072268    -0.100942942394    12.000000000000
         C           -3.363771439586    -0.471712072268     0.172110057606    12.000000000000
         H            3.332601560414     0.758232927732     1.454452057606     1.007825032230
         H            0.902927560414     0.445276927732     1.697088057606     1.007825032230
         H            0.983549560414     2.135514927732     1.161746057606     1.007825032230
         H            0.525674560414     1.514701927732    -1.121313942394     1.007825032230
         H            3.415712560414    -0.362835072268    -1.063026942394     1.007825032230
         H            1.968969560414    -1.731736072268     1.246822057606     1.007825032230
         H            3.744309560414    -1.608067072268     1.091888057606     1.007825032230
         H            3.102071560414     2.747771927732     0.181582057606     1.007825032230
         H           -0.312519439586    -1.787753072268    -0.540098942394     1.007825032230
         H            2.908250560414    -3.563624072268     0.122811057606     1.007825032230
         H           -2.705247439586    -2.547636072268    -0.149650942394     1.007825032230
         H           -5.030490439586    -1.636294072268    -0.053119942394     1.007825032230
         H           -5.301250439586    -0.012350072268     0.389700057606     1.007825032230

  Basis Set: AUG-CC-PVTZ
    Blend: AUG-CC-PVTZ
  Basis Set: (AUG-CC-PVTZ AUX)
    Blend: AUG-CC-PVTZ-JKFIT
	 Reference Energy          =    -811.4741347939600473 [Eh]
	 Singles Energy            =      -0.0000000000000000 [Eh]
	 Same-Spin Energy          =      -0.8299989836634973 [Eh]
	 Opposite-Spin Energy      =      -2.5248284235175236 [Eh]
	 Correlation Energy        =      -3.3548274071810207 [Eh]
	 Total Energy              =    -814.8289622011410529 [Eh]

	 ================> DF-SCS-MP2 Energies <==================
	-----------------------------------------------------------
	 SCS Same-Spin Scale       =       0.3333333333333333 [-]
	 SCS Opposite-Spin Scale   =       1.2000000000000000 [-]
	 SCS Same-Spin Energy      =      -0.2766663278878324 [Eh]
	 SCS Opposite-Spin Energy  =      -3.0297941082210280 [Eh]
	 SCS Correlation Energy    =      -3.3064604361088605 [Eh]
	 SCS Total Energy          =    -814.7805952300689114 [Eh]
	-----------------------------------------------------------

  Dipole Moment: [D]
     X:     1.4297      Y:    -4.7312      Z:     2.3848     Total:     5.4878

*** Psi4 exiting successfully. Buy a developer a beer!
