                               Psi4 1.3.2 release

  ==> Input File <==

--------------------------------------------------------------------------
#psi4
#
memory 32 gb

molecule  {
0 1
  O        1.3620710    -0.3800110    -0.9318440
  O        3.2020570     1.9012130    -0.2995130
  O        2.7994070    -2.7489470    -0.4002010
  O       -1.3621860     2.3740050     0.1547830
  N       -0.7982440     0.1994180    -0.2292560
  N       -3.0541720     0.8052390     0.2400120
  N       -4.6734100    -0.8124350     0.4126370
  C        2.7015950     0.8755540     0.5594740
  C        1.2368440     1.1072260     0.8878520
  C        2.6518190    -0.3922910    -0.2854700
  C        0.5739580     0.6830040    -0.4149160
  C        2.7991219    -1.6441900     0.5034647
  C       -1.1273370    -1.1158190    -0.3082760
  C       -1.7446880     1.2038920     0.0820450
  C       -2.4173070    -1.5045610    -0.1045420
  C       -3.3619920    -0.4731600     0.1685110
  H        3.3343810     0.7567850     1.4508530
  H        0.9047070     0.4438290     1.6934890
  H        0.9853290     2.1340670     1.1581470
  H        0.5274540     1.5132540    -1.1249130
  H        3.4174920    -0.3642830    -1.0666260
  H        1.9707490    -1.7331840     1.2432230
  H        3.7460890    -1.6095150     1.0882890
  H        3.1038510     2.7463240     0.1779830
  H       -0.3107400    -1.7892010    -0.5436980
  H        2.9093849    -3.5741261     0.1048452
  H       -2.7034680    -2.5490840    -0.1532500
  H       -5.0287110    -1.6377420    -0.0567190
  H       -5.2994710    -0.0137980     0.3861010
units angstrom
no_reorient  #important for SAPT in psi4, default
symmetry c1  #important for SAPT in psi4, default
}

set PROPERTIES_ORIGIN ["COM"]
properties('MP2/aug-cc-pvtz', properties = ['dipole'])
--------------------------------------------------------------------------

    Molecular point group: c1
  Charge       = 0
  Multiplicity = 1
  Basis Set: AUG-CC-PVTZ
    Blend: AUG-CC-PVTZ
  Basis Set: (AUG-CC-PVTZ AUX)
    Blend: AUG-CC-PVTZ-JKFIT

    Orbital Energies [Eh]
    ---------------------

    Doubly Occupied:

       1A    -20.576599     2A    -20.574713     3A    -20.572906
       4A    -20.503067     5A    -15.621751     6A    -15.588345
       7A    -15.540790     8A    -11.369910     9A    -11.345025
      10A    -11.330860    11A    -11.318261    12A    -11.301548
      13A    -11.297993    14A    -11.292441    15A    -11.236992
      16A    -11.236920    17A     -1.417145    18A     -1.382475
      19A     -1.372986    20A     -1.365416    21A     -1.292240
      22A     -1.261476    23A     -1.169131    24A     -1.079413
      25A     -1.070862    26A     -1.030099    27A     -0.926934
      28A     -0.897210    29A     -0.868990    30A     -0.831051
      31A     -0.806326    32A     -0.754242    33A     -0.738700
      34A     -0.722194    35A     -0.707367    36A     -0.693183
      37A     -0.689156    38A     -0.675580    39A     -0.656176
      40A     -0.636461    41A     -0.627668    42A     -0.618343
      43A     -0.606149    44A     -0.595464    45A     -0.588669
      46A     -0.572872    47A     -0.568144    48A     -0.542903
      49A     -0.532619    50A     -0.524432    51A     -0.510940
      52A     -0.486588    53A     -0.482097    54A     -0.466021
      55A     -0.461146    56A     -0.444677    57A     -0.438725
      58A     -0.416417    59A     -0.383753    60A     -0.334935

  @DF-RHF Final Energy:  -811.47871924163167

   => Energetics <=

    Nuclear Repulsion Energy =           1170.3720184935414181
    One-Electron Energy =               -3435.7904760153560346
    Two-Electron Energy =                1453.9397382801828371
    Total Energy =                       -811.4787192416317794
  Basis Set: (AUG-CC-PVTZ AUX)
    Blend: AUG-CC-PVTZ-RI
    Molecular point group: c1

    Geometry (in Angstrom), charge = 0, multiplicity = 1:

       Center              X                  Y                   Z               Mass
    ------------   -----------------  -----------------  -----------------  -----------------
         O            1.362231111133    -0.380807138020    -0.930775921503    15.994914619570
         O            3.202217111133     1.900416861980    -0.298444921503    15.994914619570
         O            2.799567111133    -2.749743138020    -0.399132921503    15.994914619570
         O           -1.362025888867     2.373208861980     0.155851078497    15.994914619570
         N           -0.798083888867     0.198621861980    -0.228187921503    14.003074004430
         N           -3.054011888867     0.804442861980     0.241080078497    14.003074004430
         N           -4.673249888867    -0.813231138020     0.413705078497    14.003074004430
         C            2.701755111133     0.874757861980     0.560542078497    12.000000000000
         C            1.237004111133     1.106429861980     0.888920078497    12.000000000000
         C            2.651979111133    -0.393087138020    -0.284401921503    12.000000000000
         C            0.574118111133     0.682207861980    -0.413847921503    12.000000000000
         C            2.799282011133    -1.644986138020     0.504532778497    12.000000000000
         C           -1.127176888867    -1.116615138020    -0.307207921503    12.000000000000
         C           -1.744527888867     1.203095861980     0.083113078497    12.000000000000
         C           -2.417146888867    -1.505357138020    -0.103473921503    12.000000000000
         C           -3.361831888867    -0.473956138020     0.169579078497    12.000000000000
         H            3.334541111133     0.755988861980     1.451921078497     1.007825032230
         H            0.904867111133     0.443032861980     1.694557078497     1.007825032230
         H            0.985489111133     2.133270861980     1.159215078497     1.007825032230
         H            0.527614111133     1.512457861980    -1.123844921503     1.007825032230
         H            3.417652111133    -0.365079138020    -1.065557921503     1.007825032230
         H            1.970909111133    -1.733980138020     1.244291078497     1.007825032230
         H            3.746249111133    -1.610311138020     1.089357078497     1.007825032230
         H            3.104011111133     2.745527861980     0.179051078497     1.007825032230
         H           -0.310579888867    -1.789997138020    -0.542629921503     1.007825032230
         H            2.909545011133    -3.574922238020     0.105913278497     1.007825032230
         H           -2.703307888867    -2.549880138020    -0.152181921503     1.007825032230
         H           -5.028550888867    -1.638538138020    -0.055650921503     1.007825032230
         H           -5.299310888867    -0.014594138020     0.387169078497     1.007825032230

  Basis Set: AUG-CC-PVTZ
    Blend: AUG-CC-PVTZ
  Basis Set: (AUG-CC-PVTZ AUX)
    Blend: AUG-CC-PVTZ-JKFIT
	 Reference Energy          =    -811.4787192416316657 [Eh]
	 Singles Energy            =      -0.0000000000000000 [Eh]
	 Same-Spin Energy          =      -0.8297396242441550 [Eh]
	 Opposite-Spin Energy      =      -2.5250863898938611 [Eh]
	 Correlation Energy        =      -3.3548260141380162 [Eh]
	 Total Energy              =    -814.8335452557696499 [Eh]

	 ================> DF-SCS-MP2 Energies <==================
	-----------------------------------------------------------
	 SCS Same-Spin Scale       =       0.3333333333333333 [-]
	 SCS Opposite-Spin Scale   =       1.2000000000000000 [-]
	 SCS Same-Spin Energy      =      -0.2765798747480517 [Eh]
	 SCS Opposite-Spin Energy  =      -3.0301036678726332 [Eh]
	 SCS Correlation Energy    =      -3.3066835426206849 [Eh]
	 SCS Total Energy          =    -814.7854027842523692 [Eh]
	-----------------------------------------------------------

  Dipole Moment: [D]
     X:     1.0732      Y:    -4.6723      Z:     2.4681     Total:     5.3920

*** Psi4 exiting successfully. Buy a developer a beer!
