                               Psi4 1.3.2 release

  ==> Input File <==

--------------------------------------------------------------------------
#psi4
#
memory 32 gb

molecule  {
0 1
  O        1.3660538    -0.3667626    -0.9524212
  O        3.2020570     1.9012130    -0.2995130
  O        2.7994070    -2.7489470    -0.4002010
  O       -1.3621860     2.3740050     0.1547830
  N       -0.7982440     0.1994180    -0.2292560
  N       -3.0541720     0.8052390     0.2400120
  N       -4.6734100    -0.8124350     0.4126370
  C        2.7015950     0.8755540     0.5594740
  C        1.2368440     1.1072260     0.8878520
  C        2.6518190    -0.3922910    -0.2854700
  C        0.5739580     0.6830040    -0.4149160
  C        2.8020980    -1.6600160     0.5224700
  C       -1.1273370    -1.1158190    -0.3082760
  C       -1.7446880     1.2038920     0.0820450
  C       -2.4173070    -1.5045610    -0.1045420
  C       -3.3619920    -0.4731600     0.1685110
  H        3.3343810     0.7567850     1.4508530
  H        0.9047070     0.4438290     1.6934890
  H        0.9853290     2.1340670     1.1581470
  H        0.5384782     1.5033619    -1.1369461
  H        3.4174920    -0.3642830    -1.0666260
  H        1.9707490    -1.7331840     1.2432230
  H        3.7460890    -1.6095150     1.0882890
  H        3.1038510     2.7463240     0.1779830
  H       -0.3107400    -1.7892010    -0.5436980
  H        2.9100300    -3.5650720     0.1192120
  H       -2.7034680    -2.5490840    -0.1532500
  H       -5.0287110    -1.6377420    -0.0567190
  H       -5.2994710    -0.0137980     0.3861010
units angstrom
no_reorient  #important for SAPT in psi4, default
symmetry c1  #important for SAPT in psi4, default
}

set PROPERTIES_ORIGIN ["COM"]
properties('MP2/aug-cc-pvtz', properties = ['dipole'])
--------------------------------------------------------------------------

    Molecular point group: c1
  Charge       = 0
  Multiplicity = 1
  Basis Set: AUG-CC-PVTZ
    Blend: AUG-CC-PVTZ
  Basis Set: (AUG-CC-PVTZ AUX)
    Blend: AUG-CC-PVTZ-JKFIT

    Orbital Energies [Eh]
    ---------------------

    Doubly Occupied:

       1A    -20.578050     2A    -20.574290     3A    -20.572394
       4A    -20.502868     5A    -15.621797     6A    -15.588403
       7A    -15.540826     8A    -11.369841     9A    -11.345098
      10A    -11.330138    11A    -11.318560    12A    -11.301043
      13A    -11.297548    14A    -11.293397    15A    -11.237212
      16A    -11.237174    17A     -1.414950    18A     -1.382245
      19A     -1.373721    20A     -1.365340    21A     -1.292185
      22A     -1.261346    23A     -1.169077    24A     -1.079121
      25A     -1.069123    26A     -1.027710    27A     -0.926922
      28A     -0.897405    29A     -0.868918    30A     -0.830612
      31A     -0.806091    32A     -0.754392    33A     -0.738638
      34A     -0.720811    35A     -0.706890    36A     -0.692811
      37A     -0.689602    38A     -0.675022    39A     -0.655948
      40A     -0.637195    41A     -0.627488    42A     -0.618700
      43A     -0.604477    44A     -0.595001    45A     -0.588843
      46A     -0.572634    47A     -0.567295    48A     -0.545193
      49A     -0.532519    50A     -0.523279    51A     -0.510683
      52A     -0.486185    53A     -0.482224    54A     -0.468770
      55A     -0.461070    56A     -0.444423    57A     -0.437807
      58A     -0.416233    59A     -0.383774    60A     -0.334961

  @DF-RHF Final Energy:  -811.47907092768480

   => Energetics <=

    Nuclear Repulsion Energy =           1169.5417761947330746
    One-Electron Energy =               -3434.1491522954047468
    Two-Electron Energy =                1453.1283051729872113
    Total Energy =                       -811.4790709276846883
  Basis Set: (AUG-CC-PVTZ AUX)
    Blend: AUG-CC-PVTZ-RI
    Molecular point group: c1

    Geometry (in Angstrom), charge = 0, multiplicity = 1:

       Center              X                  Y                   Z               Mass
    ------------   -----------------  -----------------  -----------------  -----------------
         O            1.365724334040    -0.367651874719    -0.950918427186    15.994914619570
         O            3.201727534040     1.900323725281    -0.298010227186    15.994914619570
         O            2.799077534040    -2.749836274719    -0.398698227186    15.994914619570
         O           -1.362515465960     2.373115725281     0.156285772814    15.994914619570
         N           -0.798573465960     0.198528725281    -0.227753227186    14.003074004430
         N           -3.054501465960     0.804349725281     0.241514772814    14.003074004430
         N           -4.673739465960    -0.813324274719     0.414139772814    14.003074004430
         C            2.701265534040     0.874664725281     0.560976772814    12.000000000000
         C            1.236514534040     1.106336725281     0.889354772814    12.000000000000
         C            2.651489534040    -0.393180274719    -0.283967227186    12.000000000000
         C            0.573628534040     0.682114725281    -0.413413227186    12.000000000000
         C            2.801768534040    -1.660905274719     0.523972772814    12.000000000000
         C           -1.127666465960    -1.116708274719    -0.306773227186    12.000000000000
         C           -1.745017465960     1.203002725281     0.083547772814    12.000000000000
         C           -2.417636465960    -1.505450274719    -0.103039227186    12.000000000000
         C           -3.362321465960    -0.474049274719     0.170013772814    12.000000000000
         H            3.334051534040     0.755895725281     1.452355772814     1.007825032230
         H            0.904377534040     0.442939725281     1.694991772814     1.007825032230
         H            0.984999534040     2.133177725281     1.159649772814     1.007825032230
         H            0.538148734040     1.502472625281    -1.135443327186     1.007825032230
         H            3.417162534040    -0.365172274719    -1.065123227186     1.007825032230
         H            1.970419534040    -1.734073274719     1.244725772814     1.007825032230
         H            3.745759534040    -1.610404274719     1.089791772814     1.007825032230
         H            3.103521534040     2.745434725281     0.179485772814     1.007825032230
         H           -0.311069465960    -1.790090274719    -0.542195227186     1.007825032230
         H            2.909700534040    -3.565961274719     0.120714772814     1.007825032230
         H           -2.703797465960    -2.549973274719    -0.151747227186     1.007825032230
         H           -5.029040465960    -1.638631274719    -0.055216227186     1.007825032230
         H           -5.299800465960    -0.014687274719     0.387603772814     1.007825032230

  Basis Set: AUG-CC-PVTZ
    Blend: AUG-CC-PVTZ
  Basis Set: (AUG-CC-PVTZ AUX)
    Blend: AUG-CC-PVTZ-JKFIT
	 Reference Energy          =    -811.4790709276848020 [Eh]
	 Singles Energy            =      -0.0000000000000000 [Eh]
	 Same-Spin Energy          =      -0.8296242386845614 [Eh]
	 Opposite-Spin Energy      =      -2.5252703479897574 [Eh]
	 Correlation Energy        =      -3.3548945866743187 [Eh]
	 Total Energy              =    -814.8339655143590790 [Eh]

	 ================> DF-SCS-MP2 Energies <==================
	-----------------------------------------------------------
	 SCS Same-Spin Scale       =       0.3333333333333333 [-]
	 SCS Opposite-Spin Scale   =       1.2000000000000000 [-]
	 SCS Same-Spin Energy      =      -0.2765414128948538 [Eh]
	 SCS Opposite-Spin Energy  =      -3.0303244175877087 [Eh]
	 SCS Correlation Energy    =      -3.3068658304825624 [Eh]
	 SCS Total Energy          =    -814.7859367581673951 [Eh]
	-----------------------------------------------------------

  Dipole Moment: [D]
     X:     1.0808      Y:    -4.7022      Z:     2.5263     Total:     5.4462

*** Psi4 exiting successfully. Buy a developer a beer!
