                               Psi4 1.3.2 release

  ==> Input File <==

--------------------------------------------------------------------------
#psi4
#
memory 32 gb

molecule  {
0 1
  O        1.3620710    -0.3800110    -0.9318440
  O        3.2020570     1.9012130    -0.2995130
  O        2.7994070    -2.7489470    -0.4002010
  O       -1.3621860     2.3740050     0.1547830
  N       -0.7982440     0.1994180    -0.2292560
  N       -3.0541720     0.8052390     0.2400120
  N       -4.6734100    -0.8124350     0.4126370
  C        2.7015950     0.8755540     0.5594740
  C        1.2368440     1.1072260     0.8878520
  C        2.6518190    -0.3922910    -0.2854700
  C        0.5739580     0.6830040    -0.4149160
  C        2.8020980    -1.6600160     0.5224700
  C       -1.1273370    -1.1158190    -0.3082760
  C       -1.7446880     1.2038920     0.0820450
  C       -2.4173070    -1.5045610    -0.1045420
  C       -3.3619920    -0.4731600     0.1685110
  H        3.3343810     0.7567850     1.4508530
  H        0.9047070     0.4438290     1.6934890
  H        0.9853290     2.1340670     1.1581470
  H        0.5274540     1.5132540    -1.1249130
  H        3.4174920    -0.3642830    -1.0666260
  H        2.0461401    -1.7265487     1.1778613
  H        3.7460890    -1.6095150     1.0882890
  H        3.1038510     2.7463240     0.1779830
  H       -0.3107400    -1.7892010    -0.5436980
  H        2.9100300    -3.5650720     0.1192120
  H       -2.7034680    -2.5490840    -0.1532500
  H       -5.0287110    -1.6377420    -0.0567190
  H       -5.2994710    -0.0137980     0.3861010
units angstrom
no_reorient  #important for SAPT in psi4, default
symmetry c1  #important for SAPT in psi4, default
}

set PROPERTIES_ORIGIN ["COM"]
properties('MP2/aug-cc-pvtz', properties = ['dipole'])
--------------------------------------------------------------------------

    Molecular point group: c1
  Charge       = 0
  Multiplicity = 1
  Basis Set: AUG-CC-PVTZ
    Blend: AUG-CC-PVTZ
  Basis Set: (AUG-CC-PVTZ AUX)
    Blend: AUG-CC-PVTZ-JKFIT

    Orbital Energies [Eh]
    ---------------------

    Doubly Occupied:

       1A    -20.575786     2A    -20.574255     3A    -20.572912
       4A    -20.503202     5A    -15.621902     6A    -15.588490
       7A    -15.540959     8A    -11.370051     9A    -11.345195
      10A    -11.330884    11A    -11.318499    12A    -11.300768
      13A    -11.292043    14A    -11.284060    15A    -11.237222
      16A    -11.237175    17A     -1.416709    18A     -1.382474
      19A     -1.372860    20A     -1.365327    21A     -1.292382
      22A     -1.261577    23A     -1.169259    24A     -1.079338
      25A     -1.069999    26A     -1.029620    27A     -0.932116
      28A     -0.899070    29A     -0.870133    30A     -0.830916
      31A     -0.809893    32A     -0.754853    33A     -0.739716
      34A     -0.723041    35A     -0.707078    36A     -0.692256
      37A     -0.689904    38A     -0.678375    39A     -0.659317
      40A     -0.638529    41A     -0.627726    42A     -0.618927
      43A     -0.604455    44A     -0.595659    45A     -0.589084
      46A     -0.572846    47A     -0.568858    48A     -0.546196
      49A     -0.532632    50A     -0.524282    51A     -0.510611
      52A     -0.485869    53A     -0.482290    54A     -0.471986
      55A     -0.461560    56A     -0.444486    57A     -0.437675
      58A     -0.416466    59A     -0.383878    60A     -0.335104

  @DF-RHF Final Energy:  -811.47449281786271

   => Energetics <=

    Nuclear Repulsion Energy =           1170.3765361170819688
    One-Electron Energy =               -3435.7645889993882520
    Two-Electron Energy =                1453.9135600644438000
    Total Energy =                       -811.4744928178627106
  Basis Set: (AUG-CC-PVTZ AUX)
    Blend: AUG-CC-PVTZ-RI
    Molecular point group: c1

    Geometry (in Angstrom), charge = 0, multiplicity = 1:

       Center              X                  Y                   Z               Mass
    ------------   -----------------  -----------------  -----------------  -----------------
         O            1.361736399406    -0.380040484423    -0.931553891435    15.994914619570
         O            3.201722399406     1.901183515577    -0.299222891435    15.994914619570
         O            2.799072399406    -2.748976484423    -0.399910891435    15.994914619570
         O           -1.362520600594     2.373975515577     0.155073108565    15.994914619570
         N           -0.798578600594     0.199388515577    -0.228965891435    14.003074004430
         N           -3.054506600594     0.805209515577     0.240302108565    14.003074004430
         N           -4.673744600594    -0.812464484423     0.412927108565    14.003074004430
         C            2.701260399406     0.875524515577     0.559764108565    12.000000000000
         C            1.236509399406     1.107196515577     0.888142108565    12.000000000000
         C            2.651484399406    -0.392320484423    -0.285179891435    12.000000000000
         C            0.573623399406     0.682974515577    -0.414625891435    12.000000000000
         C            2.801763399406    -1.660045484423     0.522760108565    12.000000000000
         C           -1.127671600594    -1.115848484423    -0.307985891435    12.000000000000
         C           -1.745022600594     1.203862515577     0.082335108565    12.000000000000
         C           -2.417641600594    -1.504590484423    -0.104251891435    12.000000000000
         C           -3.362326600594    -0.473189484423     0.168801108565    12.000000000000
         H            3.334046399406     0.756755515577     1.451143108565     1.007825032230
         H            0.904372399406     0.443799515577     1.693779108565     1.007825032230
         H            0.984994399406     2.134037515577     1.158437108565     1.007825032230
         H            0.527119399406     1.513224515577    -1.124622891435     1.007825032230
         H            3.417157399406    -0.364312484423    -1.066335891435     1.007825032230
         H            2.045805499406    -1.726578184423     1.178151408565     1.007825032230
         H            3.745754399406    -1.609544484423     1.088579108565     1.007825032230
         H            3.103516399406     2.746294515577     0.178273108565     1.007825032230
         H           -0.311074600594    -1.789230484423    -0.543407891435     1.007825032230
         H            2.909695399406    -3.565101484423     0.119502108565     1.007825032230
         H           -2.703802600594    -2.549113484423    -0.152959891435     1.007825032230
         H           -5.029045600594    -1.637771484423    -0.056428891435     1.007825032230
         H           -5.299805600594    -0.013827484423     0.386391108565     1.007825032230

  Basis Set: AUG-CC-PVTZ
    Blend: AUG-CC-PVTZ
  Basis Set: (AUG-CC-PVTZ AUX)
    Blend: AUG-CC-PVTZ-JKFIT
	 Reference Energy          =    -811.4744928178627106 [Eh]
	 Singles Energy            =      -0.0000000000000000 [Eh]
	 Same-Spin Energy          =      -0.8295172992306856 [Eh]
	 Opposite-Spin Energy      =      -2.5244899100188931 [Eh]
	 Correlation Energy        =      -3.3540072092495787 [Eh]
	 Total Energy              =    -814.8285000271123408 [Eh]

	 ================> DF-SCS-MP2 Energies <==================
	-----------------------------------------------------------
	 SCS Same-Spin Scale       =       0.3333333333333333 [-]
	 SCS Opposite-Spin Scale   =       1.2000000000000000 [-]
	 SCS Same-Spin Energy      =      -0.2765057664102285 [Eh]
	 SCS Opposite-Spin Energy  =      -3.0293878920226716 [Eh]
	 SCS Correlation Energy    =      -3.3058936584329000 [Eh]
	 SCS Total Energy          =    -814.7803864762955754 [Eh]
	-----------------------------------------------------------

  Dipole Moment: [D]
     X:     1.0310      Y:    -4.6586      Z:     2.5413     Total:     5.4059

*** Psi4 exiting successfully. Buy a developer a beer!
