                               Psi4 1.3.2 release

  ==> Input File <==

--------------------------------------------------------------------------
#psi4
#
memory 32 gb

molecule  {
0 1
  O        1.3620710    -0.3800110    -0.9318440
  O        3.2020570     1.9012130    -0.2995130
  O        2.7994070    -2.7489470    -0.4002010
  O       -1.3621860     2.3740050     0.1547830
  N       -0.7982440     0.1994180    -0.2292560
  N       -3.0541720     0.8052390     0.2400120
  N       -4.6734100    -0.8124350     0.4126370
  C        2.7048496     0.8606295     0.5812577
  C        1.2368440     1.1072260     0.8878520
  C        2.6518190    -0.3922910    -0.2854700
  C        0.5739580     0.6830040    -0.4149160
  C        2.8041523    -1.6455215     0.5444007
  C       -1.1273370    -1.1158190    -0.3082760
  C       -1.7446880     1.2038920     0.0820450
  C       -2.4173070    -1.5045610    -0.1045420
  C       -3.3619920    -0.4731600     0.1685110
  H        3.3343810     0.7567850     1.4508530
  H        0.9047070     0.4438290     1.6934890
  H        0.9853290     2.1340670     1.1581470
  H        0.5274540     1.5132540    -1.1249130
  H        3.4174920    -0.3642830    -1.0666260
  H        1.9707490    -1.7331840     1.2432230
  H        3.7460890    -1.6095150     1.0882890
  H        3.1038510     2.7463240     0.1779830
  H       -0.3107400    -1.7892010    -0.5436980
  H        2.9100300    -3.5650720     0.1192120
  H       -2.7034680    -2.5490840    -0.1532500
  H       -5.0287110    -1.6377420    -0.0567190
  H       -5.2994710    -0.0137980     0.3861010
units angstrom
no_reorient  #important for SAPT in psi4, default
symmetry c1  #important for SAPT in psi4, default
}

set PROPERTIES_ORIGIN ["COM"]
properties('MP2/aug-cc-pvtz', properties = ['dipole'])
--------------------------------------------------------------------------

    Molecular point group: c1
  Charge       = 0
  Multiplicity = 1
  Basis Set: AUG-CC-PVTZ
    Blend: AUG-CC-PVTZ
  Basis Set: (AUG-CC-PVTZ AUX)
    Blend: AUG-CC-PVTZ-JKFIT

    Orbital Energies [Eh]
    ---------------------

    Doubly Occupied:

       1A    -20.575386     2A    -20.574090     3A    -20.571972
       4A    -20.503349     5A    -15.622116     6A    -15.588567
       7A    -15.541054     8A    -11.370204     9A    -11.345295
      10A    -11.331452    11A    -11.318560    12A    -11.300487
      13A    -11.296253    14A    -11.294402    15A    -11.237919
      16A    -11.237303    17A     -1.416172    18A     -1.381351
      19A     -1.364205    20A     -1.359066    21A     -1.292499
      22A     -1.261729    23A     -1.169366    24A     -1.080075
      25A     -1.070548    26A     -1.028595    27A     -0.928027
      28A     -0.897951    29A     -0.869210    30A     -0.831063
      31A     -0.809445    32A     -0.754613    33A     -0.739676
      34A     -0.718642    35A     -0.705778    36A     -0.689448
      37A     -0.685882    38A     -0.676150    39A     -0.656768
      40A     -0.636826    41A     -0.628011    42A     -0.617915
      43A     -0.603414    44A     -0.593450    45A     -0.587407
      46A     -0.572868    47A     -0.567946    48A     -0.543527
      49A     -0.530990    50A     -0.523863    51A     -0.509914
      52A     -0.488373    53A     -0.482401    54A     -0.471198
      55A     -0.463024    56A     -0.445834    57A     -0.438759
      58A     -0.416698    59A     -0.384126    60A     -0.335285

  @DF-RHF Final Energy:  -811.47711299414891

   => Energetics <=

    Nuclear Repulsion Energy =           1169.4757227472334762
    One-Electron Energy =               -3434.0326731079608180
    Two-Electron Energy =                1453.0798373665786585
    Total Energy =                       -811.4771129941489107
  Basis Set: (AUG-CC-PVTZ AUX)
    Blend: AUG-CC-PVTZ-RI
    Molecular point group: c1

    Geometry (in Angstrom), charge = 0, multiplicity = 1:

       Center              X                  Y                   Z               Mass
    ------------   -----------------  -----------------  -----------------  -----------------
         O            1.361790449364    -0.379988314843    -0.934153937153    15.994914619570
         O            3.201776449364     1.901235685157    -0.301822937153    15.994914619570
         O            2.799126449364    -2.748924314843    -0.402510937153    15.994914619570
         O           -1.362466550636     2.374027685157     0.152473062847    15.994914619570
         N           -0.798524550636     0.199440685157    -0.231565937153    14.003074004430
         N           -3.054452550636     0.805261685157     0.237702062847    14.003074004430
         N           -4.673690550636    -0.812412314843     0.410327062847    14.003074004430
         C            2.704569049364     0.860652185157     0.578947762847    12.000000000000
         C            1.236563449364     1.107248685157     0.885542062847    12.000000000000
         C            2.651538449364    -0.392268314843    -0.287779937153    12.000000000000
         C            0.573677449364     0.683026685157    -0.417225937153    12.000000000000
         C            2.803871749364    -1.645498814843     0.542090762847    12.000000000000
         C           -1.127617550636    -1.115796314843    -0.310585937153    12.000000000000
         C           -1.744968550636     1.203914685157     0.079735062847    12.000000000000
         C           -2.417587550636    -1.504538314843    -0.106851937153    12.000000000000
         C           -3.362272550636    -0.473137314843     0.166201062847    12.000000000000
         H            3.334100449364     0.756807685157     1.448543062847     1.007825032230
         H            0.904426449364     0.443851685157     1.691179062847     1.007825032230
         H            0.985048449364     2.134089685157     1.155837062847     1.007825032230
         H            0.527173449364     1.513276685157    -1.127222937153     1.007825032230
         H            3.417211449364    -0.364260314843    -1.068935937153     1.007825032230
         H            1.970468449364    -1.733161314843     1.240913062847     1.007825032230
         H            3.745808449364    -1.609492314843     1.085979062847     1.007825032230
         H            3.103570449364     2.746346685157     0.175673062847     1.007825032230
         H           -0.311020550636    -1.789178314843    -0.546007937153     1.007825032230
         H            2.909749449364    -3.565049314843     0.116902062847     1.007825032230
         H           -2.703748550636    -2.549061314843    -0.155559937153     1.007825032230
         H           -5.028991550636    -1.637719314843    -0.059028937153     1.007825032230
         H           -5.299751550636    -0.013775314843     0.383791062847     1.007825032230

  Basis Set: AUG-CC-PVTZ
    Blend: AUG-CC-PVTZ
  Basis Set: (AUG-CC-PVTZ AUX)
    Blend: AUG-CC-PVTZ-JKFIT
	 Reference Energy          =    -811.4771129941489107 [Eh]
	 Singles Energy            =      -0.0000000000000000 [Eh]
	 Same-Spin Energy          =      -0.8297417626929733 [Eh]
	 Opposite-Spin Energy      =      -2.5260184295261787 [Eh]
	 Correlation Energy        =      -3.3557601922191518 [Eh]
	 Total Energy              =    -814.8328731863680332 [Eh]

	 ================> DF-SCS-MP2 Energies <==================
	-----------------------------------------------------------
	 SCS Same-Spin Scale       =       0.3333333333333333 [-]
	 SCS Opposite-Spin Scale   =       1.2000000000000000 [-]
	 SCS Same-Spin Energy      =      -0.2765805875643244 [Eh]
	 SCS Opposite-Spin Energy  =      -3.0312221154314143 [Eh]
	 SCS Correlation Energy    =      -3.3078027029957386 [Eh]
	 SCS Total Energy          =    -814.7849156971446973 [Eh]
	-----------------------------------------------------------

  Dipole Moment: [D]
     X:     1.0382      Y:    -4.6664      Z:     2.5874     Total:     5.4358

*** Psi4 exiting successfully. Buy a developer a beer!
