                               Psi4 1.3.2 release

  ==> Input File <==

--------------------------------------------------------------------------
#psi4
#
memory 32 gb

molecule  {
0 1
  O        1.3620710    -0.3800110    -0.9318440
  O        3.2020570     1.9012130    -0.2995130
  O        2.7994070    -2.7489470    -0.4002010
  O       -1.3621860     2.3740050     0.1547830
  N       -0.7982440     0.1994180    -0.2292560
  N       -3.0541720     0.8052390     0.2400120
  N       -4.6734100    -0.8124350     0.4126370
  C        2.7015950     0.8755540     0.5594740
  C        1.2368440     1.1072260     0.8878520
  C        2.6518190    -0.3922910    -0.2854700
  C        0.5739580     0.6830040    -0.4149160
  C        2.8020980    -1.6600160     0.5224700
  C       -1.0788727    -0.9221291    -0.2966390
  C       -1.7446880     1.2038920     0.0820450
  C       -2.4173070    -1.5045610    -0.1045420
  C       -3.3619920    -0.4731600     0.1685110
  H        3.3343810     0.7567850     1.4508530
  H        0.9047070     0.4438290     1.6934890
  H        0.9853290     2.1340670     1.1581470
  H        0.5274540     1.5132540    -1.1249130
  H        3.4174920    -0.3642830    -1.0666260
  H        1.9707490    -1.7331840     1.2432230
  H        3.7460890    -1.6095150     1.0882890
  H        3.1038510     2.7463240     0.1779830
  H       -0.3107400    -1.7892010    -0.5436980
  H        2.9100300    -3.5650720     0.1192120
  H       -2.7034680    -2.5490840    -0.1532500
  H       -5.0287110    -1.6377420    -0.0567190
  H       -5.2994710    -0.0137980     0.3861010
units angstrom
no_reorient  #important for SAPT in psi4, default
symmetry c1  #important for SAPT in psi4, default
}

set PROPERTIES_ORIGIN ["COM"]
properties('MP2/aug-cc-pvtz', properties = ['dipole'])
--------------------------------------------------------------------------

    Molecular point group: c1
  Charge       = 0
  Multiplicity = 1
  Basis Set: AUG-CC-PVTZ
    Blend: AUG-CC-PVTZ
  Basis Set: (AUG-CC-PVTZ AUX)
    Blend: AUG-CC-PVTZ-JKFIT

    Orbital Energies [Eh]
    ---------------------

    Doubly Occupied:

       1A    -20.582369     2A    -20.581481     3A    -20.580871
       4A    -20.512196     5A    -15.643394     6A    -15.573799
       7A    -15.532607     8A    -11.377261     9A    -11.345919
      10A    -11.328123    11A    -11.318049    12A    -11.309137
      13A    -11.301387    14A    -11.300159    15A    -11.248984
      16A    -11.222624    17A     -1.442927    18A     -1.403922
      19A     -1.378744    20A     -1.372107    21A     -1.335903
      22A     -1.268330    23A     -1.164854    24A     -1.086939
      25A     -1.066989    26A     -1.016590    27A     -0.942592
      28A     -0.920852    29A     -0.875239    30A     -0.834298
      31A     -0.809775    32A     -0.760193    33A     -0.753247
      34A     -0.730263    35A     -0.706156    36A     -0.697199
      37A     -0.688896    38A     -0.679321    39A     -0.655553
      40A     -0.650126    41A     -0.638946    42A     -0.618908
      43A     -0.609710    44A     -0.598318    45A     -0.591730
      46A     -0.575904    47A     -0.553345    48A     -0.541553
      49A     -0.535183    50A     -0.527863    51A     -0.514181
      52A     -0.503689    53A     -0.492971    54A     -0.474575
      55A     -0.468834    56A     -0.449681    57A     -0.442517
      58A     -0.411991    59A     -0.382067    60A     -0.310322

  @DF-RHF Final Energy:  -811.41716429445216

   => Energetics <=

    Nuclear Repulsion Energy =           1174.2817692587550482
    One-Electron Energy =               -3442.9145448288959415
    Two-Electron Energy =                1457.2156112756888433
    Total Energy =                       -811.4171642944520499
  Basis Set: (AUG-CC-PVTZ AUX)
    Blend: AUG-CC-PVTZ-RI
    Molecular point group: c1

    Geometry (in Angstrom), charge = 0, multiplicity = 1:

       Center              X                  Y                   Z               Mass
    ------------   -----------------  -----------------  -----------------  -----------------
         O            1.359510016856    -0.390246065447    -0.932458892136    15.994914619570
         O            3.199496016856     1.890977934553    -0.300127892136    15.994914619570
         O            2.796846016856    -2.759182065447    -0.400815892136    15.994914619570
         O           -1.364746983144     2.363769934553     0.154168107864    15.994914619570
         N           -0.800804983144     0.189182934553    -0.229870892136    14.003074004430
         N           -3.056732983144     0.795003934553     0.239397107864    14.003074004430
         N           -4.675970983144    -0.822670065447     0.412022107864    14.003074004430
         C            2.699034016856     0.865318934553     0.558859107864    12.000000000000
         C            1.234283016856     1.096990934553     0.887237107864    12.000000000000
         C            2.649258016856    -0.402526065447    -0.286084892136    12.000000000000
         C            0.571397016856     0.672768934553    -0.415530892136    12.000000000000
         C            2.799537016856    -1.670251065447     0.521855107864    12.000000000000
         C           -1.081433683144    -0.932364165447    -0.297253892136    12.000000000000
         C           -1.747248983144     1.193656934553     0.081430107864    12.000000000000
         C           -2.419867983144    -1.514796065447    -0.105156892136    12.000000000000
         C           -3.364552983144    -0.483395065447     0.167896107864    12.000000000000
         H            3.331820016856     0.746549934553     1.450238107864     1.007825032230
         H            0.902146016856     0.433593934553     1.692874107864     1.007825032230
         H            0.982768016856     2.123831934553     1.157532107864     1.007825032230
         H            0.524893016856     1.503018934553    -1.125527892136     1.007825032230
         H            3.414931016856    -0.374518065447    -1.067240892136     1.007825032230
         H            1.968188016856    -1.743419065447     1.242608107864     1.007825032230
         H            3.743528016856    -1.619750065447     1.087674107864     1.007825032230
         H            3.101290016856     2.736088934553     0.177368107864     1.007825032230
         H           -0.313300983144    -1.799436065447    -0.544312892136     1.007825032230
         H            2.907469016856    -3.575307065447     0.118597107864     1.007825032230
         H           -2.706028983144    -2.559319065447    -0.153864892136     1.007825032230
         H           -5.031271983144    -1.647977065447    -0.057333892136     1.007825032230
         H           -5.302031983144    -0.024033065447     0.385486107864     1.007825032230

  Basis Set: AUG-CC-PVTZ
    Blend: AUG-CC-PVTZ
  Basis Set: (AUG-CC-PVTZ AUX)
    Blend: AUG-CC-PVTZ-JKFIT
	 Reference Energy          =    -811.4171642944521636 [Eh]
	 Singles Energy            =      -0.0000000000000000 [Eh]
	 Same-Spin Energy          =      -0.8310741889246699 [Eh]
	 Opposite-Spin Energy      =      -2.5251468470423060 [Eh]
	 Correlation Energy        =      -3.3562210359669757 [Eh]
	 Total Energy              =    -814.7733853304191598 [Eh]

	 ================> DF-SCS-MP2 Energies <==================
	-----------------------------------------------------------
	 SCS Same-Spin Scale       =       0.3333333333333333 [-]
	 SCS Opposite-Spin Scale   =       1.2000000000000000 [-]
	 SCS Same-Spin Energy      =      -0.2770247296415566 [Eh]
	 SCS Opposite-Spin Energy  =      -3.0301762164507671 [Eh]
	 SCS Correlation Energy    =      -3.3072009460923235 [Eh]
	 SCS Total Energy          =    -814.7243652405444436 [Eh]
	-----------------------------------------------------------

  Dipole Moment: [D]
     X:     2.2354      Y:    -4.1245      Z:     2.4123     Total:     5.2752

*** Psi4 exiting successfully. Buy a developer a beer!
