                               Psi4 1.3.2 release

  ==> Input File <==

--------------------------------------------------------------------------
#psi4
#
memory 32 gb

molecule  {
0 1
  O        1.3620710    -0.3800110    -0.9318440
  O        3.2020570     1.9012130    -0.2995130
  O        2.7994070    -2.7489470    -0.4002010
  O       -1.3621860     2.3740050     0.1547830
  N       -0.7982440     0.1994180    -0.2292560
  N       -3.0541720     0.8052390     0.2400120
  N       -4.6734100    -0.8124350     0.4126370
  C        2.7049152     0.8797240     0.5716097
  C        1.2368440     1.1072260     0.8878520
  C        2.6518190    -0.3922910    -0.2854700
  C        0.5620649     0.6858106    -0.4097107
  C        2.8020980    -1.6600160     0.5224700
  C       -1.1273370    -1.1158190    -0.3082760
  C       -1.7446880     1.2038920     0.0820450
  C       -2.4173070    -1.5045610    -0.1045420
  C       -3.3619920    -0.4731600     0.1685110
  H        3.3343810     0.7567850     1.4508530
  H        0.9047070     0.4438290     1.6934890
  H        0.9853290     2.1340670     1.1581470
  H        0.5274540     1.5132540    -1.1249130
  H        3.4174920    -0.3642830    -1.0666260
  H        1.9707490    -1.7331840     1.2432230
  H        3.7460890    -1.6095150     1.0882890
  H        3.1038510     2.7463240     0.1779830
  H       -0.3107400    -1.7892010    -0.5436980
  H        2.9100300    -3.5650720     0.1192120
  H       -2.7034680    -2.5490840    -0.1532500
  H       -5.0287110    -1.6377420    -0.0567190
  H       -5.2994710    -0.0137980     0.3861010
units angstrom
no_reorient  #important for SAPT in psi4, default
symmetry c1  #important for SAPT in psi4, default
}

set PROPERTIES_ORIGIN ["COM"]
properties('MP2/aug-cc-pvtz', properties = ['dipole'])
--------------------------------------------------------------------------

    Molecular point group: c1
  Charge       = 0
  Multiplicity = 1
  Basis Set: AUG-CC-PVTZ
    Blend: AUG-CC-PVTZ
  Basis Set: (AUG-CC-PVTZ AUX)
    Blend: AUG-CC-PVTZ-JKFIT

    Orbital Energies [Eh]
    ---------------------

    Doubly Occupied:

       1A    -20.577074     2A    -20.573941     3A    -20.571288
       4A    -20.503821     5A    -15.622751     6A    -15.588867
       7A    -15.541378     8A    -11.370616     9A    -11.345665
      10A    -11.330566    11A    -11.319047    12A    -11.300244
      13A    -11.295967    14A    -11.292423    15A    -11.237743
      16A    -11.236786    17A     -1.413488    18A     -1.382883
      19A     -1.372607    20A     -1.363995    21A     -1.293057
      22A     -1.262914    23A     -1.169966    24A     -1.079010
      25A     -1.067965    26A     -1.027240    27A     -0.927248
      28A     -0.897950    29A     -0.869281    30A     -0.830262
      31A     -0.806489    32A     -0.755010    33A     -0.739384
      34A     -0.719887    35A     -0.707027    36A     -0.691952
      37A     -0.687993    38A     -0.675553    39A     -0.656405
      40A     -0.637019    41A     -0.628345    42A     -0.618814
      43A     -0.604732    44A     -0.594477    45A     -0.588581
      46A     -0.574300    47A     -0.567324    48A     -0.544068
      49A     -0.532617    50A     -0.522501    51A     -0.509918
      52A     -0.484279    53A     -0.481632    54A     -0.468022
      55A     -0.461731    56A     -0.445030    57A     -0.437401
      58A     -0.417150    59A     -0.384258    60A     -0.335702

  @DF-RHF Final Energy:  -811.47870409824804

   => Energetics <=

    Nuclear Repulsion Energy =           1169.7001142993337908
    One-Electron Energy =               -3434.4703418014555609
    Two-Electron Energy =                1453.2915234038739527
    Total Energy =                       -811.4787040982480448
  Basis Set: (AUG-CC-PVTZ AUX)
    Blend: AUG-CC-PVTZ-RI
    Molecular point group: c1

    Geometry (in Angstrom), charge = 0, multiplicity = 1:

       Center              X                  Y                   Z               Mass
    ------------   -----------------  -----------------  -----------------  -----------------
         O            1.362523996220    -0.380379696951    -0.932760304868    15.994914619570
         O            3.202509996220     1.900844303049    -0.300429304868    15.994914619570
         O            2.799859996220    -2.749315696951    -0.401117304868    15.994914619570
         O           -1.361733003780     2.373636303049     0.153866695132    15.994914619570
         N           -0.797791003780     0.199049303049    -0.230172304868    14.003074004430
         N           -3.053719003780     0.804870303049     0.239095695132    14.003074004430
         N           -4.672957003780    -0.812803696951     0.411720695132    14.003074004430
         C            2.705368196220     0.879355303049     0.570693395132    12.000000000000
         C            1.237296996220     1.106857303049     0.886935695132    12.000000000000
         C            2.652271996220    -0.392659696951    -0.286386304868    12.000000000000
         C            0.562517896220     0.685441903049    -0.410627004868    12.000000000000
         C            2.802550996220    -1.660384696951     0.521553695132    12.000000000000
         C           -1.126884003780    -1.116187696951    -0.309192304868    12.000000000000
         C           -1.744235003780     1.203523303049     0.081128695132    12.000000000000
         C           -2.416854003780    -1.504929696951    -0.105458304868    12.000000000000
         C           -3.361539003780    -0.473528696951     0.167594695132    12.000000000000
         H            3.334833996220     0.756416303049     1.449936695132     1.007825032230
         H            0.905159996220     0.443460303049     1.692572695132     1.007825032230
         H            0.985781996220     2.133698303049     1.157230695132     1.007825032230
         H            0.527906996220     1.512885303049    -1.125829304868     1.007825032230
         H            3.417944996220    -0.364651696951    -1.067542304868     1.007825032230
         H            1.971201996220    -1.733552696951     1.242306695132     1.007825032230
         H            3.746541996220    -1.609883696951     1.087372695132     1.007825032230
         H            3.104303996220     2.745955303049     0.177066695132     1.007825032230
         H           -0.310287003780    -1.789569696951    -0.544614304868     1.007825032230
         H            2.910482996220    -3.565440696951     0.118295695132     1.007825032230
         H           -2.703015003780    -2.549452696951    -0.154166304868     1.007825032230
         H           -5.028258003780    -1.638110696951    -0.057635304868     1.007825032230
         H           -5.299018003780    -0.014166696951     0.385184695132     1.007825032230

  Basis Set: AUG-CC-PVTZ
    Blend: AUG-CC-PVTZ
  Basis Set: (AUG-CC-PVTZ AUX)
    Blend: AUG-CC-PVTZ-JKFIT
	 Reference Energy          =    -811.4787040982480448 [Eh]
	 Singles Energy            =      -0.0000000000000000 [Eh]
	 Same-Spin Energy          =      -0.8296647917161102 [Eh]
	 Opposite-Spin Energy      =      -2.5253849015680050 [Eh]
	 Correlation Energy        =      -3.3550496932841152 [Eh]
	 Total Energy              =    -814.8337537915321036 [Eh]

	 ================> DF-SCS-MP2 Energies <==================
	-----------------------------------------------------------
	 SCS Same-Spin Scale       =       0.3333333333333333 [-]
	 SCS Opposite-Spin Scale   =       1.2000000000000000 [-]
	 SCS Same-Spin Energy      =      -0.2765549305720367 [Eh]
	 SCS Opposite-Spin Energy  =      -3.0304618818816058 [Eh]
	 SCS Correlation Energy    =      -3.3070168124536425 [Eh]
	 SCS Total Energy          =    -814.7857209107016843 [Eh]
	-----------------------------------------------------------

  Dipole Moment: [D]
     X:     0.9868      Y:    -4.6664      Z:     2.5139     Total:     5.3915

*** Psi4 exiting successfully. Buy a developer a beer!
