                               Psi4 1.3.2 release

  ==> Input File <==

--------------------------------------------------------------------------
#psi4
#
memory 32 gb

molecule  {
0 1
  O        1.3620710    -0.3800110    -0.9318440
  O        3.2020570     1.9012130    -0.2995130
  O        2.7994070    -2.7489470    -0.4002010
  O       -1.3621860     2.3740050     0.1547830
  N       -0.7982440     0.1994180    -0.2292560
  N       -3.0541720     0.8052390     0.2400120
  N       -4.6734100    -0.8124350     0.4126370
  C        2.7015950     0.8755540     0.5594740
  C        1.2368440     1.1072260     0.8878520
  C        2.6518190    -0.3922910    -0.2854700
  C        0.5739580     0.6830040    -0.4149160
  C        2.8020980    -1.6600160     0.5224700
  C       -1.1273370    -1.1158190    -0.3082760
  C       -1.7446880     1.2038920     0.0820450
  C       -2.4173070    -1.5045610    -0.1045420
  C       -3.3619920    -0.4731600     0.1685110
  H        3.3343810     0.7567850     1.4508530
  H        0.8743804     0.3832558     1.7670498
  H        0.9853290     2.1340670     1.1581470
  H        0.5274540     1.5132540    -1.1249130
  H        3.4174920    -0.3642830    -1.0666260
  H        1.9707490    -1.7331840     1.2432230
  H        3.7460890    -1.6095150     1.0882890
  H        3.1038510     2.7463240     0.1779830
  H       -0.3107400    -1.7892010    -0.5436980
  H        2.9100300    -3.5650720     0.1192120
  H       -2.7034680    -2.5490840    -0.1532500
  H       -5.0287110    -1.6377420    -0.0567190
  H       -5.2994710    -0.0137980     0.3861010
units angstrom
no_reorient  #important for SAPT in psi4, default
symmetry c1  #important for SAPT in psi4, default
}

set PROPERTIES_ORIGIN ["COM"]
properties('MP2/aug-cc-pvtz', properties = ['dipole'])
--------------------------------------------------------------------------

    Molecular point group: c1
  Charge       = 0
  Multiplicity = 1
  Basis Set: AUG-CC-PVTZ
    Blend: AUG-CC-PVTZ
  Basis Set: (AUG-CC-PVTZ AUX)
    Blend: AUG-CC-PVTZ-JKFIT

    Orbital Energies [Eh]
    ---------------------

    Doubly Occupied:

       1A    -20.577501     2A    -20.575547     3A    -20.573207
       4A    -20.503088     5A    -15.621690     6A    -15.588304
       7A    -15.540740     8A    -11.369904     9A    -11.344983
      10A    -11.331930    11A    -11.318231    12A    -11.301822
      13A    -11.296483    14A    -11.293297    15A    -11.248551
      16A    -11.236950    17A     -1.416980    18A     -1.382579
      19A     -1.373877    20A     -1.366137    21A     -1.292196
      22A     -1.261380    23A     -1.169050    24A     -1.077134
      25A     -1.068724    26A     -1.026619    27A     -0.926937
      28A     -0.897125    29A     -0.867617    30A     -0.827649
      31A     -0.806729    32A     -0.753942    33A     -0.738218
      34A     -0.721084    35A     -0.706793    36A     -0.693065
      37A     -0.688382    38A     -0.674376    39A     -0.656073
      40A     -0.636742    41A     -0.625207    42A     -0.616789
      43A     -0.603310    44A     -0.594891    45A     -0.588748
      46A     -0.572809    47A     -0.568999    48A     -0.544100
      49A     -0.530036    50A     -0.523383    51A     -0.505790
      52A     -0.485976    53A     -0.482189    54A     -0.467311
      55A     -0.461575    56A     -0.444649    57A     -0.437962
      58A     -0.416337    59A     -0.383793    60A     -0.334952

  @DF-RHF Final Energy:  -811.47282637723845

   => Energetics <=

    Nuclear Repulsion Energy =           1169.4469305096959033
    One-Electron Energy =               -3433.9586401180708890
    Two-Electron Energy =                1453.0388832311366514
    Total Energy =                       -811.4728263772383343
  Basis Set: (AUG-CC-PVTZ AUX)
    Blend: AUG-CC-PVTZ-RI
    Molecular point group: c1

    Geometry (in Angstrom), charge = 0, multiplicity = 1:

       Center              X                  Y                   Z               Mass
    ------------   -----------------  -----------------  -----------------  -----------------
         O            1.362205573126    -0.379742214010    -0.932170427608    15.994914619570
         O            3.202191573126     1.901481785990    -0.299839427608    15.994914619570
         O            2.799541573126    -2.748678214010    -0.400527427608    15.994914619570
         O           -1.362051426874     2.374273785990     0.154456572392    15.994914619570
         N           -0.798109426874     0.199686785990    -0.229582427608    14.003074004430
         N           -3.054037426874     0.805507785990     0.239685572392    14.003074004430
         N           -4.673275426874    -0.812166214010     0.412310572392    14.003074004430
         C            2.701729573126     0.875822785990     0.559147572392    12.000000000000
         C            1.236978573126     1.107494785990     0.887525572392    12.000000000000
         C            2.651953573126    -0.392022214010    -0.285796427608    12.000000000000
         C            0.574092573126     0.683272785990    -0.415242427608    12.000000000000
         C            2.802232573126    -1.659747214010     0.522143572392    12.000000000000
         C           -1.127202426874    -1.115550214010    -0.308602427608    12.000000000000
         C           -1.744553426874     1.204160785990     0.081718572392    12.000000000000
         C           -2.417172426874    -1.504292214010    -0.104868427608    12.000000000000
         C           -3.361857426874    -0.472891214010     0.168184572392    12.000000000000
         H            3.334515573126     0.757053785990     1.450526572392     1.007825032230
         H            0.874514973126     0.383524585990     1.766723372392     1.007825032230
         H            0.985463573126     2.134335785990     1.157820572392     1.007825032230
         H            0.527588573126     1.513522785990    -1.125239427608     1.007825032230
         H            3.417626573126    -0.364014214010    -1.066952427608     1.007825032230
         H            1.970883573126    -1.732915214010     1.242896572392     1.007825032230
         H            3.746223573126    -1.609246214010     1.087962572392     1.007825032230
         H            3.103985573126     2.746592785990     0.177656572392     1.007825032230
         H           -0.310605426874    -1.788932214010    -0.544024427608     1.007825032230
         H            2.910164573126    -3.564803214010     0.118885572392     1.007825032230
         H           -2.703333426874    -2.548815214010    -0.153576427608     1.007825032230
         H           -5.028576426874    -1.637473214010    -0.057045427608     1.007825032230
         H           -5.299336426874    -0.013529214010     0.385774572392     1.007825032230

  Basis Set: AUG-CC-PVTZ
    Blend: AUG-CC-PVTZ
  Basis Set: (AUG-CC-PVTZ AUX)
    Blend: AUG-CC-PVTZ-JKFIT
	 Reference Energy          =    -811.4728263772384480 [Eh]
	 Singles Energy            =      -0.0000000000000000 [Eh]
	 Same-Spin Energy          =      -0.8297842411504495 [Eh]
	 Opposite-Spin Energy      =      -2.5259878570986825 [Eh]
	 Correlation Energy        =      -3.3557720982491319 [Eh]
	 Total Energy              =    -814.8285984754875244 [Eh]

	 ================> DF-SCS-MP2 Energies <==================
	-----------------------------------------------------------
	 SCS Same-Spin Scale       =       0.3333333333333333 [-]
	 SCS Opposite-Spin Scale   =       1.2000000000000000 [-]
	 SCS Same-Spin Energy      =      -0.2765947470501498 [Eh]
	 SCS Opposite-Spin Energy  =      -3.0311854285184188 [Eh]
	 SCS Correlation Energy    =      -3.3077801755685687 [Eh]
	 SCS Total Energy          =    -814.7806065528070576 [Eh]
	-----------------------------------------------------------

  Dipole Moment: [D]
     X:     1.0896      Y:    -4.6507      Z:     2.4513     Total:     5.3689

*** Psi4 exiting successfully. Buy a developer a beer!
