                               Psi4 1.3.2 release

  ==> Input File <==

--------------------------------------------------------------------------
#psi4
#
memory 32 gb

molecule  {
0 1
  O        1.3620710    -0.3800110    -0.9318440
  O        3.2020570     1.9012130    -0.2995130
  O        2.7994070    -2.7489470    -0.4002010
  O       -1.3621860     2.3740050     0.1547830
  N       -0.7982440     0.1994180    -0.2292560
  N       -3.0541720     0.8052390     0.2400120
  N       -4.6786767    -0.7891715     0.4154935
  C        2.7015950     0.8755540     0.5594740
  C        1.2368440     1.1072260     0.8878520
  C        2.6518190    -0.3922910    -0.2854700
  C        0.5739580     0.6830040    -0.4149160
  C        2.8020980    -1.6600160     0.5224700
  C       -1.1273370    -1.1158190    -0.3082760
  C       -1.7446880     1.2038920     0.0820450
  C       -2.3995144    -1.4873421    -0.1068930
  C       -3.3619920    -0.4731600     0.1685110
  H        3.3343810     0.7567850     1.4508530
  H        0.9047070     0.4438290     1.6934890
  H        0.9853290     2.1340670     1.1581470
  H        0.5274540     1.5132540    -1.1249130
  H        3.4174920    -0.3642830    -1.0666260
  H        1.9707490    -1.7331840     1.2432230
  H        3.7460890    -1.6095150     1.0882890
  H        3.1038510     2.7463240     0.1779830
  H       -0.3107400    -1.7892010    -0.5436980
  H        2.9100300    -3.5650720     0.1192120
  H       -2.7034680    -2.5490840    -0.1532500
  H       -5.0287110    -1.6377420    -0.0567190
  H       -5.2994710    -0.0137980     0.3861010
units angstrom
no_reorient  #important for SAPT in psi4, default
symmetry c1  #important for SAPT in psi4, default
}

set PROPERTIES_ORIGIN ["COM"]
properties('MP2/aug-cc-pvtz', properties = ['dipole'])
--------------------------------------------------------------------------

    Molecular point group: c1
  Charge       = 0
  Multiplicity = 1
  Basis Set: AUG-CC-PVTZ
    Blend: AUG-CC-PVTZ
  Basis Set: (AUG-CC-PVTZ AUX)
    Blend: AUG-CC-PVTZ-JKFIT

    Orbital Energies [Eh]
    ---------------------

    Doubly Occupied:

       1A    -20.577542     2A    -20.573967     3A    -20.572372
       4A    -20.502289     5A    -15.619619     6A    -15.589602
       7A    -15.540302     8A    -11.368984     9A    -11.345679
      10A    -11.329869    11A    -11.314700    12A    -11.300428
      13A    -11.296602    14A    -11.292698    15A    -11.237717
      16A    -11.236190    17A     -1.416111    18A     -1.381932
      19A     -1.373297    20A     -1.365317    21A     -1.292998
      22A     -1.261676    23A     -1.168793    24A     -1.080463
      25A     -1.070322    26A     -1.028114    27A     -0.926545
      28A     -0.896975    29A     -0.868671    30A     -0.830346
      31A     -0.806480    32A     -0.756589    33A     -0.737921
      34A     -0.720387    35A     -0.707711    36A     -0.692974
      37A     -0.688518    38A     -0.674141    39A     -0.656016
      40A     -0.634282    41A     -0.627918    42A     -0.618554
      43A     -0.605318    44A     -0.597861    45A     -0.587652
      46A     -0.571731    47A     -0.568442    48A     -0.544560
      49A     -0.532457    50A     -0.522911    51A     -0.510052
      52A     -0.485595    53A     -0.482661    54A     -0.468291
      55A     -0.460956    56A     -0.444007    57A     -0.437469
      58A     -0.415603    59A     -0.383374    60A     -0.336807

  @DF-RHF Final Energy:  -811.47814338484966

   => Energetics <=

    Nuclear Repulsion Energy =           1170.4950788281273617
    One-Electron Energy =               -3436.0717274633739180
    Two-Electron Energy =                1454.0985052503972383
    Total Energy =                       -811.4781433848495453
  Basis Set: (AUG-CC-PVTZ AUX)
    Blend: AUG-CC-PVTZ-RI
    Molecular point group: c1

    Geometry (in Angstrom), charge = 0, multiplicity = 1:

       Center              X                  Y                   Z               Mass
    ------------   -----------------  -----------------  -----------------  -----------------
         O            1.361455541587    -0.382355419858    -0.931895873606    15.994914619570
         O            3.201441541587     1.898868580142    -0.299564873606    15.994914619570
         O            2.798791541587    -2.751291419858    -0.400252873606    15.994914619570
         O           -1.362801458413     2.371660580142     0.154731126394    15.994914619570
         N           -0.798859458413     0.197073580142    -0.229307873606    14.003074004430
         N           -3.054787458413     0.802894580142     0.239960126394    14.003074004430
         N           -4.679292158413    -0.791515919858     0.415441626394    14.003074004430
         C            2.700979541587     0.873209580142     0.559422126394    12.000000000000
         C            1.236228541587     1.104881580142     0.887800126394    12.000000000000
         C            2.651203541587    -0.394635419858    -0.285521873606    12.000000000000
         C            0.573342541587     0.680659580142    -0.414967873606    12.000000000000
         C            2.801482541587    -1.662360419858     0.522418126394    12.000000000000
         C           -1.127952458413    -1.118163419858    -0.308327873606    12.000000000000
         C           -1.745303458413     1.201547580142     0.081993126394    12.000000000000
         C           -2.400129858413    -1.489686519858    -0.106944873606    12.000000000000
         C           -3.362607458413    -0.475504419858     0.168459126394    12.000000000000
         H            3.333765541587     0.754440580142     1.450801126394     1.007825032230
         H            0.904091541587     0.441484580142     1.693437126394     1.007825032230
         H            0.984713541587     2.131722580142     1.158095126394     1.007825032230
         H            0.526838541587     1.510909580142    -1.124964873606     1.007825032230
         H            3.416876541587    -0.366627419858    -1.066677873606     1.007825032230
         H            1.970133541587    -1.735528419858     1.243171126394     1.007825032230
         H            3.745473541587    -1.611859419858     1.088237126394     1.007825032230
         H            3.103235541587     2.743979580142     0.177931126394     1.007825032230
         H           -0.311355458413    -1.791545419858    -0.543749873606     1.007825032230
         H            2.909414541587    -3.567416419858     0.119160126394     1.007825032230
         H           -2.704083458413    -2.551428419858    -0.153301873606     1.007825032230
         H           -5.029326458413    -1.640086419858    -0.056770873606     1.007825032230
         H           -5.300086458413    -0.016142419858     0.386049126394     1.007825032230

  Basis Set: AUG-CC-PVTZ
    Blend: AUG-CC-PVTZ
  Basis Set: (AUG-CC-PVTZ AUX)
    Blend: AUG-CC-PVTZ-JKFIT
	 Reference Energy          =    -811.4781433848496590 [Eh]
	 Singles Energy            =      -0.0000000000000000 [Eh]
	 Same-Spin Energy          =      -0.8295377230258901 [Eh]
	 Opposite-Spin Energy      =      -2.5249351476270712 [Eh]
	 Correlation Energy        =      -3.3544728706529612 [Eh]
	 Total Energy              =    -814.8326162555026713 [Eh]

	 ================> DF-SCS-MP2 Energies <==================
	-----------------------------------------------------------
	 SCS Same-Spin Scale       =       0.3333333333333333 [-]
	 SCS Opposite-Spin Scale   =       1.2000000000000000 [-]
	 SCS Same-Spin Energy      =      -0.2765125743419634 [Eh]
	 SCS Opposite-Spin Energy  =      -3.0299221771524851 [Eh]
	 SCS Correlation Energy    =      -3.3064347514944483 [Eh]
	 SCS Total Energy          =    -814.7845781363440665 [Eh]
	-----------------------------------------------------------

  Dipole Moment: [D]
     X:     1.0215      Y:    -4.7198      Z:     2.4959     Total:     5.4359

*** Psi4 exiting successfully. Buy a developer a beer!
