                               Psi4 1.3.2 release

  ==> Input File <==

--------------------------------------------------------------------------
#psi4
#
memory 32 gb

molecule  {
0 1
  O        1.3732945    -0.3393106    -0.9930782
  O        3.2020570     1.9012130    -0.2995130
  O        2.7994070    -2.7489470    -0.4002010
  O       -1.3621860     2.3740050     0.1547830
  N       -0.7982440     0.1994180    -0.2292560
  N       -3.0541720     0.8052390     0.2400120
  N       -4.6734100    -0.8124350     0.4126370
  C        2.7015950     0.8755540     0.5594740
  C        1.2368440     1.1072260     0.8878520
  C        2.6518190    -0.3922910    -0.2854700
  C        0.5739580     0.6830040    -0.4149160
  C        2.8020980    -1.6600160     0.5224700
  C       -1.1273370    -1.1158190    -0.3082760
  C       -1.7446880     1.2038920     0.0820450
  C       -2.4173070    -1.5045610    -0.1045420
  C       -3.3619920    -0.4731600     0.1685110
  H        3.3343810     0.7567850     1.4508530
  H        0.9047070     0.4438290     1.6934890
  H        0.9853290     2.1340670     1.1581470
  H        0.5605558     1.4828312    -1.1603490
  H        3.4174920    -0.3642830    -1.0666260
  H        1.9707490    -1.7331840     1.2432230
  H        3.7460890    -1.6095150     1.0882890
  H        3.1038510     2.7463240     0.1779830
  H       -0.3107400    -1.7892010    -0.5436980
  H        2.9100300    -3.5650720     0.1192120
  H       -2.7034680    -2.5490840    -0.1532500
  H       -5.0287110    -1.6377420    -0.0567190
  H       -5.2994710    -0.0137980     0.3861010
units angstrom
no_reorient  #important for SAPT in psi4, default
symmetry c1  #important for SAPT in psi4, default
}

set PROPERTIES_ORIGIN ["COM"]
properties('MP2/aug-cc-pvtz', properties = ['dipole'])
--------------------------------------------------------------------------

    Molecular point group: c1
  Charge       = 0
  Multiplicity = 1
  Basis Set: AUG-CC-PVTZ
    Blend: AUG-CC-PVTZ
  Basis Set: (AUG-CC-PVTZ AUX)
    Blend: AUG-CC-PVTZ-JKFIT

    Orbital Energies [Eh]
    ---------------------

    Doubly Occupied:

       1A    -20.578703     2A    -20.574183     3A    -20.571588
       4A    -20.502505     5A    -15.621892     6A    -15.588493
       7A    -15.540874     8A    -11.369719     9A    -11.345215
      10A    -11.328813    11A    -11.319097    12A    -11.301438
      13A    -11.299021    14A    -11.294180    15A    -11.238021
      16A    -11.237472    17A     -1.411581    18A     -1.381885
      19A     -1.374101    20A     -1.364425    21A     -1.292089
      22A     -1.261161    23A     -1.169004    24A     -1.079499
      25A     -1.069462    26A     -1.027202    27A     -0.927178
      28A     -0.897284    29A     -0.868817    30A     -0.830139
      31A     -0.805624    32A     -0.754699    33A     -0.738446
      34A     -0.720560    35A     -0.707080    36A     -0.692751
      37A     -0.690302    38A     -0.673735    39A     -0.654529
      40A     -0.637390    41A     -0.627166    42A     -0.619060
      43A     -0.604229    44A     -0.594893    45A     -0.589105
      46A     -0.572507    47A     -0.563805    48A     -0.545726
      49A     -0.532499    50A     -0.522309    51A     -0.510947
      52A     -0.486944    53A     -0.482517    54A     -0.469298
      55A     -0.461009    56A     -0.444328    57A     -0.437615
      58A     -0.416002    59A     -0.383812    60A     -0.334997

  @DF-RHF Final Energy:  -811.47695503313730

   => Energetics <=

    Nuclear Repulsion Energy =           1168.7394263747282821
    One-Electron Energy =               -3432.5549161033400196
    Two-Electron Energy =                1452.3385346954744364
    Total Energy =                       -811.4769550331373011
  Basis Set: (AUG-CC-PVTZ AUX)
    Blend: AUG-CC-PVTZ-RI
    Molecular point group: c1

    Geometry (in Angstrom), charge = 0, multiplicity = 1:

       Center              X                  Y                   Z               Mass
    ------------   -----------------  -----------------  -----------------  -----------------
         O            1.372357062012    -0.342042315718    -0.988607927630    15.994914619570
         O            3.201119562012     1.898481284282    -0.295042727630    15.994914619570
         O            2.798469562012    -2.751678715718    -0.395730727630    15.994914619570
         O           -1.363123437988     2.371273284282     0.159253272370    15.994914619570
         N           -0.799181437988     0.196686284282    -0.224785727630    14.003074004430
         N           -3.055109437988     0.802507284282     0.244482272370    14.003074004430
         N           -4.674347437988    -0.815166715718     0.417107272370    14.003074004430
         C            2.700657562012     0.872822284282     0.563944272370    12.000000000000
         C            1.235906562012     1.104494284282     0.892322272370    12.000000000000
         C            2.650881562012    -0.395022715718    -0.280999727630    12.000000000000
         C            0.573020562012     0.680272284282    -0.410445727630    12.000000000000
         C            2.801160562012    -1.662747715718     0.526940272370    12.000000000000
         C           -1.128274437988    -1.118550715718    -0.303805727630    12.000000000000
         C           -1.745625437988     1.201160284282     0.086515272370    12.000000000000
         C           -2.418244437988    -1.507292715718    -0.100071727630    12.000000000000
         C           -3.362929437988    -0.475891715718     0.172981272370    12.000000000000
         H            3.333443562012     0.754053284282     1.455323272370     1.007825032230
         H            0.903769562012     0.441097284282     1.697959272370     1.007825032230
         H            0.984391562012     2.131335284282     1.162617272370     1.007825032230
         H            0.559618362012     1.480099484282    -1.155878727630     1.007825032230
         H            3.416554562012    -0.367014715718    -1.062155727630     1.007825032230
         H            1.969811562012    -1.735915715718     1.247693272370     1.007825032230
         H            3.745151562012    -1.612246715718     1.092759272370     1.007825032230
         H            3.102913562012     2.743592284282     0.182453272370     1.007825032230
         H           -0.311677437988    -1.791932715718    -0.539227727630     1.007825032230
         H            2.909092562012    -3.567803715718     0.123682272370     1.007825032230
         H           -2.704405437988    -2.551815715718    -0.148779727630     1.007825032230
         H           -5.029648437988    -1.640473715718    -0.052248727630     1.007825032230
         H           -5.300408437988    -0.016529715718     0.390571272370     1.007825032230

  Basis Set: AUG-CC-PVTZ
    Blend: AUG-CC-PVTZ
  Basis Set: (AUG-CC-PVTZ AUX)
    Blend: AUG-CC-PVTZ-JKFIT
	 Reference Energy          =    -811.4769550331373011 [Eh]
	 Singles Energy            =      -0.0000000000000000 [Eh]
	 Same-Spin Energy          =      -0.8296493326798007 [Eh]
	 Opposite-Spin Energy      =      -2.5256999401836442 [Eh]
	 Correlation Energy        =      -3.3553492728634451 [Eh]
	 Total Energy              =    -814.8323043060007649 [Eh]

	 ================> DF-SCS-MP2 Energies <==================
	-----------------------------------------------------------
	 SCS Same-Spin Scale       =       0.3333333333333333 [-]
	 SCS Opposite-Spin Scale   =       1.2000000000000000 [-]
	 SCS Same-Spin Energy      =      -0.2765497775599335 [Eh]
	 SCS Opposite-Spin Energy  =      -3.0308399282203728 [Eh]
	 SCS Correlation Energy    =      -3.3073897057803063 [Eh]
	 SCS Total Energy          =    -814.7843447389176390 [Eh]
	-----------------------------------------------------------

  Dipole Moment: [D]
     X:     1.0970      Y:    -4.7537      Z:     2.5996     Total:     5.5280

*** Psi4 exiting successfully. Buy a developer a beer!
