                               Psi4 1.3.2 release

  ==> Input File <==

--------------------------------------------------------------------------
#psi4
#
memory 32 gb

molecule  {
0 1
  O        1.3620710    -0.3800110    -0.9318440
  O        3.2020570     1.9012130    -0.2995130
  O        2.7994070    -2.7489470    -0.4002010
  O       -1.3621860     2.3740050     0.1547830
  N       -0.7982440     0.1994180    -0.2292560
  N       -3.0541720     0.8052390     0.2400120
  N       -4.6734100    -0.8124350     0.4126370
  C        2.7015950     0.8755540     0.5594740
  C        1.2368440     1.1072260     0.8878520
  C        2.6518190    -0.3922910    -0.2854700
  C        0.5739580     0.6830040    -0.4149160
  C        2.8020980    -1.6600160     0.5224700
  C       -1.1338473    -1.0931916    -0.3049338
  C       -1.7446880     1.2038920     0.0820450
  C       -2.4173070    -1.5045610    -0.1045420
  C       -3.3437884    -0.4563088     0.1667055
  H        3.3343810     0.7567850     1.4508530
  H        0.9047070     0.4438290     1.6934890
  H        0.9853290     2.1340670     1.1581470
  H        0.5274540     1.5132540    -1.1249130
  H        3.4174920    -0.3642830    -1.0666260
  H        1.9707490    -1.7331840     1.2432230
  H        3.7460890    -1.6095150     1.0882890
  H        3.1038510     2.7463240     0.1779830
  H       -0.3107400    -1.7892010    -0.5436980
  H        2.9100300    -3.5650720     0.1192120
  H       -2.7034680    -2.5490840    -0.1532500
  H       -5.0287110    -1.6377420    -0.0567190
  H       -5.2994710    -0.0137980     0.3861010
units angstrom
no_reorient  #important for SAPT in psi4, default
symmetry c1  #important for SAPT in psi4, default
}

set PROPERTIES_ORIGIN ["COM"]
properties('MP2/aug-cc-pvtz', properties = ['dipole'])
--------------------------------------------------------------------------

    Molecular point group: c1
  Charge       = 0
  Multiplicity = 1
  Basis Set: AUG-CC-PVTZ
    Blend: AUG-CC-PVTZ
  Basis Set: (AUG-CC-PVTZ AUX)
    Blend: AUG-CC-PVTZ-JKFIT

    Orbital Energies [Eh]
    ---------------------

    Doubly Occupied:

       1A    -20.578127     2A    -20.575394     3A    -20.574112
       4A    -20.506146     5A    -15.624355     6A    -15.583004
       7A    -15.542088     8A    -11.372572     9A    -11.342299
      10A    -11.333089    11A    -11.317155    12A    -11.302027
      13A    -11.297439    14A    -11.294016    15A    -11.238482
      16A    -11.235060    17A     -1.418662    18A     -1.386064
      19A     -1.374225    20A     -1.366902    21A     -1.295673
      22A     -1.262424    23A     -1.169646    24A     -1.080266
      25A     -1.069704    26A     -1.029008    27A     -0.928088
      28A     -0.898018    29A     -0.871112    30A     -0.832369
      31A     -0.806955    32A     -0.753914    33A     -0.741203
      34A     -0.721901    35A     -0.702515    36A     -0.692790
      37A     -0.688654    38A     -0.674356    39A     -0.656476
      40A     -0.639162    41A     -0.630633    42A     -0.618500
      43A     -0.604932    44A     -0.593178    45A     -0.588073
      46A     -0.574241    47A     -0.569721    48A     -0.545455
      49A     -0.531324    50A     -0.525457    51A     -0.510252
      52A     -0.487216    53A     -0.485107    54A     -0.469182
      55A     -0.462407    56A     -0.447594    57A     -0.439099
      58A     -0.418356    59A     -0.386686    60A     -0.334594

  @DF-RHF Final Energy:  -811.47869091391385

   => Energetics <=

    Nuclear Repulsion Energy =           1170.7696122854881651
    One-Electron Energy =               -3436.5016880919115465
    Two-Electron Energy =                1454.2533848925095299
    Total Energy =                       -811.4786909139138515
  Basis Set: (AUG-CC-PVTZ AUX)
    Blend: AUG-CC-PVTZ-RI
    Molecular point group: c1

    Geometry (in Angstrom), charge = 0, multiplicity = 1:

       Center              X                  Y                   Z               Mass
    ------------   -----------------  -----------------  -----------------  -----------------
         O            1.361453082701    -0.382097178827    -0.931925168605    15.994914619570
         O            3.201439082701     1.899126821173    -0.299594168605    15.994914619570
         O            2.798789082701    -2.751033178827    -0.400282168605    15.994914619570
         O           -1.362803917299     2.371918821173     0.154701831395    15.994914619570
         N           -0.798861917299     0.197331821173    -0.229337168605    14.003074004430
         N           -3.054789917299     0.803152821173     0.239930831395    14.003074004430
         N           -4.674027917299    -0.814521178827     0.412555831395    14.003074004430
         C            2.700977082701     0.873467821173     0.559392831395    12.000000000000
         C            1.236226082701     1.105139821173     0.887770831395    12.000000000000
         C            2.651201082701    -0.394377178827    -0.285551168605    12.000000000000
         C            0.573340082701     0.680917821173    -0.414997168605    12.000000000000
         C            2.801480082701    -1.662102178827     0.522388831395    12.000000000000
         C           -1.134465217299    -1.095277778827    -0.305014968605    12.000000000000
         C           -1.745305917299     1.201805821173     0.081963831395    12.000000000000
         C           -2.417924917299    -1.506647178827    -0.104623168605    12.000000000000
         C           -3.344406317299    -0.458394978827     0.166624331395    12.000000000000
         H            3.333763082701     0.754698821173     1.450771831395     1.007825032230
         H            0.904089082701     0.441742821173     1.693407831395     1.007825032230
         H            0.984711082701     2.131980821173     1.158065831395     1.007825032230
         H            0.526836082701     1.511167821173    -1.124994168605     1.007825032230
         H            3.416874082701    -0.366369178827    -1.066707168605     1.007825032230
         H            1.970131082701    -1.735270178827     1.243141831395     1.007825032230
         H            3.745471082701    -1.611601178827     1.088207831395     1.007825032230
         H            3.103233082701     2.744237821173     0.177901831395     1.007825032230
         H           -0.311357917299    -1.791287178827    -0.543779168605     1.007825032230
         H            2.909412082701    -3.567158178827     0.119130831395     1.007825032230
         H           -2.704085917299    -2.551170178827    -0.153331168605     1.007825032230
         H           -5.029328917299    -1.639828178827    -0.056800168605     1.007825032230
         H           -5.300088917299    -0.015884178827     0.386019831395     1.007825032230

  Basis Set: AUG-CC-PVTZ
    Blend: AUG-CC-PVTZ
  Basis Set: (AUG-CC-PVTZ AUX)
    Blend: AUG-CC-PVTZ-JKFIT
	 Reference Energy          =    -811.4786909139138515 [Eh]
	 Singles Energy            =      -0.0000000000000000 [Eh]
	 Same-Spin Energy          =      -0.8294967344725732 [Eh]
	 Opposite-Spin Energy      =      -2.5246888435330592 [Eh]
	 Correlation Energy        =      -3.3541855780056324 [Eh]
	 Total Energy              =    -814.8328764919194782 [Eh]

	 ================> DF-SCS-MP2 Energies <==================
	-----------------------------------------------------------
	 SCS Same-Spin Scale       =       0.3333333333333333 [-]
	 SCS Opposite-Spin Scale   =       1.2000000000000000 [-]
	 SCS Same-Spin Energy      =      -0.2764989114908577 [Eh]
	 SCS Opposite-Spin Energy  =      -3.0296266122396709 [Eh]
	 SCS Correlation Energy    =      -3.3061255237305285 [Eh]
	 SCS Total Energy          =    -814.7848164376443947 [Eh]
	-----------------------------------------------------------

  Dipole Moment: [D]
     X:     1.3472      Y:    -4.5131      Z:     2.4651     Total:     5.3160

*** Psi4 exiting successfully. Buy a developer a beer!
