                               Psi4 1.3.2 release

  ==> Input File <==

--------------------------------------------------------------------------
#psi4
#
memory 32 gb

molecule  {
0 1
  O        1.3620710    -0.3800110    -0.9318440
  O        3.2020570     1.9012130    -0.2995130
  O        2.7994070    -2.7489470    -0.4002010
  O       -1.3621860     2.3740050     0.1547830
  N       -0.7982440     0.1994180    -0.2292560
  N       -3.0541720     0.8052390     0.2400120
  N       -4.6734100    -0.8124350     0.4126370
  C        2.7015950     0.8755540     0.5594740
  C        1.2368440     1.1072260     0.8878520
  C        2.6518190    -0.3922910    -0.2854700
  C        0.5739580     0.6830040    -0.4149160
  C        2.7822039    -1.4921929     0.4155138
  C       -1.1273370    -1.1158190    -0.3082760
  C       -1.7446880     1.2038920     0.0820450
  C       -2.4173070    -1.5045610    -0.1045420
  C       -3.3619920    -0.4731600     0.1685110
  H        3.3343810     0.7567850     1.4508530
  H        0.9047070     0.4438290     1.6934890
  H        0.9853290     2.1340670     1.1581470
  H        0.5274540     1.5132540    -1.1249130
  H        3.4174920    -0.3642830    -1.0666260
  H        1.9707490    -1.7331840     1.2432230
  H        3.7460890    -1.6095150     1.0882890
  H        3.1038510     2.7463240     0.1779830
  H       -0.3107400    -1.7892010    -0.5436980
  H        2.9100300    -3.5650720     0.1192120
  H       -2.7034680    -2.5490840    -0.1532500
  H       -5.0287110    -1.6377420    -0.0567190
  H       -5.2994710    -0.0137980     0.3861010
units angstrom
no_reorient  #important for SAPT in psi4, default
symmetry c1  #important for SAPT in psi4, default
}

set PROPERTIES_ORIGIN ["COM"]
properties('MP2/aug-cc-pvtz', properties = ['dipole'])
--------------------------------------------------------------------------

    Molecular point group: c1
  Charge       = 0
  Multiplicity = 1
  Basis Set: AUG-CC-PVTZ
    Blend: AUG-CC-PVTZ
  Basis Set: (AUG-CC-PVTZ AUX)
    Blend: AUG-CC-PVTZ-JKFIT

    Orbital Energies [Eh]
    ---------------------

    Doubly Occupied:

       1A    -20.578315     2A    -20.575639     3A    -20.565288
       4A    -20.503983     5A    -15.622770     6A    -15.588731
       7A    -15.541346     8A    -11.370782     9A    -11.345523
      10A    -11.333198    11A    -11.318595    12A    -11.308050
      13A    -11.307108    14A    -11.286557    15A    -11.239430
      16A    -11.237343    17A     -1.422838    18A     -1.383902
      19A     -1.372745    20A     -1.341839    21A     -1.293039
      22A     -1.262725    23A     -1.170101    24A     -1.106343
      25A     -1.079645    26A     -1.043320    27A     -0.930131
      28A     -0.896481    29A     -0.869989    30A     -0.834261
      31A     -0.807460    32A     -0.755152    33A     -0.739932
      34A     -0.724980    35A     -0.711541    36A     -0.695498
      37A     -0.682742    38A     -0.675917    39A     -0.655147
      40A     -0.639392    41A     -0.629595    42A     -0.619598
      43A     -0.617586    44A     -0.597639    45A     -0.585552
      46A     -0.575067    47A     -0.557389    48A     -0.536399
      49A     -0.534849    50A     -0.522941    51A     -0.513924
      52A     -0.487814    53A     -0.480491    54A     -0.469811
      55A     -0.454037    56A     -0.443284    57A     -0.438788
      58A     -0.417386    59A     -0.384459    60A     -0.335642

  @DF-RHF Final Energy:  -811.42541682046874

   => Energetics <=

    Nuclear Repulsion Energy =           1173.5237397857902124
    One-Electron Energy =               -3441.8582536912704199
    Two-Electron Energy =                1456.9090970850113536
    Total Energy =                       -811.4254168204686266
  Basis Set: (AUG-CC-PVTZ AUX)
    Blend: AUG-CC-PVTZ-RI
    Molecular point group: c1

    Geometry (in Angstrom), charge = 0, multiplicity = 1:

       Center              X                  Y                   Z               Mass
    ------------   -----------------  -----------------  -----------------  -----------------
         O            1.363122234969    -0.388879203094    -0.926192149422    15.994914619570
         O            3.203108234969     1.892344796906    -0.293861149422    15.994914619570
         O            2.800458234969    -2.757815203094    -0.394549149422    15.994914619570
         O           -1.361134765031     2.365136796906     0.160434850578    15.994914619570
         N           -0.797192765031     0.190549796906    -0.223604149422    14.003074004430
         N           -3.053120765031     0.796370796906     0.245663850578    14.003074004430
         N           -4.672358765031    -0.821303203094     0.418288850578    14.003074004430
         C            2.702646234969     0.866685796906     0.565125850578    12.000000000000
         C            1.237895234969     1.098357796906     0.893503850578    12.000000000000
         C            2.652870234969    -0.401159203094    -0.279818149422    12.000000000000
         C            0.575009234969     0.674135796906    -0.409264149422    12.000000000000
         C            2.783255134969    -1.501061103094     0.421165650578    12.000000000000
         C           -1.126285765031    -1.124687203094    -0.302624149422    12.000000000000
         C           -1.743636765031     1.195023796906     0.087696850578    12.000000000000
         C           -2.416255765031    -1.513429203094    -0.098890149422    12.000000000000
         C           -3.360940765031    -0.482028203094     0.174162850578    12.000000000000
         H            3.335432234969     0.747916796906     1.456504850578     1.007825032230
         H            0.905758234969     0.434960796906     1.699140850578     1.007825032230
         H            0.986380234969     2.125198796906     1.163798850578     1.007825032230
         H            0.528505234969     1.504385796906    -1.119261149422     1.007825032230
         H            3.418543234969    -0.373151203094    -1.060974149422     1.007825032230
         H            1.971800234969    -1.742052203094     1.248874850578     1.007825032230
         H            3.747140234969    -1.618383203094     1.093940850578     1.007825032230
         H            3.104902234969     2.737455796906     0.183634850578     1.007825032230
         H           -0.309688765031    -1.798069203094    -0.538046149422     1.007825032230
         H            2.911081234969    -3.573940203094     0.124863850578     1.007825032230
         H           -2.702416765031    -2.557952203094    -0.147598149422     1.007825032230
         H           -5.027659765031    -1.646610203094    -0.051067149422     1.007825032230
         H           -5.298419765031    -0.022666203094     0.391752850578     1.007825032230

  Basis Set: AUG-CC-PVTZ
    Blend: AUG-CC-PVTZ
  Basis Set: (AUG-CC-PVTZ AUX)
    Blend: AUG-CC-PVTZ-JKFIT
	 Reference Energy          =    -811.4254168204687403 [Eh]
	 Singles Energy            =      -0.0000000000000000 [Eh]
	 Same-Spin Energy          =      -0.8326835198739579 [Eh]
	 Opposite-Spin Energy      =      -2.5296508045314381 [Eh]
	 Correlation Energy        =      -3.3623343244053960 [Eh]
	 Total Energy              =    -814.7877511448741643 [Eh]

	 ================> DF-SCS-MP2 Energies <==================
	-----------------------------------------------------------
	 SCS Same-Spin Scale       =       0.3333333333333333 [-]
	 SCS Opposite-Spin Scale   =       1.2000000000000000 [-]
	 SCS Same-Spin Energy      =      -0.2775611732913193 [Eh]
	 SCS Opposite-Spin Energy  =      -3.0355809654377257 [Eh]
	 SCS Correlation Energy    =      -3.3131421387290452 [Eh]
	 SCS Total Energy          =    -814.7385589591978032 [Eh]
	-----------------------------------------------------------

  Dipole Moment: [D]
     X:     1.0146      Y:    -4.2607      Z:     2.5413     Total:     5.0637

*** Psi4 exiting successfully. Buy a developer a beer!
