                               Psi4 1.3.2 release

  ==> Input File <==

--------------------------------------------------------------------------
#psi4
#
memory 32 gb

molecule  {
0 1
  O        1.3620710    -0.3800110    -0.9318440
  O        3.2020570     1.9012130    -0.2995130
  O        2.7994070    -2.7489470    -0.4002010
  O       -1.3621860     2.3740050     0.1547830
  N       -0.7982440     0.1994180    -0.2292560
  N       -3.0541720     0.8052390     0.2400120
  N       -4.6734100    -0.8124350     0.4126370
  C        2.7015950     0.8755540     0.5594740
  C        1.2368440     1.1072260     0.8878520
  C        2.6518190    -0.3922910    -0.2854700
  C        0.5739580     0.6830040    -0.4149160
  C        2.8020980    -1.6600160     0.5224700
  C       -1.1273370    -1.1158190    -0.3082760
  C       -1.7446880     1.2038920     0.0820450
  C       -2.4173070    -1.5045610    -0.1045420
  C       -3.3631280    -0.4637097     0.1758374
  H        3.3343810     0.7567850     1.4508530
  H        0.9047070     0.4438290     1.6934890
  H        0.9853290     2.1340670     1.1581470
  H        0.5274540     1.5132540    -1.1249130
  H        3.4174920    -0.3642830    -1.0666260
  H        1.9707490    -1.7331840     1.2432230
  H        3.7460890    -1.6095150     1.0882890
  H        3.1038510     2.7463240     0.1779830
  H       -0.3107400    -1.7892010    -0.5436980
  H        2.9100300    -3.5650720     0.1192120
  H       -2.7034680    -2.5490840    -0.1532500
  H       -5.0365759    -1.6365014    -0.0528634
  H       -5.2994710    -0.0137980     0.3861010
units angstrom
no_reorient  #important for SAPT in psi4, default
symmetry c1  #important for SAPT in psi4, default
}

set PROPERTIES_ORIGIN ["COM"]
properties('MP2/aug-cc-pvtz', properties = ['dipole'])
--------------------------------------------------------------------------

    Molecular point group: c1
  Charge       = 0
  Multiplicity = 1
  Basis Set: AUG-CC-PVTZ
    Blend: AUG-CC-PVTZ
  Basis Set: (AUG-CC-PVTZ AUX)
    Blend: AUG-CC-PVTZ-JKFIT

    Orbital Energies [Eh]
    ---------------------

    Doubly Occupied:

       1A    -20.577580     2A    -20.574271     3A    -20.572679
       4A    -20.504035     5A    -15.621080     6A    -15.588009
       7A    -15.541109     8A    -11.370900     9A    -11.345053
      10A    -11.330561    11A    -11.316950    12A    -11.300755
      13A    -11.296703    14A    -11.292928    15A    -11.237116
      16A    -11.236682    17A     -1.416518    18A     -1.382981
      19A     -1.373438    20A     -1.365716    21A     -1.293009
      22A     -1.261601    23A     -1.171078    24A     -1.078512
      25A     -1.068187    26A     -1.027279    27A     -0.926371
      28A     -0.896446    29A     -0.870071    30A     -0.831026
      31A     -0.806115    32A     -0.753837    33A     -0.738366
      34A     -0.720824    35A     -0.707269    36A     -0.692652
      37A     -0.689549    38A     -0.675953    39A     -0.656412
      40A     -0.637232    41A     -0.627734    42A     -0.617699
      43A     -0.604654    44A     -0.594664    45A     -0.588995
      46A     -0.572776    47A     -0.568699    48A     -0.544808
      49A     -0.532659    50A     -0.523583    51A     -0.510312
      52A     -0.485754    53A     -0.482163    54A     -0.468346
      55A     -0.461019    56A     -0.444954    57A     -0.437682
      58A     -0.416714    59A     -0.384852    60A     -0.334501

  @DF-RHF Final Energy:  -811.47963018818814

   => Energetics <=

    Nuclear Repulsion Energy =           1169.9634597529511666
    One-Electron Energy =               -3434.9873371489106830
    Two-Electron Energy =                1453.5442472077713774
    Total Energy =                       -811.4796301881881391
  Basis Set: (AUG-CC-PVTZ AUX)
    Blend: AUG-CC-PVTZ-RI
    Molecular point group: c1

    Geometry (in Angstrom), charge = 0, multiplicity = 1:

       Center              X                  Y                   Z               Mass
    ------------   -----------------  -----------------  -----------------  -----------------
         O            1.362165917309    -0.380515918824    -0.932248221026    15.994914619570
         O            3.202151917309     1.900708081176    -0.299917221026    15.994914619570
         O            2.799501917309    -2.749451918824    -0.400605221026    15.994914619570
         O           -1.362091082691     2.373500081176     0.154378778974    15.994914619570
         N           -0.798149082691     0.198913081176    -0.229660221026    14.003074004430
         N           -3.054077082691     0.804734081176     0.239607778974    14.003074004430
         N           -4.673315082691    -0.812939918824     0.412232778974    14.003074004430
         C            2.701689917309     0.875049081176     0.559069778974    12.000000000000
         C            1.236938917309     1.106721081176     0.887447778974    12.000000000000
         C            2.651913917309    -0.392795918824    -0.285874221026    12.000000000000
         C            0.574052917309     0.682499081176    -0.415320221026    12.000000000000
         C            2.802192917309    -1.660520918824     0.522065778974    12.000000000000
         C           -1.127242082691    -1.116323918824    -0.308680221026    12.000000000000
         C           -1.744593082691     1.203387081176     0.081640778974    12.000000000000
         C           -2.417212082691    -1.505065918824    -0.104946221026    12.000000000000
         C           -3.363033082691    -0.464214618824     0.175433178974    12.000000000000
         H            3.334475917309     0.756280081176     1.450448778974     1.007825032230
         H            0.904801917309     0.443324081176     1.693084778974     1.007825032230
         H            0.985423917309     2.133562081176     1.157742778974     1.007825032230
         H            0.527548917309     1.512749081176    -1.125317221026     1.007825032230
         H            3.417586917309    -0.364787918824    -1.067030221026     1.007825032230
         H            1.970843917309    -1.733688918824     1.242818778974     1.007825032230
         H            3.746183917309    -1.610019918824     1.087884778974     1.007825032230
         H            3.103945917309     2.745819081176     0.177578778974     1.007825032230
         H           -0.310645082691    -1.789705918824    -0.544102221026     1.007825032230
         H            2.910124917309    -3.565576918824     0.118807778974     1.007825032230
         H           -2.703373082691    -2.549588918824    -0.153654221026     1.007825032230
         H           -5.036480982691    -1.637006318824    -0.053267621026     1.007825032230
         H           -5.299376082691    -0.014302918824     0.385696778974     1.007825032230

  Basis Set: AUG-CC-PVTZ
    Blend: AUG-CC-PVTZ
  Basis Set: (AUG-CC-PVTZ AUX)
    Blend: AUG-CC-PVTZ-JKFIT
	 Reference Energy          =    -811.4796301881881391 [Eh]
	 Singles Energy            =      -0.0000000000000000 [Eh]
	 Same-Spin Energy          =      -0.8294587554469699 [Eh]
	 Opposite-Spin Energy      =      -2.5249175938203932 [Eh]
	 Correlation Energy        =      -3.3543763492673628 [Eh]
	 Total Energy              =    -814.8340065374554797 [Eh]

	 ================> DF-SCS-MP2 Energies <==================
	-----------------------------------------------------------
	 SCS Same-Spin Scale       =       0.3333333333333333 [-]
	 SCS Opposite-Spin Scale   =       1.2000000000000000 [-]
	 SCS Same-Spin Energy      =      -0.2764862518156566 [Eh]
	 SCS Opposite-Spin Energy  =      -3.0299011125844717 [Eh]
	 SCS Correlation Energy    =      -3.3063873644001283 [Eh]
	 SCS Total Energy          =    -814.7860175525883051 [Eh]
	-----------------------------------------------------------

  Dipole Moment: [D]
     X:     1.0469      Y:    -4.6397      Z:     2.5029     Total:     5.3748

*** Psi4 exiting successfully. Buy a developer a beer!
