                               Psi4 1.4a3.dev225

  ==> Input File <==

--------------------------------------------------------------------------
#psi4
#
memory 32 gb

molecule  {
0 1
  O       -1.4695130     0.3030610    -1.0874480
  O       -3.6436400    -1.4204040    -0.2669360
  O       -1.6911330     2.8536240     0.0000030
  O        1.1857770    -2.4961310     0.0874550
  N        0.6842480    -0.3150290    -0.3399290
  N        2.9133760    -0.9647370     0.2108410
  N        4.5636770     0.6178870     0.3785230
  C       -2.7686820    -0.6858470     0.5863090
  C       -1.3787780    -1.3118450     0.6568060
  C       -2.4925280     0.6283540    -0.1295840
  C       -0.6939390    -0.7805590    -0.6115670
  C       -2.0414120     1.7324860     0.8087370
  C        1.0545030     0.9838330    -0.4888120
  C        1.6080830    -1.3384950     0.0010630
  C        2.3487550     1.3478080    -0.2622830
  C        3.2578570     0.3046130     0.0876290
  H       -3.2188600    -0.5381750     1.5798200
  H       -0.8341690    -0.9801840     1.5464130
  H       -1.3950130    -2.4033150     0.6754970
  H       -0.6263030    -1.5384450    -1.3968420
  H       -3.3433011     0.9580105    -0.6952663
  H       -1.1849610     1.3939850     1.4098140
  H       -2.8667900     1.9743150     1.4948250
  H       -3.6905400    -2.3294490     0.0774600
  H        0.2668220     1.6750250    -0.7707300
  H       -1.4321050     3.5760960     0.5972330
  H        2.6621150     2.3809760    -0.3596430
  H        4.9550500     1.4416620    -0.0591730
  H        5.1797170    -0.1867780     0.4106900
units angstrom
no_reorient  #important for SAPT in psi4, default
symmetry c1  #important for SAPT in psi4, default
}

set PROPERTIES_ORIGIN ["COM"]
properties('MP2/aug-cc-pvtz', properties = ['dipole'])
--------------------------------------------------------------------------

    Molecular point group: c1
  Charge       = 0
  Multiplicity = 1
  Basis Set: AUG-CC-PVTZ
    Blend: AUG-CC-PVTZ
  Basis Set: (AUG-CC-PVTZ AUX)
    Blend: AUG-CC-PVTZ-JKFIT

    Orbital Energies [Eh]
    ---------------------

    Doubly Occupied:

       1A    -20.583598     2A    -20.574200     3A    -20.572677
       4A    -20.501822     5A    -15.618993     6A    -15.588862
       7A    -15.539768     8A    -11.368697     9A    -11.345754
      10A    -11.333027    11A    -11.314503    12A    -11.300111
      13A    -11.299380    14A    -11.292511    15A    -11.237137
      16A    -11.235253    17A     -1.418785    18A     -1.381673
      19A     -1.377545    20A     -1.366075    21A     -1.290191
      22A     -1.258560    23A     -1.168431    24A     -1.076175
      25A     -1.068193    26A     -1.025204    27A     -0.930053
      28A     -0.895187    29A     -0.867905    30A     -0.830204
      31A     -0.806817    32A     -0.753642    33A     -0.737704
      34A     -0.725701    35A     -0.707322    36A     -0.702744
      37A     -0.690301    38A     -0.673369    39A     -0.651107
      40A     -0.642085    41A     -0.622571    42A     -0.617792
      43A     -0.606688    44A     -0.596124    45A     -0.587578
      46A     -0.572474    47A     -0.567231    48A     -0.551492
      49A     -0.526767    50A     -0.520532    51A     -0.511010
      52A     -0.485461    53A     -0.480710    54A     -0.472554
      55A     -0.459527    56A     -0.448317    57A     -0.440704
      58A     -0.413572    59A     -0.382363    60A     -0.333851

  @DF-RHF Final Energy:  -811.47937972968225

   => Energetics <=

    Nuclear Repulsion Energy =           1185.2762195736222566
    One-Electron Energy =               -3465.6140243032077706
    Two-Electron Energy =                1468.8584249999032636
    Total Energy =                       -811.4793797296822504
  Basis Set: (AUG-CC-PVTZ AUX)
    Blend: AUG-CC-PVTZ-RI
    Molecular point group: c1

    Geometry (in Angstrom), charge = 0, multiplicity = 1:

       Center              X                  Y                   Z               Mass
    ------------   -----------------  -----------------  -----------------  -----------------
         O           -1.494042595071     0.326803665003    -1.067867484737    15.994914619570
         O           -3.668169595071    -1.396661334997    -0.247355484737    15.994914619570
         O           -1.715662595071     2.877366665003     0.019583515263    15.994914619570
         O            1.161247404929    -2.472388334997     0.107035515263    15.994914619570
         N            0.659718404929    -0.291286334997    -0.320348484737    14.003074004430
         N            2.888846404929    -0.940994334997     0.230421515263    14.003074004430
         N            4.539147404929     0.641629665003     0.398103515263    14.003074004430
         C           -2.793211595071    -0.662104334997     0.605889515263    12.000000000000
         C           -1.403307595071    -1.288102334997     0.676386515263    12.000000000000
         C           -2.517057595071     0.652096665003    -0.110003484737    12.000000000000
         C           -0.718468595071    -0.756816334997    -0.591986484737    12.000000000000
         C           -2.065941595071     1.756228665003     0.828317515263    12.000000000000
         C            1.029973404929     1.007575665003    -0.469231484737    12.000000000000
         C            1.583553404929    -1.314752334997     0.020643515263    12.000000000000
         C            2.324225404929     1.371550665003    -0.242702484737    12.000000000000
         C            3.233327404929     0.328355665003     0.107209515263    12.000000000000
         H           -3.243389595071    -0.514432334997     1.599400515263     1.007825032230
         H           -0.858698595071    -0.956441334997     1.565993515263     1.007825032230
         H           -1.419542595071    -2.379572334997     0.695077515263     1.007825032230
         H           -0.650832595071    -1.514702334997    -1.377261484737     1.007825032230
         H           -3.367830695071     0.981753165003    -0.675685784737     1.007825032230
         H           -1.209490595071     1.417727665003     1.429394515263     1.007825032230
         H           -2.891319595071     1.998057665003     1.514405515263     1.007825032230
         H           -3.715069595071    -2.305706334997     0.097040515263     1.007825032230
         H            0.242292404929     1.698767665003    -0.751149484737     1.007825032230
         H           -1.456634595071     3.599838665003     0.616813515263     1.007825032230
         H            2.637585404929     2.404718665003    -0.340062484737     1.007825032230
         H            4.930520404929     1.465404665003    -0.039592484737     1.007825032230
         H            5.155187404929    -0.163035334997     0.430270515263     1.007825032230

  Basis Set: AUG-CC-PVTZ
    Blend: AUG-CC-PVTZ
  Basis Set: (AUG-CC-PVTZ AUX)
    Blend: AUG-CC-PVTZ-JKFIT
	 Reference Energy          =    -811.4793797296822504 [Eh]
	 Singles Energy            =      -0.0000000000000000 [Eh]
	 Same-Spin Energy          =      -0.8307461442192269 [Eh]
	 Opposite-Spin Energy      =      -2.5268241000455136 [Eh]
	 Correlation Energy        =      -3.3575702442647404 [Eh]
	 Total Energy              =    -814.8369499739469575 [Eh]

	 ================> DF-SCS-MP2 Energies <==================
	-----------------------------------------------------------
	 SCS Same-Spin Scale       =       0.3333333333333333 [-]
	 SCS Opposite-Spin Scale   =       1.2000000000000000 [-]
	 SCS Same-Spin Energy      =      -0.2769153814064089 [Eh]
	 SCS Opposite-Spin Energy  =      -3.0321889200546162 [Eh]
	 SCS Correlation Energy    =      -3.3091043014610251 [Eh]
	 SCS Total Energy          =    -814.7884840311432981 [Eh]
	-----------------------------------------------------------

  Dipole Moment: [D]
     X:    -0.3362      Y:     4.6021      Z:     2.4080     Total:     5.2049

*** Psi4 exiting successfully. Buy a developer a beer!
