                               Psi4 1.3.2 release

  ==> Input File <==

--------------------------------------------------------------------------
#psi4
#
memory 32 gb

molecule  {
0 1
  O        1.3620710    -0.3800110    -0.9318440
  O        3.2020570     1.9012130    -0.2995130
  O        2.7994070    -2.7489470    -0.4002010
  O       -1.3621860     2.3740050     0.1547830
  N       -0.7982440     0.1994180    -0.2292560
  N       -3.0541720     0.8052390     0.2400120
  N       -4.6734100    -0.8124350     0.4126370
  C        2.7015950     0.8755540     0.5594740
  C        1.2489025     1.1043378     0.9393978
  C        2.6518190    -0.3922910    -0.2854700
  C        0.5739580     0.6830040    -0.4149160
  C        2.8020980    -1.6600160     0.5224700
  C       -1.1273370    -1.1158190    -0.3082760
  C       -1.7446880     1.2038920     0.0820450
  C       -2.4173070    -1.5045610    -0.1045420
  C       -3.3619920    -0.4731600     0.1685110
  H        3.3032192     0.7614437     1.4727691
  H        0.9047070     0.4438290     1.6934890
  H        0.9853290     2.1340670     1.1581470
  H        0.5274540     1.5132540    -1.1249130
  H        3.4174920    -0.3642830    -1.0666260
  H        1.9707490    -1.7331840     1.2432230
  H        3.7460890    -1.6095150     1.0882890
  H        3.1038510     2.7463240     0.1779830
  H       -0.3107400    -1.7892010    -0.5436980
  H        2.9100300    -3.5650720     0.1192120
  H       -2.7034680    -2.5490840    -0.1532500
  H       -5.0287110    -1.6377420    -0.0567190
  H       -5.2994710    -0.0137980     0.3861010
units angstrom
no_reorient  #important for SAPT in psi4, default
symmetry c1  #important for SAPT in psi4, default
}

set PROPERTIES_ORIGIN ["COM"]
properties('MP2/aug-cc-pvtz', properties = ['dipole'])
--------------------------------------------------------------------------

    Molecular point group: c1
  Charge       = 0
  Multiplicity = 1
  Basis Set: AUG-CC-PVTZ
    Blend: AUG-CC-PVTZ
  Basis Set: (AUG-CC-PVTZ AUX)
    Blend: AUG-CC-PVTZ-JKFIT

    Orbital Energies [Eh]
    ---------------------

    Doubly Occupied:

       1A    -20.577872     2A    -20.576087     3A    -20.573003
       4A    -20.502814     5A    -15.621460     6A    -15.588174
       7A    -15.540616     8A    -11.369592     9A    -11.344795
      10A    -11.332126    11A    -11.317961    12A    -11.300987
      13A    -11.297051    14A    -11.293567    15A    -11.236806
      16A    -11.235494    17A     -1.415469    18A     -1.382225
      19A     -1.373873    20A     -1.365834    21A     -1.291970
      22A     -1.261024    23A     -1.168755    24A     -1.076732
      25A     -1.069016    26A     -1.025311    27A     -0.925943
      28A     -0.897337    29A     -0.869241    30A     -0.832442
      31A     -0.805125    32A     -0.753978    33A     -0.737261
      34A     -0.720435    35A     -0.706658    36A     -0.692237
      37A     -0.690404    38A     -0.676188    39A     -0.656370
      40A     -0.637457    41A     -0.627591    42A     -0.619076
      43A     -0.605269    44A     -0.595077    45A     -0.587556
      46A     -0.570068    47A     -0.569770    48A     -0.546838
      49A     -0.534712    50A     -0.524482    51A     -0.509558
      52A     -0.488018    53A     -0.481554    54A     -0.469054
      55A     -0.459694    56A     -0.442952    57A     -0.436206
      58A     -0.416103    59A     -0.382802    60A     -0.334115

  @DF-RHF Final Energy:  -811.47641648738522

   => Energetics <=

    Nuclear Repulsion Energy =           1169.0073128311635173
    One-Electron Energy =               -3433.0870833013391348
    Two-Electron Energy =                1452.6033539827901677
    Total Energy =                       -811.4764164873852224
  Basis Set: (AUG-CC-PVTZ AUX)
    Blend: AUG-CC-PVTZ-RI
    Molecular point group: c1

    Geometry (in Angstrom), charge = 0, multiplicity = 1:

       Center              X                  Y                   Z               Mass
    ------------   -----------------  -----------------  -----------------  -----------------
         O            1.361572080323    -0.379879093040    -0.934665030043    15.994914619570
         O            3.201558080323     1.901344906960    -0.302334030043    15.994914619570
         O            2.798908080323    -2.748815093040    -0.403022030043    15.994914619570
         O           -1.362684919677     2.374136906960     0.151961969957    15.994914619570
         N           -0.798742919677     0.199549906960    -0.232077030043    14.003074004430
         N           -3.054670919677     0.805370906960     0.237190969957    14.003074004430
         N           -4.673908919677    -0.812303093040     0.409815969957    14.003074004430
         C            2.701096080323     0.875685906960     0.556652969957    12.000000000000
         C            1.248403580323     1.104469706960     0.936576769957    12.000000000000
         C            2.651320080323    -0.392159093040    -0.288291030043    12.000000000000
         C            0.573459080323     0.683135906960    -0.417737030043    12.000000000000
         C            2.801599080323    -1.659884093040     0.519648969957    12.000000000000
         C           -1.127835919677    -1.115687093040    -0.311097030043    12.000000000000
         C           -1.745186919677     1.204023906960     0.079223969957    12.000000000000
         C           -2.417805919677    -1.504429093040    -0.107363030043    12.000000000000
         C           -3.362490919677    -0.473028093040     0.165689969957    12.000000000000
         H            3.302720280323     0.761575606960     1.469948069957     1.007825032230
         H            0.904208080323     0.443960906960     1.690667969957     1.007825032230
         H            0.984830080323     2.134198906960     1.155325969957     1.007825032230
         H            0.526955080323     1.513385906960    -1.127734030043     1.007825032230
         H            3.416993080323    -0.364151093040    -1.069447030043     1.007825032230
         H            1.970250080323    -1.733052093040     1.240401969957     1.007825032230
         H            3.745590080323    -1.609383093040     1.085467969957     1.007825032230
         H            3.103352080323     2.746455906960     0.175161969957     1.007825032230
         H           -0.311238919677    -1.789069093040    -0.546519030043     1.007825032230
         H            2.909531080323    -3.564940093040     0.116390969957     1.007825032230
         H           -2.703966919677    -2.548952093040    -0.156071030043     1.007825032230
         H           -5.029209919677    -1.637610093040    -0.059540030043     1.007825032230
         H           -5.299969919677    -0.013666093040     0.383279969957     1.007825032230

  Basis Set: AUG-CC-PVTZ
    Blend: AUG-CC-PVTZ
  Basis Set: (AUG-CC-PVTZ AUX)
    Blend: AUG-CC-PVTZ-JKFIT
	 Reference Energy          =    -811.4764164873852224 [Eh]
	 Singles Energy            =      -0.0000000000000000 [Eh]
	 Same-Spin Energy          =      -0.8296123014328568 [Eh]
	 Opposite-Spin Energy      =      -2.5253434377830204 [Eh]
	 Correlation Energy        =      -3.3549557392158773 [Eh]
	 Total Energy              =    -814.8313722266010473 [Eh]

	 ================> DF-SCS-MP2 Energies <==================
	-----------------------------------------------------------
	 SCS Same-Spin Scale       =       0.3333333333333333 [-]
	 SCS Opposite-Spin Scale   =       1.2000000000000000 [-]
	 SCS Same-Spin Energy      =      -0.2765374338109522 [Eh]
	 SCS Opposite-Spin Energy  =      -3.0304121253396246 [Eh]
	 SCS Correlation Energy    =      -3.3069495591505769 [Eh]
	 SCS Total Energy          =    -814.7833660465357752 [Eh]
	-----------------------------------------------------------

  Dipole Moment: [D]
     X:     1.0822      Y:    -4.6790      Z:     2.4713     Total:     5.4010

*** Psi4 exiting successfully. Buy a developer a beer!
