                               Psi4 1.3.2 release

  ==> Input File <==

--------------------------------------------------------------------------
#psi4
#
memory 32 gb

molecule  {
0 1
  O        1.3620710    -0.3800110    -0.9318440
  O        3.2020570     1.9012130    -0.2995130
  O        2.7994070    -2.7489470    -0.4002010
  O       -1.3621860     2.3740050     0.1547830
  N       -0.7982440     0.1994180    -0.2292560
  N       -3.0431966     0.8026697     0.2377753
  N       -4.6734100    -0.8124350     0.4126370
  C        2.7015950     0.8755540     0.5594740
  C        1.2368440     1.1072260     0.8878520
  C        2.6518190    -0.3922910    -0.2854700
  C        0.5739580     0.6830040    -0.4149160
  C        2.8020980    -1.6600160     0.5224700
  C       -1.1273370    -1.1158190    -0.3082760
  C       -1.7446880     1.2038920     0.0820450
  C       -2.4082957    -1.4960263    -0.1053204
  C       -3.3619920    -0.4731600     0.1685110
  H        3.3343810     0.7567850     1.4508530
  H        0.9047070     0.4438290     1.6934890
  H        0.9853290     2.1340670     1.1581470
  H        0.5274540     1.5132540    -1.1249130
  H        3.4174920    -0.3642830    -1.0666260
  H        1.9707490    -1.7331840     1.2432230
  H        3.7460890    -1.6095150     1.0882890
  H        3.1038510     2.7463240     0.1779830
  H       -0.3107400    -1.7892010    -0.5436980
  H        2.9100300    -3.5650720     0.1192120
  H       -2.7034680    -2.5490840    -0.1532500
  H       -5.0287110    -1.6377420    -0.0567190
  H       -5.2994710    -0.0137980     0.3861010
units angstrom
no_reorient  #important for SAPT in psi4, default
symmetry c1  #important for SAPT in psi4, default
}

set PROPERTIES_ORIGIN ["COM"]
properties('MP2/aug-cc-pvtz', properties = ['dipole'])
--------------------------------------------------------------------------

    Molecular point group: c1
  Charge       = 0
  Multiplicity = 1
  Basis Set: AUG-CC-PVTZ
    Blend: AUG-CC-PVTZ
  Basis Set: (AUG-CC-PVTZ AUX)
    Blend: AUG-CC-PVTZ-JKFIT

    Orbital Energies [Eh]
    ---------------------

    Doubly Occupied:

       1A    -20.577494     2A    -20.573962     3A    -20.572318
       4A    -20.501648     5A    -15.620109     6A    -15.590152
       7A    -15.539785     8A    -11.368503     9A    -11.346310
      10A    -11.329904    11A    -11.316086    12A    -11.300426
      13A    -11.296557    14A    -11.292664    15A    -11.236803
      16A    -11.236225    17A     -1.416134    18A     -1.382226
      19A     -1.373264    20A     -1.365338    21A     -1.292677
      22A     -1.261199    23A     -1.171406    24A     -1.079353
      25A     -1.069473    26A     -1.027894    27A     -0.926786
      28A     -0.896585    29A     -0.870069    30A     -0.831121
      31A     -0.806090    32A     -0.755549    33A     -0.738086
      34A     -0.720608    35A     -0.707639    36A     -0.692543
      37A     -0.689136    38A     -0.676239    39A     -0.656259
      40A     -0.635586    41A     -0.627849    42A     -0.617584
      43A     -0.604876    44A     -0.596254    45A     -0.588523
      46A     -0.572285    47A     -0.568471    48A     -0.544553
      49A     -0.532496    50A     -0.523080    51A     -0.510174
      52A     -0.485478    53A     -0.482234    54A     -0.468220
      55A     -0.460810    56A     -0.443359    57A     -0.436775
      58A     -0.415808    59A     -0.384251    60A     -0.335677

  @DF-RHF Final Energy:  -811.47963437924670

   => Energetics <=

    Nuclear Repulsion Energy =           1170.5177151752320697
    One-Electron Energy =               -3436.1167811537989110
    Two-Electron Energy =                1454.1194315993200235
    Total Energy =                       -811.4796343792465905
  Basis Set: (AUG-CC-PVTZ AUX)
    Blend: AUG-CC-PVTZ-RI
    Molecular point group: c1

    Geometry (in Angstrom), charge = 0, multiplicity = 1:

       Center              X                  Y                   Z               Mass
    ------------   -----------------  -----------------  -----------------  -----------------
         O            1.360918030456    -0.380303600020    -0.931664911799    15.994914619570
         O            3.200904030456     1.900920399980    -0.299333911799    15.994914619570
         O            2.798254030456    -2.749239600020    -0.400021911799    15.994914619570
         O           -1.363338969544     2.373712399980     0.154962088201    15.994914619570
         N           -0.799396969544     0.199125399980    -0.229076911799    14.003074004430
         N           -3.044349569544     0.802377099980     0.237954388201    14.003074004430
         N           -4.674562969544    -0.812727600020     0.412816088201    14.003074004430
         C            2.700442030456     0.875261399980     0.559653088201    12.000000000000
         C            1.235691030456     1.106933399980     0.888031088201    12.000000000000
         C            2.650666030456    -0.392583600020    -0.285290911799    12.000000000000
         C            0.572805030456     0.682711399980    -0.414736911799    12.000000000000
         C            2.800945030456    -1.660308600020     0.522649088201    12.000000000000
         C           -1.128489969544    -1.116111600020    -0.308096911799    12.000000000000
         C           -1.745840969544     1.203599399980     0.082224088201    12.000000000000
         C           -2.409448669544    -1.496318900020    -0.105141311799    12.000000000000
         C           -3.363144969544    -0.473452600020     0.168690088201    12.000000000000
         H            3.333228030456     0.756492399980     1.451032088201     1.007825032230
         H            0.903554030456     0.443536399980     1.693668088201     1.007825032230
         H            0.984176030456     2.133774399980     1.158326088201     1.007825032230
         H            0.526301030456     1.512961399980    -1.124733911799     1.007825032230
         H            3.416339030456    -0.364575600020    -1.066446911799     1.007825032230
         H            1.969596030456    -1.733476600020     1.243402088201     1.007825032230
         H            3.744936030456    -1.609807600020     1.088468088201     1.007825032230
         H            3.102698030456     2.746031399980     0.178162088201     1.007825032230
         H           -0.311892969544    -1.789493600020    -0.543518911799     1.007825032230
         H            2.908877030456    -3.565364600020     0.119391088201     1.007825032230
         H           -2.704620969544    -2.549376600020    -0.153070911799     1.007825032230
         H           -5.029863969544    -1.638034600020    -0.056539911799     1.007825032230
         H           -5.300623969544    -0.014090600020     0.386280088201     1.007825032230

  Basis Set: AUG-CC-PVTZ
    Blend: AUG-CC-PVTZ
  Basis Set: (AUG-CC-PVTZ AUX)
    Blend: AUG-CC-PVTZ-JKFIT
	 Reference Energy          =    -811.4796343792467042 [Eh]
	 Singles Energy            =      -0.0000000000000000 [Eh]
	 Same-Spin Energy          =      -0.8296466177052290 [Eh]
	 Opposite-Spin Energy      =      -2.5248596657264315 [Eh]
	 Correlation Energy        =      -3.3545062834316606 [Eh]
	 Total Energy              =    -814.8341406626783510 [Eh]

	 ================> DF-SCS-MP2 Energies <==================
	-----------------------------------------------------------
	 SCS Same-Spin Scale       =       0.3333333333333333 [-]
	 SCS Opposite-Spin Scale   =       1.2000000000000000 [-]
	 SCS Same-Spin Energy      =      -0.2765488725684097 [Eh]
	 SCS Opposite-Spin Energy  =      -3.0298315988717177 [Eh]
	 SCS Correlation Energy    =      -3.3063804714401273 [Eh]
	 SCS Total Energy          =    -814.7860148506867972 [Eh]
	-----------------------------------------------------------

  Dipole Moment: [D]
     X:     0.9917      Y:    -4.7071      Z:     2.4968     Total:     5.4198

*** Psi4 exiting successfully. Buy a developer a beer!
