                               Psi4 1.3.2 release

  ==> Input File <==

--------------------------------------------------------------------------
#psi4
#
memory 32 gb

molecule  {
0 1
  O        1.3620710    -0.3800110    -0.9318440
  O        3.2020570     1.9012130    -0.2995130
  O        2.7994070    -2.7489470    -0.4002010
  O       -1.3621860     2.3740050     0.1547830
  N       -0.7982440     0.1994180    -0.2292560
  N       -3.0541720     0.8052390     0.2400120
  N       -4.6734100    -0.8124350     0.4126370
  C        2.7015950     0.8755540     0.5594740
  C        1.2368440     1.1072260     0.8878520
  C        2.6194853    -0.3672295    -0.3194949
  C        0.5739580     0.6830040    -0.4149160
  C        2.8020980    -1.6600160     0.5224700
  C       -1.1273370    -1.1158190    -0.3082760
  C       -1.7446880     1.2038920     0.0820450
  C       -2.4173070    -1.5045610    -0.1045420
  C       -3.3619920    -0.4731600     0.1685110
  H        3.3263246     0.7930293     1.4605752
  H        0.9047070     0.4438290     1.6934890
  H        0.9853290     2.1340670     1.1581470
  H        0.5274540     1.5132540    -1.1249130
  H        3.4174920    -0.3642830    -1.0666260
  H        1.9707490    -1.7331840     1.2432230
  H        3.7460890    -1.6095150     1.0882890
  H        3.1038510     2.7463240     0.1779830
  H       -0.3107400    -1.7892010    -0.5436980
  H        2.9100300    -3.5650720     0.1192120
  H       -2.7034680    -2.5490840    -0.1532500
  H       -5.0287110    -1.6377420    -0.0567190
  H       -5.2994710    -0.0137980     0.3861010
units angstrom
no_reorient  #important for SAPT in psi4, default
symmetry c1  #important for SAPT in psi4, default
}

set PROPERTIES_ORIGIN ["COM"]
properties('MP2/aug-cc-pvtz', properties = ['dipole'])
--------------------------------------------------------------------------

    Molecular point group: c1
  Charge       = 0
  Multiplicity = 1
  Basis Set: AUG-CC-PVTZ
    Blend: AUG-CC-PVTZ
  Basis Set: (AUG-CC-PVTZ AUX)
    Blend: AUG-CC-PVTZ-JKFIT

    Orbital Energies [Eh]
    ---------------------

    Doubly Occupied:

       1A    -20.578041     2A    -20.575461     3A    -20.572582
       4A    -20.504030     5A    -15.623217     6A    -15.589087
       7A    -15.541728     8A    -11.370992     9A    -11.345944
      10A    -11.333435    11A    -11.319498    12A    -11.299223
      13A    -11.294887    14A    -11.292455    15A    -11.238063
      16A    -11.236650    17A     -1.428748    18A     -1.383674
      19A     -1.371732    20A     -1.367052    21A     -1.293535
      22A     -1.263411    23A     -1.170225    24A     -1.080491
      25A     -1.065754    26A     -1.024634    27A     -0.924153
      28A     -0.898729    29A     -0.869001    30A     -0.833836
      31A     -0.807873    32A     -0.755225    33A     -0.741564
      34A     -0.721433    35A     -0.706599    36A     -0.692755
      37A     -0.688879    38A     -0.676401    39A     -0.657923
      40A     -0.636961    41A     -0.630109    42A     -0.618795
      43A     -0.605334    44A     -0.597133    45A     -0.589490
      46A     -0.574150    47A     -0.569820    48A     -0.545544
      49A     -0.534180    50A     -0.526276    51A     -0.508834
      52A     -0.486664    53A     -0.482052    54A     -0.466983
      55A     -0.457592    56A     -0.444158    57A     -0.434123
      58A     -0.417153    59A     -0.384546    60A     -0.335972

  @DF-RHF Final Energy:  -811.47761257616958

   => Energetics <=

    Nuclear Repulsion Energy =           1170.4837403203907797
    One-Electron Energy =               -3435.9531303187141020
    Two-Electron Energy =                1453.9917774221535183
    Total Energy =                       -811.4776125761695766
  Basis Set: (AUG-CC-PVTZ AUX)
    Blend: AUG-CC-PVTZ-RI
    Molecular point group: c1

    Geometry (in Angstrom), charge = 0, multiplicity = 1:

       Center              X                  Y                   Z               Mass
    ------------   -----------------  -----------------  -----------------  -----------------
         O            1.363815326790    -0.381496197177    -0.930089157283    15.994914619570
         O            3.203801326790     1.899727802823    -0.297758157283    15.994914619570
         O            2.801151326790    -2.750432197177    -0.398446157283    15.994914619570
         O           -1.360441673210     2.372519802823     0.156537842717    15.994914619570
         N           -0.796499673210     0.197932802823    -0.227501157283    14.003074004430
         N           -3.052427673210     0.803753802823     0.241766842717    14.003074004430
         N           -4.671665673210    -0.813920197177     0.414391842717    14.003074004430
         C            2.703339326790     0.874068802823     0.561228842717    12.000000000000
         C            1.238588326790     1.105740802823     0.889606842717    12.000000000000
         C            2.621229626790    -0.368714697177    -0.317740057283    12.000000000000
         C            0.575702326790     0.681518802823    -0.413161157283    12.000000000000
         C            2.803842326790    -1.661501197177     0.524224842717    12.000000000000
         C           -1.125592673210    -1.117304197177    -0.306521157283    12.000000000000
         C           -1.742943673210     1.202406802823     0.083799842717    12.000000000000
         C           -2.415562673210    -1.506046197177    -0.102787157283    12.000000000000
         C           -3.360247673210    -0.474645197177     0.170265842717    12.000000000000
         H            3.328068926790     0.791544102823     1.462330042717     1.007825032230
         H            0.906451326790     0.442343802823     1.695243842717     1.007825032230
         H            0.987073326790     2.132581802823     1.159901842717     1.007825032230
         H            0.529198326790     1.511768802823    -1.123158157283     1.007825032230
         H            3.419236326790    -0.365768197177    -1.064871157283     1.007825032230
         H            1.972493326790    -1.734669197177     1.244977842717     1.007825032230
         H            3.747833326790    -1.611000197177     1.090043842717     1.007825032230
         H            3.105595326790     2.744838802823     0.179737842717     1.007825032230
         H           -0.308995673210    -1.790686197177    -0.541943157283     1.007825032230
         H            2.911774326790    -3.566557197177     0.120966842717     1.007825032230
         H           -2.701723673210    -2.550569197177    -0.151495157283     1.007825032230
         H           -5.026966673210    -1.639227197177    -0.054964157283     1.007825032230
         H           -5.297726673210    -0.015283197177     0.387855842717     1.007825032230

  Basis Set: AUG-CC-PVTZ
    Blend: AUG-CC-PVTZ
  Basis Set: (AUG-CC-PVTZ AUX)
    Blend: AUG-CC-PVTZ-JKFIT
	 Reference Energy          =    -811.4776125761695766 [Eh]
	 Singles Energy            =      -0.0000000000000000 [Eh]
	 Same-Spin Energy          =      -0.8294661482932784 [Eh]
	 Opposite-Spin Energy      =      -2.5245822297741318 [Eh]
	 Correlation Energy        =      -3.3540483780674100 [Eh]
	 Total Energy              =    -814.8316609542370088 [Eh]

	 ================> DF-SCS-MP2 Energies <==================
	-----------------------------------------------------------
	 SCS Same-Spin Scale       =       0.3333333333333333 [-]
	 SCS Opposite-Spin Scale   =       1.2000000000000000 [-]
	 SCS Same-Spin Energy      =      -0.2764887160977594 [Eh]
	 SCS Opposite-Spin Energy  =      -3.0294986757289579 [Eh]
	 SCS Correlation Energy    =      -3.3059873918267173 [Eh]
	 SCS Total Energy          =    -814.7835999679963379 [Eh]
	-----------------------------------------------------------

  Dipole Moment: [D]
     X:     0.8856      Y:    -4.6017      Z:     2.4274     Total:     5.2775

*** Psi4 exiting successfully. Buy a developer a beer!
