                               Psi4 1.3.2 release

  ==> Input File <==

--------------------------------------------------------------------------
#psi4
#
memory 32 gb

molecule  {
0 1
  O        1.3620710    -0.3800110    -0.9318440
  O        3.2020570     1.9012130    -0.2995130
  O        2.7994070    -2.7489470    -0.4002010
  O       -1.3621860     2.3740050     0.1547830
  N       -0.7982440     0.1994180    -0.2292560
  N       -3.0541720     0.8052390     0.2400120
  N       -4.6734100    -0.8124350     0.4126370
  C        2.7015950     0.8755540     0.5594740
  C        1.2368440     1.1072260     0.8878520
  C        2.6518190    -0.3922910    -0.2854700
  C        0.5739580     0.6830040    -0.4149160
  C        2.8020980    -1.6600160     0.5224700
  C       -1.1273370    -1.1158190    -0.3082760
  C       -1.7446880     1.2038920     0.0820450
  C       -2.4173070    -1.5045610    -0.1045420
  C       -3.3619920    -0.4731600     0.1685110
  H        3.3343810     0.7567850     1.4508530
  H        0.9047070     0.4438290     1.6934890
  H        0.9853290     2.1340670     1.1581470
  H        0.5274540     1.5132540    -1.1249130
  H        3.3475155    -0.3668427    -0.9952345
  H        1.9707490    -1.7331840     1.2432230
  H        3.7460890    -1.6095150     1.0882890
  H        3.1038510     2.7463240     0.1779830
  H       -0.3107400    -1.7892010    -0.5436980
  H        2.9100300    -3.5650720     0.1192120
  H       -2.7034680    -2.5490840    -0.1532500
  H       -5.0287110    -1.6377420    -0.0567190
  H       -5.2994710    -0.0137980     0.3861010
units angstrom
no_reorient  #important for SAPT in psi4, default
symmetry c1  #important for SAPT in psi4, default
}

set PROPERTIES_ORIGIN ["COM"]
properties('MP2/aug-cc-pvtz', properties = ['dipole'])
--------------------------------------------------------------------------

    Molecular point group: c1
  Charge       = 0
  Multiplicity = 1
  Basis Set: AUG-CC-PVTZ
    Blend: AUG-CC-PVTZ
  Basis Set: (AUG-CC-PVTZ AUX)
    Blend: AUG-CC-PVTZ-JKFIT

    Orbital Energies [Eh]
    ---------------------

    Doubly Occupied:

       1A    -20.577949     2A    -20.574590     3A    -20.571844
       4A    -20.502829     5A    -15.621425     6A    -15.588196
       7A    -15.540598     8A    -11.369658     9A    -11.344841
      10A    -11.330294    11A    -11.318057    12A    -11.300369
      13A    -11.296321    14A    -11.281694    15A    -11.236808
      16A    -11.236396    17A     -1.416432    18A     -1.382357
      19A     -1.373801    20A     -1.365659    21A     -1.292023
      22A     -1.261239    23A     -1.168954    24A     -1.078750
      25A     -1.070959    26A     -1.030423    27A     -0.926569
      28A     -0.898097    29A     -0.869803    30A     -0.830546
      31A     -0.816395    32A     -0.754558    33A     -0.738559
      34A     -0.722077    35A     -0.706716    36A     -0.696493
      37A     -0.689444    38A     -0.676509    39A     -0.656427
      40A     -0.636984    41A     -0.627421    42A     -0.618388
      43A     -0.605323    44A     -0.596940    45A     -0.588599
      46A     -0.576389    47A     -0.571765    48A     -0.545049
      49A     -0.532343    50A     -0.523904    51A     -0.511113
      52A     -0.487006    53A     -0.482428    54A     -0.468756
      55A     -0.461727    56A     -0.445028    57A     -0.438128
      58A     -0.416218    59A     -0.383567    60A     -0.334709

  @DF-RHF Final Energy:  -811.47390439502544

   => Energetics <=

    Nuclear Repulsion Energy =           1170.6072703678908056
    One-Electron Energy =               -3436.2294571814918527
    Two-Electron Energy =                1454.1482824185754907
    Total Energy =                       -811.4739043950253290
  Basis Set: (AUG-CC-PVTZ AUX)
    Blend: AUG-CC-PVTZ-RI
    Molecular point group: c1

    Geometry (in Angstrom), charge = 0, multiplicity = 1:

       Center              X                  Y                   Z               Mass
    ------------   -----------------  -----------------  -----------------  -----------------
         O            1.362381538845    -0.379999677137    -0.932160800284    15.994914619570
         O            3.202367538845     1.901224322863    -0.299829800284    15.994914619570
         O            2.799717538845    -2.748935677137    -0.400517800284    15.994914619570
         O           -1.361875461155     2.374016322863     0.154466199716    15.994914619570
         N           -0.797933461155     0.199429322863    -0.229572800284    14.003074004430
         N           -3.053861461155     0.805250322863     0.239695199716    14.003074004430
         N           -4.673099461155    -0.812423677137     0.412320199716    14.003074004430
         C            2.701905538845     0.875565322863     0.559157199716    12.000000000000
         C            1.237154538845     1.107237322863     0.887535199716    12.000000000000
         C            2.652129538845    -0.392279677137    -0.285786800284    12.000000000000
         C            0.574268538845     0.683015322863    -0.415232800284    12.000000000000
         C            2.802408538845    -1.660004677137     0.522153199716    12.000000000000
         C           -1.127026461155    -1.115807677137    -0.308592800284    12.000000000000
         C           -1.744377461155     1.203903322863     0.081728199716    12.000000000000
         C           -2.416996461155    -1.504549677137    -0.104858800284    12.000000000000
         C           -3.361681461155    -0.473148677137     0.168194199716    12.000000000000
         H            3.334691538845     0.756796322863     1.450536199716     1.007825032230
         H            0.905017538845     0.443840322863     1.693172199716     1.007825032230
         H            0.985639538845     2.134078322863     1.157830199716     1.007825032230
         H            0.527764538845     1.513265322863    -1.125229800284     1.007825032230
         H            3.347826038845    -0.366831377137    -0.995551300284     1.007825032230
         H            1.971059538845    -1.733172677137     1.242906199716     1.007825032230
         H            3.746399538845    -1.609503677137     1.087972199716     1.007825032230
         H            3.104161538845     2.746335322863     0.177666199716     1.007825032230
         H           -0.310429461155    -1.789189677137    -0.544014800284     1.007825032230
         H            2.910340538845    -3.565060677137     0.118895199716     1.007825032230
         H           -2.703157461155    -2.549072677137    -0.153566800284     1.007825032230
         H           -5.028400461155    -1.637730677137    -0.057035800284     1.007825032230
         H           -5.299160461155    -0.013786677137     0.385784199716     1.007825032230

  Basis Set: AUG-CC-PVTZ
    Blend: AUG-CC-PVTZ
  Basis Set: (AUG-CC-PVTZ AUX)
    Blend: AUG-CC-PVTZ-JKFIT
	 Reference Energy          =    -811.4739043950254427 [Eh]
	 Singles Energy            =      -0.0000000000000000 [Eh]
	 Same-Spin Energy          =      -0.8294045088693237 [Eh]
	 Opposite-Spin Energy      =      -2.5243353656759853 [Eh]
	 Correlation Energy        =      -3.3537398745453091 [Eh]
	 Total Energy              =    -814.8276442695707829 [Eh]

	 ================> DF-SCS-MP2 Energies <==================
	-----------------------------------------------------------
	 SCS Same-Spin Scale       =       0.3333333333333333 [-]
	 SCS Opposite-Spin Scale   =       1.2000000000000000 [-]
	 SCS Same-Spin Energy      =      -0.2764681696231079 [Eh]
	 SCS Opposite-Spin Energy  =      -3.0292024388111822 [Eh]
	 SCS Correlation Energy    =      -3.3056706084342902 [Eh]
	 SCS Total Energy          =    -814.7795750034597404 [Eh]
	-----------------------------------------------------------

  Dipole Moment: [D]
     X:     1.1120      Y:    -4.6832      Z:     2.4892     Total:     5.4189

*** Psi4 exiting successfully. Buy a developer a beer!
