                               Psi4 1.3.2 release

  ==> Input File <==

--------------------------------------------------------------------------
#psi4
#
memory 32 gb

molecule  {
0 1
  O        1.3620710    -0.3800110    -0.9318440
  O        3.2020570     1.9012130    -0.2995130
  O        2.7994070    -2.7489470    -0.4002010
  O       -1.3621860     2.3740050     0.1547830
  N       -0.7982440     0.1994180    -0.2292560
  N       -3.0541720     0.8052390     0.2400120
  N       -4.6734100    -0.8124350     0.4126370
  C        2.6946202     0.8672673     0.5352786
  C        1.2368440     1.1072260     0.8878520
  C        2.6518190    -0.3922910    -0.2854700
  C        0.5978946     0.6774879    -0.4250286
  C        2.8020980    -1.6600160     0.5224700
  C       -1.1273370    -1.1158190    -0.3082760
  C       -1.7446880     1.2038920     0.0820450
  C       -2.4173070    -1.5045610    -0.1045420
  C       -3.3619920    -0.4731600     0.1685110
  H        3.3343810     0.7567850     1.4508530
  H        0.9047070     0.4438290     1.6934890
  H        0.9853290     2.1340670     1.1581470
  H        0.5274540     1.5132540    -1.1249130
  H        3.4174920    -0.3642830    -1.0666260
  H        1.9707490    -1.7331840     1.2432230
  H        3.7460890    -1.6095150     1.0882890
  H        3.1038510     2.7463240     0.1779830
  H       -0.3107400    -1.7892010    -0.5436980
  H        2.9100300    -3.5650720     0.1192120
  H       -2.7034680    -2.5490840    -0.1532500
  H       -5.0287110    -1.6377420    -0.0567190
  H       -5.2994710    -0.0137980     0.3861010
units angstrom
no_reorient  #important for SAPT in psi4, default
symmetry c1  #important for SAPT in psi4, default
}

set PROPERTIES_ORIGIN ["COM"]
properties('MP2/aug-cc-pvtz', properties = ['dipole'])
--------------------------------------------------------------------------

    Molecular point group: c1
  Charge       = 0
  Multiplicity = 1
  Basis Set: AUG-CC-PVTZ
    Blend: AUG-CC-PVTZ
  Basis Set: (AUG-CC-PVTZ AUX)
    Blend: AUG-CC-PVTZ-JKFIT

    Orbital Energies [Eh]
    ---------------------

    Doubly Occupied:

       1A    -20.579127     2A    -20.576111     3A    -20.575193
       4A    -20.501485     5A    -15.619516     6A    -15.587301
       7A    -15.539598     8A    -11.368409     9A    -11.343735
      10A    -11.331317    11A    -11.316721    12A    -11.302236
      13A    -11.298698    14A    -11.294452    15A    -11.236933
      16A    -11.235542    17A     -1.424063    18A     -1.381249
      19A     -1.375530    20A     -1.368788    21A     -1.290550
      22A     -1.258384    23A     -1.167362    24A     -1.080398
      25A     -1.069886    26A     -1.029285    27A     -0.926257
      28A     -0.896394    29A     -0.868432    30A     -0.832051
      31A     -0.806127    32A     -0.752704    33A     -0.737561
      34A     -0.723386    35A     -0.706450    36A     -0.695052
      37A     -0.691089    38A     -0.676570    39A     -0.657041
      40A     -0.637436    41A     -0.626017    42A     -0.617996
      43A     -0.604501    44A     -0.596261    45A     -0.588768
      46A     -0.571802    47A     -0.569744    48A     -0.546477
      49A     -0.532448    50A     -0.525917    51A     -0.511582
      52A     -0.489520    53A     -0.481650    54A     -0.469721
      55A     -0.459674    56A     -0.443128    57A     -0.438262
      58A     -0.414612    59A     -0.382627    60A     -0.333333

  @DF-RHF Final Energy:  -811.47835001714498

   => Energetics <=

    Nuclear Repulsion Energy =           1170.4294866356904095
    One-Electron Energy =               -3435.8907506706668755
    Two-Electron Energy =                1453.9829140178314901
    Total Energy =                       -811.4783500171449759
  Basis Set: (AUG-CC-PVTZ AUX)
    Blend: AUG-CC-PVTZ-RI
    Molecular point group: c1

    Geometry (in Angstrom), charge = 0, multiplicity = 1:

       Center              X                  Y                   Z               Mass
    ------------   -----------------  -----------------  -----------------  -----------------
         O            1.361174682810    -0.379281664740    -0.930031050624    15.994914619570
         O            3.201160682810     1.901942335260    -0.297700050624    15.994914619570
         O            2.798510682810    -2.748217664740    -0.398388050624    15.994914619570
         O           -1.363082317190     2.374734335260     0.156595949376    15.994914619570
         N           -0.799140317190     0.200147335260    -0.227443050624    14.003074004430
         N           -3.055068317190     0.805968335260     0.241824949376    14.003074004430
         N           -4.674306317190    -0.811705664740     0.414449949376    14.003074004430
         C            2.693723882810     0.867996635260     0.537091549376    12.000000000000
         C            1.235947682810     1.107955335260     0.889664949376    12.000000000000
         C            2.650922682810    -0.391561664740    -0.283657050624    12.000000000000
         C            0.596998282810     0.678217235260    -0.423215650624    12.000000000000
         C            2.801201682810    -1.659286664740     0.524282949376    12.000000000000
         C           -1.128233317190    -1.115089664740    -0.306463050624    12.000000000000
         C           -1.745584317190     1.204621335260     0.083857949376    12.000000000000
         C           -2.418203317190    -1.503831664740    -0.102729050624    12.000000000000
         C           -3.362888317190    -0.472430664740     0.170323949376    12.000000000000
         H            3.333484682810     0.757514335260     1.452665949376     1.007825032230
         H            0.903810682810     0.444558335260     1.695301949376     1.007825032230
         H            0.984432682810     2.134796335260     1.159959949376     1.007825032230
         H            0.526557682810     1.513983335260    -1.123100050624     1.007825032230
         H            3.416595682810    -0.363553664740    -1.064813050624     1.007825032230
         H            1.969852682810    -1.732454664740     1.245035949376     1.007825032230
         H            3.745192682810    -1.608785664740     1.090101949376     1.007825032230
         H            3.102954682810     2.747053335260     0.179795949376     1.007825032230
         H           -0.311636317190    -1.788471664740    -0.541885050624     1.007825032230
         H            2.909133682810    -3.564342664740     0.121024949376     1.007825032230
         H           -2.704364317190    -2.548354664740    -0.151437050624     1.007825032230
         H           -5.029607317190    -1.637012664740    -0.054906050624     1.007825032230
         H           -5.300367317190    -0.013068664740     0.387913949376     1.007825032230

  Basis Set: AUG-CC-PVTZ
    Blend: AUG-CC-PVTZ
  Basis Set: (AUG-CC-PVTZ AUX)
    Blend: AUG-CC-PVTZ-JKFIT
	 Reference Energy          =    -811.4783500171449759 [Eh]
	 Singles Energy            =      -0.0000000000000000 [Eh]
	 Same-Spin Energy          =      -0.8297509291879668 [Eh]
	 Opposite-Spin Energy      =      -2.5248562287008331 [Eh]
	 Correlation Energy        =      -3.3546071578887999 [Eh]
	 Total Energy              =    -814.8329571750338118 [Eh]

	 ================> DF-SCS-MP2 Energies <==================
	-----------------------------------------------------------
	 SCS Same-Spin Scale       =       0.3333333333333333 [-]
	 SCS Opposite-Spin Scale   =       1.2000000000000000 [-]
	 SCS Same-Spin Energy      =      -0.2765836430626556 [Eh]
	 SCS Opposite-Spin Energy  =      -3.0298274744409999 [Eh]
	 SCS Correlation Energy    =      -3.3064111175036555 [Eh]
	 SCS Total Energy          =    -814.7847611346486474 [Eh]
	-----------------------------------------------------------

  Dipole Moment: [D]
     X:     1.2518      Y:    -4.7042      Z:     2.4384     Total:     5.4445

*** Psi4 exiting successfully. Buy a developer a beer!
