                               Psi4 1.3.2 release

  ==> Input File <==

--------------------------------------------------------------------------
#psi4
#
memory 32 gb

molecule  {
0 1
  O        1.3519201    -0.3364017    -0.9087993
  O        3.2020570     1.9012130    -0.2995130
  O        2.7994070    -2.7489470    -0.4002010
  O       -1.3621860     2.3740050     0.1547830
  N       -0.7982440     0.1994180    -0.2292560
  N       -3.0541720     0.8052390     0.2400120
  N       -4.6734100    -0.8124350     0.4126370
  C        2.6526510     0.8876815     0.5424845
  C        1.2368440     1.1072260     0.8878520
  C        2.6518190    -0.3922910    -0.2854700
  C        0.5739580     0.6830040    -0.4149160
  C        2.8020980    -1.6600160     0.5224700
  C       -1.1273370    -1.1158190    -0.3082760
  C       -1.7446880     1.2038920     0.0820450
  C       -2.4173070    -1.5045610    -0.1045420
  C       -3.3619920    -0.4731600     0.1685110
  H        3.3343810     0.7567850     1.4508530
  H        0.9047070     0.4438290     1.6934890
  H        0.9853290     2.1340670     1.1581470
  H        0.5274540     1.5132540    -1.1249130
  H        3.4174920    -0.3642830    -1.0666260
  H        1.9707490    -1.7331840     1.2432230
  H        3.7460890    -1.6095150     1.0882890
  H        3.1038510     2.7463240     0.1779830
  H       -0.3107400    -1.7892010    -0.5436980
  H        2.9100300    -3.5650720     0.1192120
  H       -2.7034680    -2.5490840    -0.1532500
  H       -5.0287110    -1.6377420    -0.0567190
  H       -5.2994710    -0.0137980     0.3861010
units angstrom
no_reorient  #important for SAPT in psi4, default
symmetry c1  #important for SAPT in psi4, default
}

set PROPERTIES_ORIGIN ["COM"]
properties('MP2/aug-cc-pvtz', properties = ['dipole'])
--------------------------------------------------------------------------

    Molecular point group: c1
  Charge       = 0
  Multiplicity = 1
  Basis Set: AUG-CC-PVTZ
    Blend: AUG-CC-PVTZ
  Basis Set: (AUG-CC-PVTZ AUX)
    Blend: AUG-CC-PVTZ-JKFIT

    Orbital Energies [Eh]
    ---------------------

    Doubly Occupied:

       1A    -20.579636     2A    -20.574321     3A    -20.570625
       4A    -20.502242     5A    -15.620343     6A    -15.588045
       7A    -15.540345     8A    -11.369112     9A    -11.344638
      10A    -11.326930    11A    -11.318275    12A    -11.301080
      13A    -11.298949    14A    -11.295764    15A    -11.236841
      16A    -11.233255    17A     -1.430104    18A     -1.382228
      19A     -1.375020    20A     -1.368883    21A     -1.291749
      22A     -1.260848    23A     -1.168607    24A     -1.082488
      25A     -1.071426    26A     -1.032062    27A     -0.928498
      28A     -0.897970    29A     -0.867734    30A     -0.831836
      31A     -0.804961    32A     -0.754481    33A     -0.739521
      34A     -0.724750    35A     -0.706276    36A     -0.695972
      37A     -0.689844    38A     -0.678570    39A     -0.658833
      40A     -0.639199    41A     -0.626442    42A     -0.619492
      43A     -0.604946    44A     -0.596556    45A     -0.590425
      46A     -0.574365    47A     -0.572526    48A     -0.545245
      49A     -0.530626    50A     -0.524618    51A     -0.510540
      52A     -0.486063    53A     -0.481743    54A     -0.469446
      55A     -0.460179    56A     -0.443874    57A     -0.436295
      58A     -0.415380    59A     -0.382873    60A     -0.334229

  @DF-RHF Final Energy:  -811.47584480943465

   => Energetics <=

    Nuclear Repulsion Energy =           1172.1817741791192020
    One-Electron Energy =               -3439.3389893540493176
    Two-Electron Energy =                1455.6813703654954679
    Total Energy =                       -811.4758448094346477
  Basis Set: (AUG-CC-PVTZ AUX)
    Blend: AUG-CC-PVTZ-RI
    Molecular point group: c1

    Geometry (in Angstrom), charge = 0, multiplicity = 1:

       Center              X                  Y                   Z               Mass
    ------------   -----------------  -----------------  -----------------  -----------------
         O            1.355221368945    -0.340114162877    -0.909524632675    15.994914619570
         O            3.205358268945     1.897500537123    -0.300238332675    15.994914619570
         O            2.802708268945    -2.752659462877    -0.400926332675    15.994914619570
         O           -1.358884731055     2.370292537123     0.154057667325    15.994914619570
         N           -0.794942731055     0.195705537123    -0.229981332675    14.003074004430
         N           -3.050870731055     0.801526537123     0.239286667325    14.003074004430
         N           -4.670108731055    -0.816147462877     0.411911667325    14.003074004430
         C            2.655952268945     0.883969037123     0.541759167325    12.000000000000
         C            1.240145268945     1.103513537123     0.887126667325    12.000000000000
         C            2.655120268945    -0.396003462877    -0.286195332675    12.000000000000
         C            0.577259268945     0.679291537123    -0.415641332675    12.000000000000
         C            2.805399268945    -1.663728462877     0.521744667325    12.000000000000
         C           -1.124035731055    -1.119531462877    -0.309001332675    12.000000000000
         C           -1.741386731055     1.200179537123     0.081319667325    12.000000000000
         C           -2.414005731055    -1.508273462877    -0.105267332675    12.000000000000
         C           -3.358690731055    -0.476872462877     0.167785667325    12.000000000000
         H            3.337682268945     0.753072537123     1.450127667325     1.007825032230
         H            0.908008268945     0.440116537123     1.692763667325     1.007825032230
         H            0.988630268945     2.130354537123     1.157421667325     1.007825032230
         H            0.530755268945     1.509541537123    -1.125638332675     1.007825032230
         H            3.420793268945    -0.367995462877    -1.067351332675     1.007825032230
         H            1.974050268945    -1.736896462877     1.242497667325     1.007825032230
         H            3.749390268945    -1.613227462877     1.087563667325     1.007825032230
         H            3.107152268945     2.742611537123     0.177257667325     1.007825032230
         H           -0.307438731055    -1.792913462877    -0.544423332675     1.007825032230
         H            2.913331268945    -3.568784462877     0.118486667325     1.007825032230
         H           -2.700166731055    -2.552796462877    -0.153975332675     1.007825032230
         H           -5.025409731055    -1.641454462877    -0.057444332675     1.007825032230
         H           -5.296169731055    -0.017510462877     0.385375667325     1.007825032230

  Basis Set: AUG-CC-PVTZ
    Blend: AUG-CC-PVTZ
  Basis Set: (AUG-CC-PVTZ AUX)
    Blend: AUG-CC-PVTZ-JKFIT
	 Reference Energy          =    -811.4758448094346477 [Eh]
	 Singles Energy            =      -0.0000000000000000 [Eh]
	 Same-Spin Energy          =      -0.8298425037996204 [Eh]
	 Opposite-Spin Energy      =      -2.5242550965617347 [Eh]
	 Correlation Energy        =      -3.3540976003613552 [Eh]
	 Total Energy              =    -814.8299424097959900 [Eh]

	 ================> DF-SCS-MP2 Energies <==================
	-----------------------------------------------------------
	 SCS Same-Spin Scale       =       0.3333333333333333 [-]
	 SCS Opposite-Spin Scale   =       1.2000000000000000 [-]
	 SCS Same-Spin Energy      =      -0.2766141679332068 [Eh]
	 SCS Opposite-Spin Energy  =      -3.0291061158740815 [Eh]
	 SCS Correlation Energy    =      -3.3057202838072883 [Eh]
	 SCS Total Energy          =    -814.7815650932419658 [Eh]
	-----------------------------------------------------------

  Dipole Moment: [D]
     X:     1.1197      Y:    -4.8142      Z:     2.3947     Total:     5.4922

*** Psi4 exiting successfully. Buy a developer a beer!
