                               Psi4 1.3.2 release

  ==> Input File <==

--------------------------------------------------------------------------
#psi4
#
memory 32 gb

molecule  {
0 1
  O        1.3620710    -0.3800110    -0.9318440
  O        3.2020570     1.9012130    -0.2995130
  O        2.7994070    -2.7489470    -0.4002010
  O       -1.3621860     2.3740050     0.1547830
  N       -0.7982440     0.1994180    -0.2292560
  N       -3.0541720     0.8052390     0.2400120
  N       -4.6734100    -0.8124350     0.4126370
  C        2.7015950     0.8755540     0.5594740
  C        1.2368440     1.1072260     0.8878520
  C        2.6518190    -0.3922910    -0.2854700
  C        0.5739580     0.6830040    -0.4149160
  C        2.8020980    -1.6600160     0.5224700
  C       -1.1273370    -1.1158190    -0.3082760
  C       -1.7446880     1.2038920     0.0820450
  C       -2.4173070    -1.5045610    -0.1045420
  C       -3.4945744    -0.3284073     0.2068328
  H        3.3343810     0.7567850     1.4508530
  H        0.9047070     0.4438290     1.6934890
  H        0.9853290     2.1340670     1.1581470
  H        0.5274540     1.5132540    -1.1249130
  H        3.4174920    -0.3642830    -1.0666260
  H        1.9707490    -1.7331840     1.2432230
  H        3.7460890    -1.6095150     1.0882890
  H        3.1038510     2.7463240     0.1779830
  H       -0.3107400    -1.7892010    -0.5436980
  H        2.9100300    -3.5650720     0.1192120
  H       -2.7034680    -2.5490840    -0.1532500
  H       -5.0287110    -1.6377420    -0.0567190
  H       -5.2994710    -0.0137980     0.3861010
units angstrom
no_reorient  #important for SAPT in psi4, default
symmetry c1  #important for SAPT in psi4, default
}

set PROPERTIES_ORIGIN ["COM"]
properties('MP2/aug-cc-pvtz', properties = ['dipole'])
--------------------------------------------------------------------------

    Molecular point group: c1
  Charge       = 0
  Multiplicity = 1
  Basis Set: AUG-CC-PVTZ
    Blend: AUG-CC-PVTZ
  Basis Set: (AUG-CC-PVTZ AUX)
    Blend: AUG-CC-PVTZ-JKFIT

    Orbital Energies [Eh]
    ---------------------

    Doubly Occupied:

       1A    -20.573568     2A    -20.571438     3A    -20.567382
       4A    -20.513013     5A    -15.607711     6A    -15.600976
       7A    -15.538345     8A    -11.381618     9A    -11.346580
      10A    -11.325015    11A    -11.297256    12A    -11.294828
      13A    -11.292629    14A    -11.288863    15A    -11.233563
      16A    -11.232631    17A     -1.411898    18A     -1.386471
      19A     -1.369846    20A     -1.362918    21A     -1.320398
      22A     -1.266075    23A     -1.208061    24A     -1.071988
      25A     -1.052353    26A     -1.010813    27A     -0.924361
      28A     -0.884195    29A     -0.872152    30A     -0.830818
      31A     -0.801641    32A     -0.761168    33A     -0.746976
      34A     -0.729227    35A     -0.715724    36A     -0.691028
      37A     -0.687353    38A     -0.674136    39A     -0.652626
      40A     -0.633308    41A     -0.628864    42A     -0.609849
      43A     -0.599698    44A     -0.596801    45A     -0.575582
      46A     -0.571660    47A     -0.565036    48A     -0.549359
      49A     -0.537956    50A     -0.518404    51A     -0.509755
      52A     -0.481762    53A     -0.478390    54A     -0.464305
      55A     -0.457645    56A     -0.444532    57A     -0.431948
      58A     -0.400990    59A     -0.396783    60A     -0.321004

  @DF-RHF Final Energy:  -811.43817799535520

   => Energetics <=

    Nuclear Repulsion Energy =           1169.2605271584841375
    One-Electron Energy =               -3433.6548640864270965
    Two-Electron Energy =                1452.9561589325880959
    Total Energy =                       -811.4381779953550904
  Basis Set: (AUG-CC-PVTZ AUX)
    Blend: AUG-CC-PVTZ-RI
    Molecular point group: c1

    Geometry (in Angstrom), charge = 0, multiplicity = 1:

       Center              X                  Y                   Z               Mass
    ------------   -----------------  -----------------  -----------------  -----------------
         O            1.369076948924    -0.387660109072    -0.933868979527    15.994914619570
         O            3.209062948924     1.893563890928    -0.301537979527    15.994914619570
         O            2.806412948924    -2.756596109072    -0.402225979527    15.994914619570
         O           -1.355180051076     2.366355890928     0.152758020473    15.994914619570
         N           -0.791238051076     0.191768890928    -0.231280979527    14.003074004430
         N           -3.047166051076     0.797589890928     0.237987020473    14.003074004430
         N           -4.666404051076    -0.820084109072     0.410612020473    14.003074004430
         C            2.708600948924     0.867904890928     0.557449020473    12.000000000000
         C            1.243849948924     1.099576890928     0.885827020473    12.000000000000
         C            2.658824948924    -0.399940109072    -0.287494979527    12.000000000000
         C            0.580963948924     0.675354890928    -0.416940979527    12.000000000000
         C            2.809103948924    -1.667665109072     0.520445020473    12.000000000000
         C           -1.120331051076    -1.123468109072    -0.310300979527    12.000000000000
         C           -1.737682051076     1.196242890928     0.080020020473    12.000000000000
         C           -2.410301051076    -1.512210109072    -0.106566979527    12.000000000000
         C           -3.487568451076    -0.336056409072     0.204807820473    12.000000000000
         H            3.341386948924     0.749135890928     1.448828020473     1.007825032230
         H            0.911712948924     0.436179890928     1.691464020473     1.007825032230
         H            0.992334948924     2.126417890928     1.156122020473     1.007825032230
         H            0.534459948924     1.505604890928    -1.126937979527     1.007825032230
         H            3.424497948924    -0.371932109072    -1.068650979527     1.007825032230
         H            1.977754948924    -1.740833109072     1.241198020473     1.007825032230
         H            3.753094948924    -1.617164109072     1.086264020473     1.007825032230
         H            3.110856948924     2.738674890928     0.175958020473     1.007825032230
         H           -0.303734051076    -1.796850109072    -0.545722979527     1.007825032230
         H            2.917035948924    -3.572721109072     0.117187020473     1.007825032230
         H           -2.696462051076    -2.556733109072    -0.155274979527     1.007825032230
         H           -5.021705051076    -1.645391109072    -0.058743979527     1.007825032230
         H           -5.292465051076    -0.021447109072     0.384076020473     1.007825032230

  Basis Set: AUG-CC-PVTZ
    Blend: AUG-CC-PVTZ
  Basis Set: (AUG-CC-PVTZ AUX)
    Blend: AUG-CC-PVTZ-JKFIT
	 Reference Energy          =    -811.4381779953552041 [Eh]
	 Singles Energy            =      -0.0000000000000000 [Eh]
	 Same-Spin Energy          =      -0.8282842405012663 [Eh]
	 Opposite-Spin Energy      =      -2.5248631591812396 [Eh]
	 Correlation Energy        =      -3.3531473996825056 [Eh]
	 Total Energy              =    -814.7913253950376884 [Eh]

	 ================> DF-SCS-MP2 Energies <==================
	-----------------------------------------------------------
	 SCS Same-Spin Scale       =       0.3333333333333333 [-]
	 SCS Opposite-Spin Scale   =       1.2000000000000000 [-]
	 SCS Same-Spin Energy      =      -0.2760947468337554 [Eh]
	 SCS Opposite-Spin Energy  =      -3.0298357910174873 [Eh]
	 SCS Correlation Energy    =      -3.3059305378512427 [Eh]
	 SCS Total Energy          =    -814.7441085332064858 [Eh]
	-----------------------------------------------------------

  Dipole Moment: [D]
     X:    -0.0932      Y:    -4.1901      Z:     2.7065     Total:     4.9891

*** Psi4 exiting successfully. Buy a developer a beer!
