                               Psi4 1.3.2 release

  ==> Input File <==

--------------------------------------------------------------------------
#psi4
#
memory 32 gb

molecule  {
0 1
  O        1.3697954    -0.3531944    -0.9728347
  O        3.2020570     1.9012130    -0.2995130
  O        2.7994070    -2.7489470    -0.4002010
  O       -1.3621860     2.3740050     0.1547830
  N       -0.7982440     0.1994180    -0.2292560
  N       -3.0541720     0.8052390     0.2400120
  N       -4.6734100    -0.8124350     0.4126370
  C        2.7015950     0.8755540     0.5594740
  C        1.2368440     1.1072260     0.8878520
  C        2.6518190    -0.3922910    -0.2854700
  C        0.5739580     0.6830040    -0.4149160
  C        2.8020980    -1.6600160     0.5224700
  C       -1.1273370    -1.1158190    -0.3082760
  C       -1.7446880     1.2038920     0.0820450
  C       -2.4173070    -1.5045610    -0.1045420
  C       -3.3619920    -0.4731600     0.1685110
  H        3.3343810     0.7567850     1.4508530
  H        0.9047070     0.4438290     1.6934890
  H        0.9853290     2.1340670     1.1581470
  H        0.5495133     1.4932199    -1.1487593
  H        3.4174920    -0.3642830    -1.0666260
  H        1.9707490    -1.7331840     1.2432230
  H        3.7460890    -1.6095150     1.0882890
  H        3.1038510     2.7463240     0.1779830
  H       -0.3107400    -1.7892010    -0.5436980
  H        2.9100300    -3.5650720     0.1192120
  H       -2.7034680    -2.5490840    -0.1532500
  H       -5.0287110    -1.6377420    -0.0567190
  H       -5.2994710    -0.0137980     0.3861010
units angstrom
no_reorient  #important for SAPT in psi4, default
symmetry c1  #important for SAPT in psi4, default
}

set PROPERTIES_ORIGIN ["COM"]
properties('MP2/aug-cc-pvtz', properties = ['dipole'])
--------------------------------------------------------------------------

    Molecular point group: c1
  Charge       = 0
  Multiplicity = 1
  Basis Set: AUG-CC-PVTZ
    Blend: AUG-CC-PVTZ
  Basis Set: (AUG-CC-PVTZ AUX)
    Blend: AUG-CC-PVTZ-JKFIT

    Orbital Energies [Eh]
    ---------------------

    Doubly Occupied:

       1A    -20.578367     2A    -20.574237     3A    -20.571963
       4A    -20.502690     5A    -15.621853     6A    -15.588451
       7A    -15.540854     8A    -11.369785     9A    -11.345160
      10A    -11.329496    11A    -11.318833    12A    -11.301237
      13A    -11.298267    14A    -11.293766    15A    -11.237624
      16A    -11.237327    17A     -1.413252    18A     -1.382066
      19A     -1.373897    20A     -1.364912    21A     -1.292142
      22A     -1.261261    23A     -1.169044    24A     -1.079292
      25A     -1.069303    26A     -1.027458    27A     -0.927053
      28A     -0.897348    29A     -0.868864    30A     -0.830392
      31A     -0.805842    32A     -0.754551    33A     -0.738544
      34A     -0.720679    35A     -0.706986    36A     -0.692785
      37A     -0.689951    38A     -0.674336    39A     -0.655252
      40A     -0.637279    41A     -0.627346    42A     -0.618884
      43A     -0.604359    44A     -0.594933    45A     -0.588983
      46A     -0.572558    47A     -0.565621    48A     -0.545487
      49A     -0.532515    50A     -0.522803    51A     -0.510867
      52A     -0.486540    53A     -0.482371    54A     -0.469037
      55A     -0.461035    56A     -0.444380    57A     -0.437736
      58A     -0.416123    59A     -0.383801    60A     -0.334986

  @DF-RHF Final Energy:  -811.47826604281966

   => Energetics <=

    Nuclear Repulsion Energy =           1169.1417294407970076
    One-Electron Energy =               -3433.3544617746438234
    Two-Electron Energy =                1452.7344662910270472
    Total Energy =                       -811.4782660428197687
  Basis Set: (AUG-CC-PVTZ AUX)
    Blend: AUG-CC-PVTZ-RI
    Molecular point group: c1

    Geometry (in Angstrom), charge = 0, multiplicity = 1:

       Center              X                  Y                   Z               Mass
    ------------   -----------------  -----------------  -----------------  -----------------
         O            1.369153424316    -0.354994328149    -0.969841694568    15.994914619570
         O            3.201415024316     1.899413071851    -0.296519994568    15.994914619570
         O            2.798765024316    -2.750746928149    -0.397207994568    15.994914619570
         O           -1.362827975684     2.372205071851     0.157776005432    15.994914619570
         N           -0.798885975684     0.197618071851    -0.226262994568    14.003074004430
         N           -3.054813975684     0.803439071851     0.243005005432    14.003074004430
         N           -4.674051975684    -0.814234928149     0.415630005432    14.003074004430
         C            2.700953024316     0.873754071851     0.562467005432    12.000000000000
         C            1.236202024316     1.105426071851     0.890845005432    12.000000000000
         C            2.651177024316    -0.394090928149    -0.282476994568    12.000000000000
         C            0.573316024316     0.681204071851    -0.411922994568    12.000000000000
         C            2.801456024316    -1.661815928149     0.525463005432    12.000000000000
         C           -1.127978975684    -1.117618928149    -0.305282994568    12.000000000000
         C           -1.745329975684     1.202092071851     0.085038005432    12.000000000000
         C           -2.417948975684    -1.506360928149    -0.101548994568    12.000000000000
         C           -3.362633975684    -0.474959928149     0.171504005432    12.000000000000
         H            3.333739024316     0.754985071851     1.453846005432     1.007825032230
         H            0.904065024316     0.442029071851     1.696482005432     1.007825032230
         H            0.984687024316     2.132267071851     1.161140005432     1.007825032230
         H            0.548871324316     1.491419971851    -1.145766294568     1.007825032230
         H            3.416850024316    -0.366082928149    -1.063632994568     1.007825032230
         H            1.970107024316    -1.734983928149     1.246216005432     1.007825032230
         H            3.745447024316    -1.611314928149     1.091282005432     1.007825032230
         H            3.103209024316     2.744524071851     0.180976005432     1.007825032230
         H           -0.311381975684    -1.791000928149    -0.540704994568     1.007825032230
         H            2.909388024316    -3.566871928149     0.122205005432     1.007825032230
         H           -2.704109975684    -2.550883928149    -0.150256994568     1.007825032230
         H           -5.029352975684    -1.639541928149    -0.053725994568     1.007825032230
         H           -5.300112975684    -0.015597928149     0.389094005432     1.007825032230

  Basis Set: AUG-CC-PVTZ
    Blend: AUG-CC-PVTZ
  Basis Set: (AUG-CC-PVTZ AUX)
    Blend: AUG-CC-PVTZ-JKFIT
	 Reference Energy          =    -811.4782660428196550 [Eh]
	 Singles Energy            =      -0.0000000000000000 [Eh]
	 Same-Spin Energy          =      -0.8296219732621847 [Eh]
	 Opposite-Spin Energy      =      -2.5254555507310954 [Eh]
	 Correlation Energy        =      -3.3550775239932800 [Eh]
	 Total Energy              =    -814.8333435668129141 [Eh]

	 ================> DF-SCS-MP2 Energies <==================
	-----------------------------------------------------------
	 SCS Same-Spin Scale       =       0.3333333333333333 [-]
	 SCS Opposite-Spin Scale   =       1.2000000000000000 [-]
	 SCS Same-Spin Energy      =      -0.2765406577540616 [Eh]
	 SCS Opposite-Spin Energy  =      -3.0305466608773144 [Eh]
	 SCS Correlation Energy    =      -3.3070873186313761 [Eh]
	 SCS Total Energy          =    -814.7853533614510297 [Eh]
	-----------------------------------------------------------

  Dipole Moment: [D]
     X:     1.0882      Y:    -4.7272      Z:     2.5631     Total:     5.4864

*** Psi4 exiting successfully. Buy a developer a beer!
