                               Psi4 1.3.2 release

  ==> Input File <==

--------------------------------------------------------------------------
#psi4
#
memory 32 gb

molecule  {
0 1
  O        1.3620710    -0.3800110    -0.9318440
  O        3.2020570     1.9012130    -0.2995130
  O        2.7994070    -2.7489470    -0.4002010
  O       -1.3621860     2.3740050     0.1547830
  N       -0.7982440     0.1994180    -0.2292560
  N       -3.0541720     0.8052390     0.2400120
  N       -4.6734100    -0.8124350     0.4126370
  C        2.7015950     0.8755540     0.5594740
  C        1.2368440     1.1072260     0.8878520
  C        2.6518190    -0.3922910    -0.2854700
  C        0.5739580     0.6830040    -0.4149160
  C        2.8020980    -1.6600160     0.5224700
  C       -1.1273370    -1.1158190    -0.3082760
  C       -1.7446880     1.2038920     0.0820450
  C       -2.4173070    -1.5045610    -0.1045420
  C       -3.3619920    -0.4731600     0.1685110
  H        3.3343810     0.7567850     1.4508530
  H        0.9047070     0.4438290     1.6934890
  H        0.9853290     2.1340670     1.1581470
  H        0.5274540     1.5132540    -1.1249130
  H        3.4174920    -0.3642830    -1.0666260
  H        1.9707490    -1.7331840     1.2432230
  H        3.7460890    -1.6095150     1.0882890
  H        3.1038510     2.7463240     0.1779830
  H       -0.3107400    -1.7892010    -0.5436980
  H        2.9100300    -3.5650720     0.1192120
  H       -2.7034680    -2.5490840    -0.1532500
  H       -4.9936624    -1.5563298    -0.0104195
  H       -5.2994710    -0.0137980     0.3861010
units angstrom
no_reorient  #important for SAPT in psi4, default
symmetry c1  #important for SAPT in psi4, default
}

set PROPERTIES_ORIGIN ["COM"]
properties('MP2/aug-cc-pvtz', properties = ['dipole'])
--------------------------------------------------------------------------

    Molecular point group: c1
  Charge       = 0
  Multiplicity = 1
  Basis Set: AUG-CC-PVTZ
    Blend: AUG-CC-PVTZ
  Basis Set: (AUG-CC-PVTZ AUX)
    Blend: AUG-CC-PVTZ-JKFIT

    Orbital Energies [Eh]
    ---------------------

    Doubly Occupied:

       1A    -20.577876     2A    -20.574492     3A    -20.573095
       4A    -20.503294     5A    -15.622177     6A    -15.578044
       7A    -15.541021     8A    -11.370091     9A    -11.345316
      10A    -11.330989    11A    -11.318802    12A    -11.301025
      13A    -11.297009    14A    -11.293241    15A    -11.237491
      16A    -11.236998    17A     -1.416886    18A     -1.382714
      19A     -1.373710    20A     -1.365890    21A     -1.295761
      22A     -1.266113    23A     -1.178100    24A     -1.079305
      25A     -1.069326    26A     -1.028923    27A     -0.928497
      28A     -0.897901    29A     -0.873898    30A     -0.833335
      31A     -0.806599    32A     -0.758988    33A     -0.739608
      34A     -0.722822    35A     -0.711781    36A     -0.693099
      37A     -0.692485    38A     -0.683067    39A     -0.659161
      40A     -0.637763    41A     -0.627895    42A     -0.618910
      43A     -0.605404    44A     -0.595540    45A     -0.589632
      46A     -0.573066    47A     -0.569001    48A     -0.545127
      49A     -0.533285    50A     -0.523942    51A     -0.510836
      52A     -0.486072    53A     -0.482341    54A     -0.468654
      55A     -0.461351    56A     -0.444739    57A     -0.438205
      58A     -0.416692    59A     -0.385028    60A     -0.335291

  @DF-RHF Final Energy:  -811.47282907968713

   => Energetics <=

    Nuclear Repulsion Energy =           1170.5455578489256823
    One-Electron Energy =               -3436.0213653016080571
    Two-Electron Energy =                1454.0029783729955852
    Total Energy =                       -811.4728290796870169
  Basis Set: (AUG-CC-PVTZ AUX)
    Blend: AUG-CC-PVTZ-RI
    Molecular point group: c1

    Geometry (in Angstrom), charge = 0, multiplicity = 1:

       Center              X                  Y                   Z               Mass
    ------------   -----------------  -----------------  -----------------  -----------------
         O            1.361915438874    -0.380372343292    -0.932049442328    15.994914619570
         O            3.201901438874     1.900851656708    -0.299718442328    15.994914619570
         O            2.799251438874    -2.749308343292    -0.400406442328    15.994914619570
         O           -1.362341561126     2.373643656708     0.154577557672    15.994914619570
         N           -0.798399561126     0.199056656708    -0.229461442328    14.003074004430
         N           -3.054327561126     0.804877656708     0.239806557672    14.003074004430
         N           -4.673565561126    -0.812796343292     0.412431557672    14.003074004430
         C            2.701439438874     0.875192656708     0.559268557672    12.000000000000
         C            1.236688438874     1.106864656708     0.887646557672    12.000000000000
         C            2.651663438874    -0.392652343292    -0.285675442328    12.000000000000
         C            0.573802438874     0.682642656708    -0.415121442328    12.000000000000
         C            2.801942438874    -1.660377343292     0.522264557672    12.000000000000
         C           -1.127492561126    -1.116180343292    -0.308481442328    12.000000000000
         C           -1.744843561126     1.203530656708     0.081839557672    12.000000000000
         C           -2.417462561126    -1.504922343292    -0.104747442328    12.000000000000
         C           -3.362147561126    -0.473521343292     0.168305557672    12.000000000000
         H            3.334225438874     0.756423656708     1.450647557672     1.007825032230
         H            0.904551438874     0.443467656708     1.693283557672     1.007825032230
         H            0.985173438874     2.133705656708     1.157941557672     1.007825032230
         H            0.527298438874     1.512892656708    -1.125118442328     1.007825032230
         H            3.417336438874    -0.364644343292    -1.066831442328     1.007825032230
         H            1.970593438874    -1.733545343292     1.243017557672     1.007825032230
         H            3.745933438874    -1.609876343292     1.088083557672     1.007825032230
         H            3.103695438874     2.745962656708     0.177777557672     1.007825032230
         H           -0.310895561126    -1.789562343292    -0.543903442328     1.007825032230
         H            2.909874438874    -3.565433343292     0.119006557672     1.007825032230
         H           -2.703623561126    -2.549445343292    -0.153455442328     1.007825032230
         H           -4.993817961126    -1.556691143292    -0.010624942328     1.007825032230
         H           -5.299626561126    -0.014159343292     0.385895557672     1.007825032230

  Basis Set: AUG-CC-PVTZ
    Blend: AUG-CC-PVTZ
  Basis Set: (AUG-CC-PVTZ AUX)
    Blend: AUG-CC-PVTZ-JKFIT
	 Reference Energy          =    -811.4728290796871306 [Eh]
	 Singles Energy            =      -0.0000000000000000 [Eh]
	 Same-Spin Energy          =      -0.8291136742633417 [Eh]
	 Opposite-Spin Energy      =      -2.5236717522092187 [Eh]
	 Correlation Energy        =      -3.3527854264725603 [Eh]
	 Total Energy              =    -814.8256145061596953 [Eh]

	 ================> DF-SCS-MP2 Energies <==================
	-----------------------------------------------------------
	 SCS Same-Spin Scale       =       0.3333333333333333 [-]
	 SCS Opposite-Spin Scale   =       1.2000000000000000 [-]
	 SCS Same-Spin Energy      =      -0.2763712247544472 [Eh]
	 SCS Opposite-Spin Energy  =      -3.0284061026510622 [Eh]
	 SCS Correlation Energy    =      -3.3047773274055094 [Eh]
	 SCS Total Energy          =    -814.7776064070926623 [Eh]
	-----------------------------------------------------------

  Dipole Moment: [D]
     X:     1.1309      Y:    -4.6124      Z:     2.5162     Total:     5.3744

*** Psi4 exiting successfully. Buy a developer a beer!
