                               Psi4 1.3.2 release

  ==> Input File <==

--------------------------------------------------------------------------
#psi4
#
memory 32 gb

molecule  {
0 1
  O        1.3719667    -0.3725434    -0.9319649
  O        3.2020570     1.9012130    -0.2995130
  O        2.7994070    -2.7489470    -0.4002010
  O       -1.3621860     2.3740050     0.1547830
  N       -0.8016604     0.2109563    -0.2248944
  N       -3.0541720     0.8052390     0.2400120
  N       -4.6734100    -0.8124350     0.4126370
  C        2.7015950     0.8755540     0.5594740
  C        1.2368440     1.1072260     0.8878520
  C        2.6518190    -0.3922910    -0.2854700
  C        0.5739580     0.6830040    -0.4149160
  C        2.8020980    -1.6600160     0.5224700
  C       -1.1273370    -1.1158190    -0.3082760
  C       -1.7446880     1.2038920     0.0820450
  C       -2.4173070    -1.5045610    -0.1045420
  C       -3.3619920    -0.4731600     0.1685110
  H        3.3343810     0.7567850     1.4508530
  H        0.9047070     0.4438290     1.6934890
  H        0.9853290     2.1340670     1.1581470
  H        0.5274540     1.5132540    -1.1249130
  H        3.4174920    -0.3642830    -1.0666260
  H        1.9707490    -1.7331840     1.2432230
  H        3.7460890    -1.6095150     1.0882890
  H        3.1038510     2.7463240     0.1779830
  H       -0.3107400    -1.7892010    -0.5436980
  H        2.9100300    -3.5650720     0.1192120
  H       -2.7034680    -2.5490840    -0.1532500
  H       -5.0287110    -1.6377420    -0.0567190
  H       -5.2994710    -0.0137980     0.3861010
units angstrom
no_reorient  #important for SAPT in psi4, default
symmetry c1  #important for SAPT in psi4, default
}

set PROPERTIES_ORIGIN ["COM"]
properties('MP2/aug-cc-pvtz', properties = ['dipole'])
--------------------------------------------------------------------------

    Molecular point group: c1
  Charge       = 0
  Multiplicity = 1
  Basis Set: AUG-CC-PVTZ
    Blend: AUG-CC-PVTZ
  Basis Set: (AUG-CC-PVTZ AUX)
    Blend: AUG-CC-PVTZ-JKFIT

    Orbital Energies [Eh]
    ---------------------

    Doubly Occupied:

       1A    -20.577657     2A    -20.573788     3A    -20.572813
       4A    -20.501291     5A    -15.621856     6A    -15.588966
       7A    -15.541177     8A    -11.368550     9A    -11.345687
      10A    -11.330646    11A    -11.319811    12A    -11.300029
      13A    -11.296494    14A    -11.292194    15A    -11.238932
      16A    -11.236170    17A     -1.418029    18A     -1.382822
      19A     -1.373293    20A     -1.365748    21A     -1.291832
      22A     -1.260989    23A     -1.169424    24A     -1.078807
      25A     -1.068805    26A     -1.028911    27A     -0.926735
      28A     -0.898711    29A     -0.869024    30A     -0.830798
      31A     -0.806316    32A     -0.754927    33A     -0.738325
      34A     -0.721048    35A     -0.707238    36A     -0.692866
      37A     -0.689092    38A     -0.676222    39A     -0.657675
      40A     -0.637488    41A     -0.627914    42A     -0.618541
      43A     -0.605367    44A     -0.595891    45A     -0.588916
      46A     -0.571670    47A     -0.568603    48A     -0.544994
      49A     -0.532744    50A     -0.523716    51A     -0.510112
      52A     -0.484480    53A     -0.480568    54A     -0.468312
      55A     -0.460238    56A     -0.443837    57A     -0.437647
      58A     -0.416667    59A     -0.383874    60A     -0.336221

  @DF-RHF Final Energy:  -811.47959251035377

   => Energetics <=

    Nuclear Repulsion Energy =           1170.0397012244859525
    One-Electron Energy =               -3435.1355923369360426
    Two-Electron Energy =                1453.6162986020960943
    Total Energy =                       -811.4795925103537684
  Basis Set: (AUG-CC-PVTZ AUX)
    Blend: AUG-CC-PVTZ-RI
    Molecular point group: c1

    Geometry (in Angstrom), charge = 0, multiplicity = 1:

       Center              X                  Y                   Z               Mass
    ------------   -----------------  -----------------  -----------------  -----------------
         O            1.371480354966    -0.373780895959    -0.932225299367    15.994914619570
         O            3.201570654966     1.899975504041    -0.299773399367    15.994914619570
         O            2.798920654966    -2.750184495959    -0.400461399367    15.994914619570
         O           -1.362672345034     2.372767504041     0.154522600633    15.994914619570
         N           -0.802146745034     0.209718804041    -0.225154799367    14.003074004430
         N           -3.054658345034     0.804001504041     0.239751600633    14.003074004430
         N           -4.673896345034    -0.813672495959     0.412376600633    14.003074004430
         C            2.701108654966     0.874316504041     0.559213600633    12.000000000000
         C            1.236357654966     1.105988504041     0.887591600633    12.000000000000
         C            2.651332654966    -0.393528495959    -0.285730399367    12.000000000000
         C            0.573471654966     0.681766504041    -0.415176399367    12.000000000000
         C            2.801611654966    -1.661253495959     0.522209600633    12.000000000000
         C           -1.127823345034    -1.117056495959    -0.308536399367    12.000000000000
         C           -1.745174345034     1.202654504041     0.081784600633    12.000000000000
         C           -2.417793345034    -1.505798495959    -0.104802399367    12.000000000000
         C           -3.362478345034    -0.474397495959     0.168250600633    12.000000000000
         H            3.333894654966     0.755547504041     1.450592600633     1.007825032230
         H            0.904220654966     0.442591504041     1.693228600633     1.007825032230
         H            0.984842654966     2.132829504041     1.157886600633     1.007825032230
         H            0.526967654966     1.512016504041    -1.125173399367     1.007825032230
         H            3.417005654966    -0.365520495959    -1.066886399367     1.007825032230
         H            1.970262654966    -1.734421495959     1.242962600633     1.007825032230
         H            3.745602654966    -1.610752495959     1.088028600633     1.007825032230
         H            3.103364654966     2.745086504041     0.177722600633     1.007825032230
         H           -0.311226345034    -1.790438495959    -0.543958399367     1.007825032230
         H            2.909543654966    -3.566309495959     0.118951600633     1.007825032230
         H           -2.703954345034    -2.550321495959    -0.153510399367     1.007825032230
         H           -5.029197345034    -1.638979495959    -0.056979399367     1.007825032230
         H           -5.299957345034    -0.015035495959     0.385840600633     1.007825032230

  Basis Set: AUG-CC-PVTZ
    Blend: AUG-CC-PVTZ
  Basis Set: (AUG-CC-PVTZ AUX)
    Blend: AUG-CC-PVTZ-JKFIT
	 Reference Energy          =    -811.4795925103537684 [Eh]
	 Singles Energy            =      -0.0000000000000000 [Eh]
	 Same-Spin Energy          =      -0.8295023517677409 [Eh]
	 Opposite-Spin Energy      =      -2.5248556772965318 [Eh]
	 Correlation Energy        =      -3.3543580290642727 [Eh]
	 Total Energy              =    -814.8339505394180833 [Eh]

	 ================> DF-SCS-MP2 Energies <==================
	-----------------------------------------------------------
	 SCS Same-Spin Scale       =       0.3333333333333333 [-]
	 SCS Opposite-Spin Scale   =       1.2000000000000000 [-]
	 SCS Same-Spin Energy      =      -0.2765007839225803 [Eh]
	 SCS Opposite-Spin Energy  =      -3.0298268127558381 [Eh]
	 SCS Correlation Energy    =      -3.3063275966784182 [Eh]
	 SCS Total Energy          =    -814.7859201070322115 [Eh]
	-----------------------------------------------------------

  Dipole Moment: [D]
     X:     1.0032      Y:    -4.7532      Z:     2.4780     Total:     5.4534

*** Psi4 exiting successfully. Buy a developer a beer!
