                               Psi4 1.3.2 release

  ==> Input File <==

--------------------------------------------------------------------------
#psi4
#
memory 32 gb

molecule  {
0 1
  O        1.3735792    -0.3353198    -0.9519964
  O        3.2020570     1.9012130    -0.2995130
  O        2.7994070    -2.7489470    -0.4002010
  O       -1.3621860     2.3740050     0.1547830
  N       -0.7982440     0.1994180    -0.2292560
  N       -3.0541720     0.8052390     0.2400120
  N       -4.6734100    -0.8124350     0.4126370
  C        2.7015950     0.8755540     0.5594740
  C        1.2368440     1.1072260     0.8878520
  C        2.6518190    -0.3922910    -0.2854700
  C        0.5739580     0.6830040    -0.4149160
  C        2.8501764    -1.6439547     0.5370079
  C       -1.1273370    -1.1158190    -0.3082760
  C       -1.7446880     1.2038920     0.0820450
  C       -2.4173070    -1.5045610    -0.1045420
  C       -3.3619920    -0.4731600     0.1685110
  H        3.3343810     0.7567850     1.4508530
  H        0.9047070     0.4438290     1.6934890
  H        0.9853290     2.1340670     1.1581470
  H        0.5274540     1.5132540    -1.1249130
  H        3.4174920    -0.3642830    -1.0666260
  H        1.9707490    -1.7331840     1.2432230
  H        3.7460890    -1.6095150     1.0882890
  H        3.1038510     2.7463240     0.1779830
  H       -0.3107400    -1.7892010    -0.5436980
  H        2.9100300    -3.5650720     0.1192120
  H       -2.7034680    -2.5490840    -0.1532500
  H       -5.0287110    -1.6377420    -0.0567190
  H       -5.2994710    -0.0137980     0.3861010
units angstrom
no_reorient  #important for SAPT in psi4, default
symmetry c1  #important for SAPT in psi4, default
}

set PROPERTIES_ORIGIN ["COM"]
properties('MP2/aug-cc-pvtz', properties = ['dipole'])
--------------------------------------------------------------------------

    Molecular point group: c1
  Charge       = 0
  Multiplicity = 1
  Basis Set: AUG-CC-PVTZ
    Blend: AUG-CC-PVTZ
  Basis Set: (AUG-CC-PVTZ AUX)
    Blend: AUG-CC-PVTZ-JKFIT

    Orbital Energies [Eh]
    ---------------------

    Doubly Occupied:

       1A    -20.576922     2A    -20.573698     3A    -20.573646
       4A    -20.502637     5A    -15.621515     6A    -15.588336
       7A    -15.540788     8A    -11.369729     9A    -11.345037
      10A    -11.328715    11A    -11.318775    12A    -11.300237
      13A    -11.298313    14A    -11.294682    15A    -11.237220
      16A    -11.236080    17A     -1.420475    18A     -1.381937
      19A     -1.369772    20A     -1.363252    21A     -1.292189
      22A     -1.261476    23A     -1.169025    24A     -1.078563
      25A     -1.070772    26A     -1.029082    27A     -0.929237
      28A     -0.897976    29A     -0.868418    30A     -0.831516
      31A     -0.807239    32A     -0.754836    33A     -0.739744
      34A     -0.718113    35A     -0.706897    36A     -0.694851
      37A     -0.689542    38A     -0.675235    39A     -0.656040
      40A     -0.638498    41A     -0.627590    42A     -0.619161
      43A     -0.603567    44A     -0.594286    45A     -0.589679
      46A     -0.572702    47A     -0.569650    48A     -0.544102
      49A     -0.531723    50A     -0.523947    51A     -0.510098
      52A     -0.484578    53A     -0.482513    54A     -0.469886
      55A     -0.460163    56A     -0.445097    57A     -0.438446
      58A     -0.415808    59A     -0.383492    60A     -0.334780

  @DF-RHF Final Energy:  -811.47591018277581

   => Energetics <=

    Nuclear Repulsion Energy =           1169.4072043997896344
    One-Electron Energy =               -3433.8616568425482001
    Two-Electron Energy =                1452.9785422599825324
    Total Energy =                       -811.4759101827758059
  Basis Set: (AUG-CC-PVTZ AUX)
    Blend: AUG-CC-PVTZ-RI
    Molecular point group: c1

    Geometry (in Angstrom), charge = 0, multiplicity = 1:

       Center              X                  Y                   Z               Mass
    ------------   -----------------  -----------------  -----------------  -----------------
         O            1.370228039404    -0.339316336706    -0.951345167030    15.994914619570
         O            3.198705839404     1.897216463294    -0.298861767030    15.994914619570
         O            2.796055839404    -2.752943536706    -0.399549767030    15.994914619570
         O           -1.365537160596     2.370008463294     0.155434232970    15.994914619570
         N           -0.801595160596     0.195421463294    -0.228604767030    14.003074004430
         N           -3.057523160596     0.801242463294     0.240663232970    14.003074004430
         N           -4.676761160596    -0.816431536706     0.413288232970    14.003074004430
         C            2.698243839404     0.871557463294     0.560125232970    12.000000000000
         C            1.233492839404     1.103229463294     0.888503232970    12.000000000000
         C            2.648467839404    -0.396287536706    -0.284818767030    12.000000000000
         C            0.570606839404     0.679007463294    -0.414264767030    12.000000000000
         C            2.846825239404    -1.647951236706     0.537659132970    12.000000000000
         C           -1.130688160596    -1.119815536706    -0.307624767030    12.000000000000
         C           -1.748039160596     1.199895463294     0.082696232970    12.000000000000
         C           -2.420658160596    -1.508557536706    -0.103890767030    12.000000000000
         C           -3.365343160596    -0.477156536706     0.169162232970    12.000000000000
         H            3.331029839404     0.752788463294     1.451504232970     1.007825032230
         H            0.901355839404     0.439832463294     1.694140232970     1.007825032230
         H            0.981977839404     2.130070463294     1.158798232970     1.007825032230
         H            0.524102839404     1.509257463294    -1.124261767030     1.007825032230
         H            3.414140839404    -0.368279536706    -1.065974767030     1.007825032230
         H            1.967397839404    -1.737180536706     1.243874232970     1.007825032230
         H            3.742737839404    -1.613511536706     1.088940232970     1.007825032230
         H            3.100499839404     2.742327463294     0.178634232970     1.007825032230
         H           -0.314091160596    -1.793197536706    -0.543046767030     1.007825032230
         H            2.906678839404    -3.569068536706     0.119863232970     1.007825032230
         H           -2.706819160596    -2.553080536706    -0.152598767030     1.007825032230
         H           -5.032062160596    -1.641738536706    -0.056067767030     1.007825032230
         H           -5.302822160596    -0.017794536706     0.386752232970     1.007825032230

  Basis Set: AUG-CC-PVTZ
    Blend: AUG-CC-PVTZ
  Basis Set: (AUG-CC-PVTZ AUX)
    Blend: AUG-CC-PVTZ-JKFIT
	 Reference Energy          =    -811.4759101827758059 [Eh]
	 Singles Energy            =      -0.0000000000000000 [Eh]
	 Same-Spin Energy          =      -0.8296116249838412 [Eh]
	 Opposite-Spin Energy      =      -2.5251406749093501 [Eh]
	 Correlation Energy        =      -3.3547522998931916 [Eh]
	 Total Energy              =    -814.8306624826690268 [Eh]

	 ================> DF-SCS-MP2 Energies <==================
	-----------------------------------------------------------
	 SCS Same-Spin Scale       =       0.3333333333333333 [-]
	 SCS Opposite-Spin Scale   =       1.2000000000000000 [-]
	 SCS Same-Spin Energy      =      -0.2765372083279470 [Eh]
	 SCS Opposite-Spin Energy  =      -3.0301688098912201 [Eh]
	 SCS Correlation Energy    =      -3.3067060182191672 [Eh]
	 SCS Total Energy          =    -814.7826162009949940 [Eh]
	-----------------------------------------------------------

  Dipole Moment: [D]
     X:     1.1465      Y:    -4.7150      Z:     2.5547     Total:     5.4838

*** Psi4 exiting successfully. Buy a developer a beer!
