                               Psi4 1.3.2 release

  ==> Input File <==

--------------------------------------------------------------------------
#psi4
#
memory 32 gb

molecule  {
0 1
  O        1.3620710    -0.3800110    -0.9318440
  O        3.2020570     1.9012130    -0.2995130
  O        2.7994070    -2.7489470    -0.4002010
  O       -1.3621860     2.3740050     0.1547830
  N       -0.7982440     0.1994180    -0.2292560
  N       -3.0541720     0.8052390     0.2400120
  N       -4.6734100    -0.8124350     0.4126370
  C        2.6665582     0.8037487     0.6196107
  C        1.2368440     1.1072260     0.8878520
  C        2.6518190    -0.3922910    -0.2854700
  C        0.5739580     0.6830040    -0.4149160
  C        2.8020980    -1.6600160     0.5224700
  C       -1.1273370    -1.1158190    -0.3082760
  C       -1.7446880     1.2038920     0.0820450
  C       -2.4173070    -1.5045610    -0.1045420
  C       -3.3619920    -0.4731600     0.1685110
  H        3.3343810     0.7567850     1.4508530
  H        0.9047070     0.4438290     1.6934890
  H        0.9853290     2.1340670     1.1581470
  H        0.5274540     1.5132540    -1.1249130
  H        3.4174920    -0.3642830    -1.0666260
  H        1.9707490    -1.7331840     1.2432230
  H        3.7460890    -1.6095150     1.0882890
  H        3.1038510     2.7463240     0.1779830
  H       -0.3107400    -1.7892010    -0.5436980
  H        2.9100300    -3.5650720     0.1192120
  H       -2.7034680    -2.5490840    -0.1532500
  H       -5.0287110    -1.6377420    -0.0567190
  H       -5.2994710    -0.0137980     0.3861010
units angstrom
no_reorient  #important for SAPT in psi4, default
symmetry c1  #important for SAPT in psi4, default
}

set PROPERTIES_ORIGIN ["COM"]
properties('MP2/aug-cc-pvtz', properties = ['dipole'])
--------------------------------------------------------------------------

    Molecular point group: c1
  Charge       = 0
  Multiplicity = 1
  Basis Set: AUG-CC-PVTZ
    Blend: AUG-CC-PVTZ
  Basis Set: (AUG-CC-PVTZ AUX)
    Blend: AUG-CC-PVTZ-JKFIT

    Orbital Energies [Eh]
    ---------------------

    Doubly Occupied:

       1A    -20.578832     2A    -20.575095     3A    -20.562293
       4A    -20.504083     5A    -15.622809     6A    -15.589068
       7A    -15.541644     8A    -11.370897     9A    -11.345896
      10A    -11.332804    11A    -11.319293    12A    -11.301787
      13A    -11.298186    14A    -11.295539    15A    -11.239346
      16A    -11.237989    17A     -1.417500    18A     -1.382401
      19A     -1.371364    20A     -1.335732    21A     -1.293138
      22A     -1.262455    23A     -1.169988    24A     -1.088447
      25A     -1.073407    26A     -1.031785    27A     -0.928877
      28A     -0.898352    29A     -0.869601    30A     -0.831827
      31A     -0.811727    32A     -0.755214    33A     -0.741341
      34A     -0.724075    35A     -0.704925    36A     -0.695223
      37A     -0.676436    38A     -0.671817    39A     -0.656830
      40A     -0.637308    41A     -0.627745    42A     -0.616069
      43A     -0.605392    44A     -0.591931    45A     -0.588564
      46A     -0.573238    47A     -0.567191    48A     -0.544889
      49A     -0.528426    50A     -0.525830    51A     -0.503061
      52A     -0.496176    53A     -0.483270    54A     -0.469051
      55A     -0.464373    56A     -0.447250    57A     -0.439008
      58A     -0.417535    59A     -0.384860    60A     -0.336030

  @DF-RHF Final Energy:  -811.46894540078108

   => Energetics <=

    Nuclear Repulsion Energy =           1170.0420600325846863
    One-Electron Energy =               -3435.1115687998758403
    Two-Electron Energy =                1453.6005633665099595
    Total Energy =                       -811.4689454007811946
  Basis Set: (AUG-CC-PVTZ AUX)
    Blend: AUG-CC-PVTZ-RI
    Molecular point group: c1

    Geometry (in Angstrom), charge = 0, multiplicity = 1:

       Center              X                  Y                   Z               Mass
    ------------   -----------------  -----------------  -----------------  -----------------
         O            1.363922410737    -0.376216676661    -0.935021729985    15.994914619570
         O            3.203908410737     1.905007323339    -0.302690729985    15.994914619570
         O            2.801258410737    -2.745152676661    -0.403378729985    15.994914619570
         O           -1.360334589263     2.377799323339     0.151605270015    15.994914619570
         N           -0.796392589263     0.203212323339    -0.232433729985    14.003074004430
         N           -3.052320589263     0.809033323339     0.236834270015    14.003074004430
         N           -4.671558589263    -0.808640676661     0.409459270015    14.003074004430
         C            2.668409610737     0.807543023339     0.616432970015    12.000000000000
         C            1.238695410737     1.111020323339     0.884674270015    12.000000000000
         C            2.653670410737    -0.388496676661    -0.288647729985    12.000000000000
         C            0.575809410737     0.686798323339    -0.418093729985    12.000000000000
         C            2.803949410737    -1.656221676661     0.519292270015    12.000000000000
         C           -1.125485589263    -1.112024676661    -0.311453729985    12.000000000000
         C           -1.742836589263     1.207686323339     0.078867270015    12.000000000000
         C           -2.415455589263    -1.500766676661    -0.107719729985    12.000000000000
         C           -3.360140589263    -0.469365676661     0.165333270015    12.000000000000
         H            3.336232410737     0.760579323339     1.447675270015     1.007825032230
         H            0.906558410737     0.447623323339     1.690311270015     1.007825032230
         H            0.987180410737     2.137861323339     1.154969270015     1.007825032230
         H            0.529305410737     1.517048323339    -1.128090729985     1.007825032230
         H            3.419343410737    -0.360488676661    -1.069803729985     1.007825032230
         H            1.972600410737    -1.729389676661     1.240045270015     1.007825032230
         H            3.747940410737    -1.605720676661     1.085111270015     1.007825032230
         H            3.105702410737     2.750118323339     0.174805270015     1.007825032230
         H           -0.308888589263    -1.785406676661    -0.546875729985     1.007825032230
         H            2.911881410737    -3.561277676661     0.116034270015     1.007825032230
         H           -2.701616589263    -2.545289676661    -0.156427729985     1.007825032230
         H           -5.026859589263    -1.633947676661    -0.059896729985     1.007825032230
         H           -5.297619589263    -0.010003676661     0.382923270015     1.007825032230

  Basis Set: AUG-CC-PVTZ
    Blend: AUG-CC-PVTZ
  Basis Set: (AUG-CC-PVTZ AUX)
    Blend: AUG-CC-PVTZ-JKFIT
	 Reference Energy          =    -811.4689454007810809 [Eh]
	 Singles Energy            =      -0.0000000000000000 [Eh]
	 Same-Spin Energy          =      -0.8303170983964371 [Eh]
	 Opposite-Spin Energy      =      -2.5272963566475761 [Eh]
	 Correlation Energy        =      -3.3576134550440133 [Eh]
	 Total Energy              =    -814.8265588558250556 [Eh]

	 ================> DF-SCS-MP2 Energies <==================
	-----------------------------------------------------------
	 SCS Same-Spin Scale       =       0.3333333333333333 [-]
	 SCS Opposite-Spin Scale   =       1.2000000000000000 [-]
	 SCS Same-Spin Energy      =      -0.2767723661321457 [Eh]
	 SCS Opposite-Spin Energy  =      -3.0327556279770911 [Eh]
	 SCS Correlation Energy    =      -3.3095279941092368 [Eh]
	 SCS Total Energy          =    -814.7784733948902840 [Eh]
	-----------------------------------------------------------

  Dipole Moment: [D]
     X:     0.8809      Y:    -4.9608      Z:     2.6424     Total:     5.6893

*** Psi4 exiting successfully. Buy a developer a beer!
