                               Psi4 1.3.2 release

  ==> Input File <==

--------------------------------------------------------------------------
#psi4
#
memory 32 gb

molecule  {
0 1
  O        1.3620710    -0.3800110    -0.9318440
  O        3.2020570     1.9012130    -0.2995130
  O        2.7994070    -2.7489470    -0.4002010
  O       -1.3621860     2.3740050     0.1547830
  N       -0.7982440     0.1994180    -0.2292560
  N       -3.0541720     0.8052390     0.2400120
  N       -4.6734100    -0.8124350     0.4126370
  C        2.7015950     0.8755540     0.5594740
  C        1.2368440     1.1072260     0.8878520
  C        2.6408357    -0.3893957    -0.2787765
  C        0.5739580     0.6830040    -0.4149160
  C        2.8020980    -1.6600160     0.5224700
  C       -1.1273370    -1.1158190    -0.3082760
  C       -1.7446880     1.2038920     0.0820450
  C       -2.4173070    -1.5045610    -0.1045420
  C       -3.3619920    -0.4731600     0.1685110
  H        3.3343810     0.7567850     1.4508530
  H        0.9047070     0.4438290     1.6934890
  H        0.9853290     2.1340670     1.1581470
  H        0.5274540     1.5132540    -1.1249130
  H        3.4174920    -0.3642830    -1.0666260
  H        1.9672285    -1.7248500     1.2399440
  H        3.7460890    -1.6095150     1.0882890
  H        3.1038510     2.7463240     0.1779830
  H       -0.3107400    -1.7892010    -0.5436980
  H        2.9100300    -3.5650720     0.1192120
  H       -2.7034680    -2.5490840    -0.1532500
  H       -5.0287110    -1.6377420    -0.0567190
  H       -5.2994710    -0.0137980     0.3861010
units angstrom
no_reorient  #important for SAPT in psi4, default
symmetry c1  #important for SAPT in psi4, default
}

set PROPERTIES_ORIGIN ["COM"]
properties('MP2/aug-cc-pvtz', properties = ['dipole'])
--------------------------------------------------------------------------

    Molecular point group: c1
  Charge       = 0
  Multiplicity = 1
  Basis Set: AUG-CC-PVTZ
    Blend: AUG-CC-PVTZ
  Basis Set: (AUG-CC-PVTZ AUX)
    Blend: AUG-CC-PVTZ-JKFIT

    Orbital Energies [Eh]
    ---------------------

    Doubly Occupied:

       1A    -20.577909     2A    -20.574425     3A    -20.573888
       4A    -20.503212     5A    -15.621942     6A    -15.588481
       7A    -15.540950     8A    -11.370061     9A    -11.345190
      10A    -11.331121    11A    -11.318497    12A    -11.300609
      13A    -11.296689    14A    -11.293001    15A    -11.237209
      16A    -11.236960    17A     -1.418694    18A     -1.382671
      19A     -1.373567    20A     -1.366288    21A     -1.292444
      22A     -1.261753    23A     -1.169290    24A     -1.079782
      25A     -1.069415    26A     -1.027926    27A     -0.927147
      28A     -0.897676    29A     -0.869208    30A     -0.831466
      31A     -0.805103    32A     -0.754321    33A     -0.739201
      34A     -0.721481    35A     -0.706996    36A     -0.692615
      37A     -0.689441    38A     -0.675890    39A     -0.656904
      40A     -0.637727    41A     -0.628045    42A     -0.618708
      43A     -0.604894    44A     -0.595187    45A     -0.589359
      46A     -0.573055    47A     -0.567589    48A     -0.544937
      49A     -0.533006    50A     -0.524232    51A     -0.510181
      52A     -0.486559    53A     -0.481866    54A     -0.468653
      55A     -0.460680    56A     -0.444291    57A     -0.437856
      58A     -0.416458    59A     -0.383892    60A     -0.335117

  @DF-RHF Final Energy:  -811.47902611195912

   => Energetics <=

    Nuclear Repulsion Energy =           1170.2265262663795511
    One-Electron Energy =               -3435.4876701053976831
    Two-Electron Energy =                1453.7821177270589033
    Total Energy =                       -811.4790261119592287
  Basis Set: (AUG-CC-PVTZ AUX)
    Blend: AUG-CC-PVTZ-RI
    Molecular point group: c1

    Geometry (in Angstrom), charge = 0, multiplicity = 1:

       Center              X                  Y                   Z               Mass
    ------------   -----------------  -----------------  -----------------  -----------------
         O            1.362666991339    -0.380201017670    -0.932183113849    15.994914619570
         O            3.202652991339     1.901022982330    -0.299852113849    15.994914619570
         O            2.800002991339    -2.749137017670    -0.400540113849    15.994914619570
         O           -1.361590008661     2.373814982330     0.154443886151    15.994914619570
         N           -0.797648008661     0.199227982330    -0.229595113849    14.003074004430
         N           -3.053576008661     0.805048982330     0.239672886151    14.003074004430
         N           -4.672814008661    -0.812625017670     0.412297886151    14.003074004430
         C            2.702190991339     0.875363982330     0.559134886151    12.000000000000
         C            1.237439991339     1.107035982330     0.887512886151    12.000000000000
         C            2.641431691339    -0.389585717670    -0.279115613849    12.000000000000
         C            0.574553991339     0.682813982330    -0.415255113849    12.000000000000
         C            2.802693991339    -1.660206017670     0.522130886151    12.000000000000
         C           -1.126741008661    -1.116009017670    -0.308615113849    12.000000000000
         C           -1.744092008661     1.203701982330     0.081705886151    12.000000000000
         C           -2.416711008661    -1.504751017670    -0.104881113849    12.000000000000
         C           -3.361396008661    -0.473350017670     0.168171886151    12.000000000000
         H            3.334976991339     0.756594982330     1.450513886151     1.007825032230
         H            0.905302991339     0.443638982330     1.693149886151     1.007825032230
         H            0.985924991339     2.133876982330     1.157807886151     1.007825032230
         H            0.528049991339     1.513063982330    -1.125252113849     1.007825032230
         H            3.418087991339    -0.364473017670    -1.066965113849     1.007825032230
         H            1.967824491339    -1.725040017670     1.239604886151     1.007825032230
         H            3.746684991339    -1.609705017670     1.087949886151     1.007825032230
         H            3.104446991339     2.746133982330     0.177643886151     1.007825032230
         H           -0.310144008661    -1.789391017670    -0.544037113849     1.007825032230
         H            2.910625991339    -3.565262017670     0.118872886151     1.007825032230
         H           -2.702872008661    -2.549274017670    -0.153589113849     1.007825032230
         H           -5.028115008661    -1.637932017670    -0.057058113849     1.007825032230
         H           -5.298875008661    -0.013988017670     0.385761886151     1.007825032230

  Basis Set: AUG-CC-PVTZ
    Blend: AUG-CC-PVTZ
  Basis Set: (AUG-CC-PVTZ AUX)
    Blend: AUG-CC-PVTZ-JKFIT
	 Reference Energy          =    -811.4790261119591150 [Eh]
	 Singles Energy            =      -0.0000000000000000 [Eh]
	 Same-Spin Energy          =      -0.8297738679104500 [Eh]
	 Opposite-Spin Energy      =      -2.5252198509018848 [Eh]
	 Correlation Energy        =      -3.3549937188123349 [Eh]
	 Total Energy              =    -814.8340198307714672 [Eh]

	 ================> DF-SCS-MP2 Energies <==================
	-----------------------------------------------------------
	 SCS Same-Spin Scale       =       0.3333333333333333 [-]
	 SCS Opposite-Spin Scale   =       1.2000000000000000 [-]
	 SCS Same-Spin Energy      =      -0.2765912893034833 [Eh]
	 SCS Opposite-Spin Energy  =      -3.0302638210822619 [Eh]
	 SCS Correlation Energy    =      -3.3068551103857451 [Eh]
	 SCS Total Energy          =    -814.7858812223448695 [Eh]
	-----------------------------------------------------------

  Dipole Moment: [D]
     X:     1.0413      Y:    -4.6690      Z:     2.4903     Total:     5.3931

*** Psi4 exiting successfully. Buy a developer a beer!
