                               Psi4 1.3.2 release

  ==> Input File <==

--------------------------------------------------------------------------
#psi4
#
memory 32 gb

molecule  {
0 1
  O        1.3620710    -0.3800110    -0.9318440
  O        3.2020570     1.9012130    -0.2995130
  O        2.7994070    -2.7489470    -0.4002010
  O       -1.3621860     2.3740050     0.1547830
  N       -0.7982440     0.1994180    -0.2292560
  N       -3.0541720     0.8052390     0.2400120
  N       -4.6734100    -0.8124350     0.4126370
  C        2.7124875     0.8419691     0.5242718
  C        1.2368440     1.1072260     0.8878520
  C        2.6518190    -0.3922910    -0.2854700
  C        0.5739580     0.6830040    -0.4149160
  C        2.8020980    -1.6600160     0.5224700
  C       -1.1273370    -1.1158190    -0.3082760
  C       -1.7446880     1.2038920     0.0820450
  C       -2.4173070    -1.5045610    -0.1045420
  C       -3.3619920    -0.4731600     0.1685110
  H        3.3343810     0.7567850     1.4508530
  H        0.9047070     0.4438290     1.6934890
  H        0.9853290     2.1340670     1.1581470
  H        0.5274540     1.5132540    -1.1249130
  H        3.4174920    -0.3642830    -1.0666260
  H        1.9707490    -1.7331840     1.2432230
  H        3.7460890    -1.6095150     1.0882890
  H        3.1174337     2.7623574     0.1511850
  H       -0.3107400    -1.7892010    -0.5436980
  H        2.9100300    -3.5650720     0.1192120
  H       -2.7034680    -2.5490840    -0.1532500
  H       -5.0287110    -1.6377420    -0.0567190
  H       -5.2994710    -0.0137980     0.3861010
units angstrom
no_reorient  #important for SAPT in psi4, default
symmetry c1  #important for SAPT in psi4, default
}

set PROPERTIES_ORIGIN ["COM"]
properties('MP2/aug-cc-pvtz', properties = ['dipole'])
--------------------------------------------------------------------------

    Molecular point group: c1
  Charge       = 0
  Multiplicity = 1
  Basis Set: AUG-CC-PVTZ
    Blend: AUG-CC-PVTZ
  Basis Set: (AUG-CC-PVTZ AUX)
    Blend: AUG-CC-PVTZ-JKFIT

    Orbital Energies [Eh]
    ---------------------

    Doubly Occupied:

       1A    -20.578526     2A    -20.573169     3A    -20.571947
       4A    -20.502834     5A    -15.621359     6A    -15.588153
       7A    -15.540587     8A    -11.369637     9A    -11.344790
      10A    -11.330048    11A    -11.318042    12A    -11.302051
      13A    -11.298228    14A    -11.292290    15A    -11.236929
      16A    -11.236770    17A     -1.417754    18A     -1.382195
      19A     -1.373193    20A     -1.364411    21A     -1.292019
      22A     -1.261261    23A     -1.168912    24A     -1.078891
      25A     -1.072326    26A     -1.027816    27A     -0.927503
      28A     -0.898077    29A     -0.871056    30A     -0.831564
      31A     -0.804712    32A     -0.754081    33A     -0.737726
      34A     -0.723011    35A     -0.707174    36A     -0.693494
      37A     -0.691369    38A     -0.675867    39A     -0.656417
      40A     -0.636252    41A     -0.626049    42A     -0.617079
      43A     -0.604207    44A     -0.596240    45A     -0.587765
      46A     -0.570748    47A     -0.567207    48A     -0.545852
      49A     -0.532765    50A     -0.526217    51A     -0.509948
      52A     -0.490069    53A     -0.481581    54A     -0.468596
      55A     -0.457125    56A     -0.443012    57A     -0.438129
      58A     -0.416029    59A     -0.383267    60A     -0.334524

  @DF-RHF Final Energy:  -811.47687680086517

   => Energetics <=

    Nuclear Repulsion Energy =           1170.3662312882411243
    One-Electron Energy =               -3435.7885157505993448
    Two-Electron Energy =                1453.9454076614929363
    Total Energy =                       -811.4768768008652842
  Basis Set: (AUG-CC-PVTZ AUX)
    Blend: AUG-CC-PVTZ-RI
    Molecular point group: c1

    Geometry (in Angstrom), charge = 0, multiplicity = 1:

       Center              X                  Y                   Z               Mass
    ------------   -----------------  -----------------  -----------------  -----------------
         O            1.361435119012    -0.378307488212    -0.929864869838    15.994914619570
         O            3.201421119012     1.902916511788    -0.297533869838    15.994914619570
         O            2.798771119012    -2.747243488212    -0.398221869838    15.994914619570
         O           -1.362821880988     2.375708511788     0.156762130162    15.994914619570
         N           -0.798879880988     0.201121511788    -0.227276869838    14.003074004430
         N           -3.054807880988     0.806942511788     0.241991130162    14.003074004430
         N           -4.674045880988    -0.810731488212     0.414616130162    14.003074004430
         C            2.711851619012     0.843672611788     0.526250930162    12.000000000000
         C            1.236208119012     1.108929511788     0.889831130162    12.000000000000
         C            2.651183119012    -0.390587488212    -0.283490869838    12.000000000000
         C            0.573322119012     0.684707511788    -0.412936869838    12.000000000000
         C            2.801462119012    -1.658312488212     0.524449130162    12.000000000000
         C           -1.127972880988    -1.114115488212    -0.306296869838    12.000000000000
         C           -1.745323880988     1.205595511788     0.084024130162    12.000000000000
         C           -2.417942880988    -1.502857488212    -0.102562869838    12.000000000000
         C           -3.362627880988    -0.471456488212     0.170490130162    12.000000000000
         H            3.333745119012     0.758488511788     1.452832130162     1.007825032230
         H            0.904071119012     0.445532511788     1.695468130162     1.007825032230
         H            0.984693119012     2.135770511788     1.160126130162     1.007825032230
         H            0.526818119012     1.514957511788    -1.122933869838     1.007825032230
         H            3.416856119012    -0.362579488212    -1.064646869838     1.007825032230
         H            1.970113119012    -1.731480488212     1.245202130162     1.007825032230
         H            3.745453119012    -1.607811488212     1.090268130162     1.007825032230
         H            3.116797819012     2.764060911788     0.153164130162     1.007825032230
         H           -0.311375880988    -1.787497488212    -0.541718869838     1.007825032230
         H            2.909394119012    -3.563368488212     0.121191130162     1.007825032230
         H           -2.704103880988    -2.547380488212    -0.151270869838     1.007825032230
         H           -5.029346880988    -1.636038488212    -0.054739869838     1.007825032230
         H           -5.300106880988    -0.012094488212     0.388080130162     1.007825032230

  Basis Set: AUG-CC-PVTZ
    Blend: AUG-CC-PVTZ
  Basis Set: (AUG-CC-PVTZ AUX)
    Blend: AUG-CC-PVTZ-JKFIT
	 Reference Energy          =    -811.4768768008651705 [Eh]
	 Singles Energy            =      -0.0000000000000000 [Eh]
	 Same-Spin Energy          =      -0.8297796909700297 [Eh]
	 Opposite-Spin Energy      =      -2.5250807718592858 [Eh]
	 Correlation Energy        =      -3.3548604628293157 [Eh]
	 Total Energy              =    -814.8317372636944356 [Eh]

	 ================> DF-SCS-MP2 Energies <==================
	-----------------------------------------------------------
	 SCS Same-Spin Scale       =       0.3333333333333333 [-]
	 SCS Opposite-Spin Scale   =       1.2000000000000000 [-]
	 SCS Same-Spin Energy      =      -0.2765932303233432 [Eh]
	 SCS Opposite-Spin Energy  =      -3.0300969262311428 [Eh]
	 SCS Correlation Energy    =      -3.3066901565544859 [Eh]
	 SCS Total Energy          =    -814.7835669574196800 [Eh]
	-----------------------------------------------------------

  Dipole Moment: [D]
     X:     1.1216      Y:    -4.6872      Z:     2.4429     Total:     5.4033

*** Psi4 exiting successfully. Buy a developer a beer!
