                               Psi4 1.4a3.dev225

  ==> Input File <==

--------------------------------------------------------------------------
#psi4
#
memory 32 gb

molecule  {
0 1
  O       -1.4695130     0.3030610    -1.0874480
  O       -3.6436400    -1.4204040    -0.2669360
  O       -1.6911330     2.8536240     0.0000030
  O        1.1857770    -2.4961310     0.0874550
  N        0.6842480    -0.3150290    -0.3399290
  N        2.9133760    -0.9647370     0.2108410
  N        4.5636770     0.6178870     0.3785230
  C       -2.7686820    -0.6858470     0.5863090
  C       -1.3787780    -1.3118450     0.6568060
  C       -2.4925280     0.6283540    -0.1295840
  C       -0.6939390    -0.7805590    -0.6115670
  C       -2.0414120     1.7324860     0.8087370
  C        1.0545030     0.9838330    -0.4888120
  C        1.6080830    -1.3384950     0.0010630
  C        2.3487550     1.3478080    -0.2622830
  C        3.2578570     0.3046130     0.0876290
  H       -3.2188600    -0.5381750     1.5798200
  H       -0.8341690    -0.9801840     1.5464130
  H       -1.3950130    -2.4033150     0.6754970
  H       -0.6263030    -1.5384450    -1.3968420
  H       -3.3591510     0.9641520    -0.7058050
  H       -1.1693852     1.3878289     1.4207455
  H       -2.8667900     1.9743150     1.4948250
  H       -3.6905400    -2.3294490     0.0774600
  H        0.2668220     1.6750250    -0.7707300
  H       -1.4321050     3.5760960     0.5972330
  H        2.6621150     2.3809760    -0.3596430
  H        4.9550500     1.4416620    -0.0591730
  H        5.1797170    -0.1867780     0.4106900
units angstrom
no_reorient  #important for SAPT in psi4, default
symmetry c1  #important for SAPT in psi4, default
}

set PROPERTIES_ORIGIN ["COM"]
properties('MP2/aug-cc-pvtz', properties = ['dipole'])
--------------------------------------------------------------------------

    Molecular point group: c1
  Charge       = 0
  Multiplicity = 1
  Basis Set: AUG-CC-PVTZ
    Blend: AUG-CC-PVTZ
  Basis Set: (AUG-CC-PVTZ AUX)
    Blend: AUG-CC-PVTZ-JKFIT

    Orbital Energies [Eh]
    ---------------------

    Doubly Occupied:

       1A    -20.584010     2A    -20.574434     3A    -20.572656
       4A    -20.501821     5A    -15.618994     6A    -15.588855
       7A    -15.539758     8A    -11.368699     9A    -11.345746
      10A    -11.333106    11A    -11.314497    12A    -11.302683
      13A    -11.299521    14A    -11.295000    15A    -11.237150
      16A    -11.235236    17A     -1.418863    18A     -1.381789
      19A     -1.377633    20A     -1.366121    21A     -1.290186
      22A     -1.258552    23A     -1.168420    24A     -1.076100
      25A     -1.067713    26A     -1.024582    27A     -0.929182
      28A     -0.894827    29A     -0.867651    30A     -0.830222
      31A     -0.804490    32A     -0.753585    33A     -0.737692
      34A     -0.724875    35A     -0.707228    36A     -0.702163
      37A     -0.690121    38A     -0.672983    39A     -0.650583
      40A     -0.641627    41A     -0.622492    42A     -0.617763
      43A     -0.606790    44A     -0.595766    45A     -0.587452
      46A     -0.572480    47A     -0.565927    48A     -0.550990
      49A     -0.526650    50A     -0.520510    51A     -0.510841
      52A     -0.485097    53A     -0.480720    54A     -0.471408
      55A     -0.459353    56A     -0.448311    57A     -0.440704
      58A     -0.413564    59A     -0.382359    60A     -0.333848

  @DF-RHF Final Energy:  -811.47863332444604

   => Energetics <=

    Nuclear Repulsion Energy =           1185.0694831479092954
    One-Electron Energy =               -3465.2114730967123251
    Two-Electron Energy =                1468.6633566243567657
    Total Energy =                       -811.4786333244460366
  Basis Set: (AUG-CC-PVTZ AUX)
    Blend: AUG-CC-PVTZ-RI
    Molecular point group: c1

    Geometry (in Angstrom), charge = 0, multiplicity = 1:

       Center              X                  Y                   Z               Mass
    ------------   -----------------  -----------------  -----------------  -----------------
         O           -1.494041378619     0.326803729798    -1.067869227978    15.994914619570
         O           -3.668168378619    -1.396661270202    -0.247357227978    15.994914619570
         O           -1.715661378619     2.877366729798     0.019581772022    15.994914619570
         O            1.161248621381    -2.472388270202     0.107033772022    15.994914619570
         N            0.659719621381    -0.291286270202    -0.320350227978    14.003074004430
         N            2.888847621381    -0.940994270202     0.230419772022    14.003074004430
         N            4.539148621381     0.641629729798     0.398101772022    14.003074004430
         C           -2.793210378619    -0.662104270202     0.605887772022    12.000000000000
         C           -1.403306378619    -1.288102270202     0.676384772022    12.000000000000
         C           -2.517056378619     0.652096729798    -0.110005227978    12.000000000000
         C           -0.718467378619    -0.756816270202    -0.591988227978    12.000000000000
         C           -2.065940378619     1.756228729798     0.828315772022    12.000000000000
         C            1.029974621381     1.007575729798    -0.469233227978    12.000000000000
         C            1.583554621381    -1.314752270202     0.020641772022    12.000000000000
         C            2.324226621381     1.371550729798    -0.242704227978    12.000000000000
         C            3.233328621381     0.328355729798     0.107207772022    12.000000000000
         H           -3.243388378619    -0.514432270202     1.599398772022     1.007825032230
         H           -0.858697378619    -0.956441270202     1.565991772022     1.007825032230
         H           -1.419541378619    -2.379572270202     0.695075772022     1.007825032230
         H           -0.650831378619    -1.514702270202    -1.377263227978     1.007825032230
         H           -3.383679378619     0.987894729798    -0.686226227978     1.007825032230
         H           -1.193913578619     1.411571629798     1.440324272022     1.007825032230
         H           -2.891318378619     1.998057729798     1.514403772022     1.007825032230
         H           -3.715068378619    -2.305706270202     0.097038772022     1.007825032230
         H            0.242293621381     1.698767729798    -0.751151227978     1.007825032230
         H           -1.456633378619     3.599838729798     0.616811772022     1.007825032230
         H            2.637586621381     2.404718729798    -0.340064227978     1.007825032230
         H            4.930521621381     1.465404729798    -0.039594227978     1.007825032230
         H            5.155188621381    -0.163035270202     0.430268772022     1.007825032230

  Basis Set: AUG-CC-PVTZ
    Blend: AUG-CC-PVTZ
  Basis Set: (AUG-CC-PVTZ AUX)
    Blend: AUG-CC-PVTZ-JKFIT
	 Reference Energy          =    -811.4786333244460366 [Eh]
	 Singles Energy            =      -0.0000000000000000 [Eh]
	 Same-Spin Energy          =      -0.8308454207622822 [Eh]
	 Opposite-Spin Energy      =      -2.5271845286946157 [Eh]
	 Correlation Energy        =      -3.3580299494568981 [Eh]
	 Total Energy              =    -814.8366632739029001 [Eh]

	 ================> DF-SCS-MP2 Energies <==================
	-----------------------------------------------------------
	 SCS Same-Spin Scale       =       0.3333333333333333 [-]
	 SCS Opposite-Spin Scale   =       1.2000000000000000 [-]
	 SCS Same-Spin Energy      =      -0.2769484735874274 [Eh]
	 SCS Opposite-Spin Energy  =      -3.0326214344335387 [Eh]
	 SCS Correlation Energy    =      -3.3095699080209662 [Eh]
	 SCS Total Energy          =    -814.7882032324670263 [Eh]
	-----------------------------------------------------------

  Dipole Moment: [D]
     X:    -0.3384      Y:     4.6076      Z:     2.3985     Total:     5.2055

*** Psi4 exiting successfully. Buy a developer a beer!
