                               Psi4 1.3.2 release

  ==> Input File <==

--------------------------------------------------------------------------
#psi4
#
memory 32 gb

molecule  {
0 1
  O        1.3620710    -0.3800110    -0.9318440
  O        3.2020570     1.9012130    -0.2995130
  O        2.7994070    -2.7489470    -0.4002010
  O       -1.3621860     2.3740050     0.1547830
  N       -0.7982440     0.1994180    -0.2292560
  N       -3.0541720     0.8052390     0.2400120
  N       -4.6734100    -0.8124350     0.4126370
  C        2.7015950     0.8755540     0.5594740
  C        1.2368440     1.1072260     0.8878520
  C        2.6518190    -0.3922910    -0.2854700
  C        0.5739580     0.6830040    -0.4149160
  C        2.8020980    -1.6600160     0.5224700
  C       -1.1273370    -1.1158190    -0.3082760
  C       -1.8784808     1.3458881     0.1260517
  C       -2.4173070    -1.5045610    -0.1045420
  C       -3.3619920    -0.4731600     0.1685110
  H        3.3343810     0.7567850     1.4508530
  H        0.9047070     0.4438290     1.6934890
  H        0.9853290     2.1340670     1.1581470
  H        0.5274540     1.5132540    -1.1249130
  H        3.4174920    -0.3642830    -1.0666260
  H        1.9707490    -1.7331840     1.2432230
  H        3.7460890    -1.6095150     1.0882890
  H        3.1038510     2.7463240     0.1779830
  H       -0.3107400    -1.7892010    -0.5436980
  H        2.9100300    -3.5650720     0.1192120
  H       -2.7034680    -2.5490840    -0.1532500
  H       -5.0287110    -1.6377420    -0.0567190
  H       -5.2994710    -0.0137980     0.3861010
units angstrom
no_reorient  #important for SAPT in psi4, default
symmetry c1  #important for SAPT in psi4, default
}

set PROPERTIES_ORIGIN ["COM"]
properties('MP2/aug-cc-pvtz', properties = ['dipole'])
--------------------------------------------------------------------------

    Molecular point group: c1
  Charge       = 0
  Multiplicity = 1
  Basis Set: AUG-CC-PVTZ
    Blend: AUG-CC-PVTZ
  Basis Set: (AUG-CC-PVTZ AUX)
    Blend: AUG-CC-PVTZ-JKFIT

    Orbital Energies [Eh]
    ---------------------

    Doubly Occupied:

       1A    -20.573109     2A    -20.570893     3A    -20.563561
       4A    -20.531350     5A    -15.590848     6A    -15.588701
       7A    -15.537741     8A    -11.381039     9A    -11.354343
      10A    -11.318197    11A    -11.306283    12A    -11.296141
      13A    -11.291777    14A    -11.286899    15A    -11.231376
      16A    -11.221053    17A     -1.438050    18A     -1.403845
      19A     -1.369285    20A     -1.362598    21A     -1.300443
      22A     -1.235921    23A     -1.184725    24A     -1.071465
      25A     -1.061045    26A     -1.014296    27A     -0.922197
      28A     -0.883801    29A     -0.860124    30A     -0.823921
      31A     -0.798373    32A     -0.747341    33A     -0.725328
      34A     -0.715097    35A     -0.706024    36A     -0.687159
      37A     -0.684707    38A     -0.673516    39A     -0.663896
      40A     -0.636979    41A     -0.629977    42A     -0.623077
      43A     -0.606131    44A     -0.595047    45A     -0.588701
      46A     -0.567127    47A     -0.563173    48A     -0.541259
      49A     -0.538895    50A     -0.517467    51A     -0.514774
      52A     -0.483421    53A     -0.479586    54A     -0.467419
      55A     -0.463476    56A     -0.452898    57A     -0.431111
      58A     -0.397828    59A     -0.392816    60A     -0.321478

  @DF-RHF Final Energy:  -811.45335478349978

   => Energetics <=

    Nuclear Repulsion Energy =           1167.6313190641492383
    One-Electron Energy =               -3430.5911299179906564
    Two-Electron Energy =                1451.5064560703415282
    Total Energy =                       -811.4533547834996625
  Basis Set: (AUG-CC-PVTZ AUX)
    Blend: AUG-CC-PVTZ-RI
    Molecular point group: c1

    Geometry (in Angstrom), charge = 0, multiplicity = 1:

       Center              X                  Y                   Z               Mass
    ------------   -----------------  -----------------  -----------------  -----------------
         O            1.369140909298    -0.387514443866    -0.934169382970    15.994914619570
         O            3.209126909298     1.893709556134    -0.301838382970    15.994914619570
         O            2.806476909298    -2.756450443866    -0.402526382970    15.994914619570
         O           -1.355116090702     2.366501556134     0.152457617030    15.994914619570
         N           -0.791174090702     0.191914556134    -0.231581382970    14.003074004430
         N           -3.047102090702     0.797735556134     0.237686617030    14.003074004430
         N           -4.666340090702    -0.819938443866     0.410311617030    14.003074004430
         C            2.708664909298     0.868050556134     0.557148617030    12.000000000000
         C            1.243913909298     1.099722556134     0.885526617030    12.000000000000
         C            2.658888909298    -0.399794443866    -0.287795382970    12.000000000000
         C            0.581027909298     0.675500556134    -0.417241382970    12.000000000000
         C            2.809167909298    -1.667519443866     0.520144617030    12.000000000000
         C           -1.120267090702    -1.123322443866    -0.310601382970    12.000000000000
         C           -1.871410890702     1.338384656134     0.123726317030    12.000000000000
         C           -2.410237090702    -1.512064443866    -0.106867382970    12.000000000000
         C           -3.354922090702    -0.480663443866     0.166185617030    12.000000000000
         H            3.341450909298     0.749281556134     1.448527617030     1.007825032230
         H            0.911776909298     0.436325556134     1.691163617030     1.007825032230
         H            0.992398909298     2.126563556134     1.155821617030     1.007825032230
         H            0.534523909298     1.505750556134    -1.127238382970     1.007825032230
         H            3.424561909298    -0.371786443866    -1.068951382970     1.007825032230
         H            1.977818909298    -1.740687443866     1.240897617030     1.007825032230
         H            3.753158909298    -1.617018443866     1.085963617030     1.007825032230
         H            3.110920909298     2.738820556134     0.175657617030     1.007825032230
         H           -0.303670090702    -1.796704443866    -0.546023382970     1.007825032230
         H            2.917099909298    -3.572575443866     0.116886617030     1.007825032230
         H           -2.696398090702    -2.556587443866    -0.155575382970     1.007825032230
         H           -5.021641090702    -1.645245443866    -0.059044382970     1.007825032230
         H           -5.292401090702    -0.021301443866     0.383775617030     1.007825032230

  Basis Set: AUG-CC-PVTZ
    Blend: AUG-CC-PVTZ
  Basis Set: (AUG-CC-PVTZ AUX)
    Blend: AUG-CC-PVTZ-JKFIT
	 Reference Energy          =    -811.4533547834997762 [Eh]
	 Singles Energy            =      -0.0000000000000000 [Eh]
	 Same-Spin Energy          =      -0.8303412165145210 [Eh]
	 Opposite-Spin Energy      =      -2.5247818621508538 [Eh]
	 Correlation Energy        =      -3.3551230786653745 [Eh]
	 Total Energy              =    -814.8084778621652049 [Eh]

	 ================> DF-SCS-MP2 Energies <==================
	-----------------------------------------------------------
	 SCS Same-Spin Scale       =       0.3333333333333333 [-]
	 SCS Opposite-Spin Scale   =       1.2000000000000000 [-]
	 SCS Same-Spin Energy      =      -0.2767804055048403 [Eh]
	 SCS Opposite-Spin Energy  =      -3.0297382345810244 [Eh]
	 SCS Correlation Energy    =      -3.3065186400858648 [Eh]
	 SCS Total Energy          =    -814.7598734235856455 [Eh]
	-----------------------------------------------------------

  Dipole Moment: [D]
     X:     0.4494      Y:    -3.4832      Z:     2.6992     Total:     4.4295

*** Psi4 exiting successfully. Buy a developer a beer!
