                               Psi4 1.3.2 release

  ==> Input File <==

--------------------------------------------------------------------------
#psi4
#
memory 32 gb

molecule  {
0 1
  O        1.3486873    -0.4177978    -0.8691929
  O        3.2020570     1.9012130    -0.2995130
  O        2.7994070    -2.7489470    -0.4002010
  O       -1.3621860     2.3740050     0.1547830
  N       -0.7982440     0.1994180    -0.2292560
  N       -3.0541720     0.8052390     0.2400120
  N       -4.6734100    -0.8124350     0.4126370
  C        2.7015950     0.8755540     0.5594740
  C        1.2368440     1.1072260     0.8878520
  C        2.6518190    -0.3922910    -0.2854700
  C        0.5739580     0.6830040    -0.4149160
  C        2.8020980    -1.6600160     0.5224700
  C       -1.1273370    -1.1158190    -0.3082760
  C       -1.7446880     1.2038920     0.0820450
  C       -2.4173070    -1.5045610    -0.1045420
  C       -3.3619920    -0.4731600     0.1685110
  H        3.3343810     0.7567850     1.4508530
  H        0.9047070     0.4438290     1.6934890
  H        0.9853290     2.1340670     1.1581470
  H        0.4944797     1.5414012    -1.0875310
  H        3.4174920    -0.3642830    -1.0666260
  H        1.9707490    -1.7331840     1.2432230
  H        3.7460890    -1.6095150     1.0882890
  H        3.1038510     2.7463240     0.1779830
  H       -0.3107400    -1.7892010    -0.5436980
  H        2.9100300    -3.5650720     0.1192120
  H       -2.7034680    -2.5490840    -0.1532500
  H       -5.0287110    -1.6377420    -0.0567190
  H       -5.2994710    -0.0137980     0.3861010
units angstrom
no_reorient  #important for SAPT in psi4, default
symmetry c1  #important for SAPT in psi4, default
}

set PROPERTIES_ORIGIN ["COM"]
properties('MP2/aug-cc-pvtz', properties = ['dipole'])
--------------------------------------------------------------------------

    Molecular point group: c1
  Charge       = 0
  Multiplicity = 1
  Basis Set: AUG-CC-PVTZ
    Blend: AUG-CC-PVTZ
  Basis Set: (AUG-CC-PVTZ AUX)
    Blend: AUG-CC-PVTZ-JKFIT

    Orbital Energies [Eh]
    ---------------------

    Doubly Occupied:

       1A    -20.576987     2A    -20.574668     3A    -20.574484
       4A    -20.503519     5A    -15.621380     6A    -15.588141
       7A    -15.540633     8A    -11.369959     9A    -11.344762
      10A    -11.332246    11A    -11.317376    12A    -11.300340
      13A    -11.295055    14A    -11.292401    15A    -11.236480
      16A    -11.235429    17A     -1.421730    18A     -1.382910
      19A     -1.373312    20A     -1.366501    21A     -1.292252
      22A     -1.261516    23A     -1.169116    24A     -1.078698
      25A     -1.068285    26A     -1.028671    27A     -0.926360
      28A     -0.897541    29A     -0.869188    30A     -0.831158
      31A     -0.807311    32A     -0.753707    33A     -0.738968
      34A     -0.721348    35A     -0.706488    36A     -0.692823
      37A     -0.688294    38A     -0.678607    39A     -0.658245
      40A     -0.637111    41A     -0.627662    42A     -0.617895
      43A     -0.604825    44A     -0.595629    45A     -0.588067
      46A     -0.574055    47A     -0.571092    48A     -0.543681
      49A     -0.532522    50A     -0.524907    51A     -0.509091
      52A     -0.485213    53A     -0.481643    54A     -0.467798
      55A     -0.461280    56A     -0.444545    57A     -0.437724
      58A     -0.416552    59A     -0.383504    60A     -0.334734

  @DF-RHF Final Energy:  -811.47749394684695

   => Energetics <=

    Nuclear Repulsion Energy =           1171.1089566183131865
    One-Electron Energy =               -3437.2600620095422528
    Two-Electron Energy =                1454.6736114443820043
    Total Energy =                       -811.4774939468470620
  Basis Set: (AUG-CC-PVTZ AUX)
    Blend: AUG-CC-PVTZ-RI
    Molecular point group: c1

    Geometry (in Angstrom), charge = 0, multiplicity = 1:

       Center              X                  Y                   Z               Mass
    ------------   -----------------  -----------------  -----------------  -----------------
         O            1.349776291986    -0.415261275996    -0.873771538267    15.994914619570
         O            3.203145991986     1.903749524004    -0.304091638267    15.994914619570
         O            2.800495991986    -2.746410475996    -0.404779638267    15.994914619570
         O           -1.361097008014     2.376541524004     0.150204361733    15.994914619570
         N           -0.797155008014     0.201954524004    -0.233834638267    14.003074004430
         N           -3.053083008014     0.807775524004     0.235433361733    14.003074004430
         N           -4.672321008014    -0.809898475996     0.408058361733    14.003074004430
         C            2.702683991986     0.878090524004     0.554895361733    12.000000000000
         C            1.237932991986     1.109762524004     0.883273361733    12.000000000000
         C            2.652907991986    -0.389754475996    -0.290048638267    12.000000000000
         C            0.575046991986     0.685540524004    -0.419494638267    12.000000000000
         C            2.803186991986    -1.657479475996     0.517891361733    12.000000000000
         C           -1.126248008014    -1.113282475996    -0.312854638267    12.000000000000
         C           -1.743599008014     1.206428524004     0.077466361733    12.000000000000
         C           -2.416218008014    -1.502024475996    -0.109120638267    12.000000000000
         C           -3.360903008014    -0.470623475996     0.163932361733    12.000000000000
         H            3.335469991986     0.759321524004     1.446274361733     1.007825032230
         H            0.905795991986     0.446365524004     1.688910361733     1.007825032230
         H            0.986417991986     2.136603524004     1.153568361733     1.007825032230
         H            0.495568691986     1.543937724004    -1.092109638267     1.007825032230
         H            3.418580991986    -0.361746475996    -1.071204638267     1.007825032230
         H            1.971837991986    -1.730647475996     1.238644361733     1.007825032230
         H            3.747177991986    -1.606978475996     1.083710361733     1.007825032230
         H            3.104939991986     2.748860524004     0.173404361733     1.007825032230
         H           -0.309651008014    -1.786664475996    -0.548276638267     1.007825032230
         H            2.911118991986    -3.562535475996     0.114633361733     1.007825032230
         H           -2.702379008014    -2.546547475996    -0.157828638267     1.007825032230
         H           -5.027622008014    -1.635205475996    -0.061297638267     1.007825032230
         H           -5.298382008014    -0.011261475996     0.381522361733     1.007825032230

  Basis Set: AUG-CC-PVTZ
    Blend: AUG-CC-PVTZ
  Basis Set: (AUG-CC-PVTZ AUX)
    Blend: AUG-CC-PVTZ-JKFIT
	 Reference Energy          =    -811.4774939468469483 [Eh]
	 Singles Energy            =      -0.0000000000000000 [Eh]
	 Same-Spin Energy          =      -0.8299151610113187 [Eh]
	 Opposite-Spin Energy      =      -2.5251047773445006 [Eh]
	 Correlation Energy        =      -3.3550199383558192 [Eh]
	 Total Energy              =    -814.8325138852027294 [Eh]

	 ================> DF-SCS-MP2 Energies <==================
	-----------------------------------------------------------
	 SCS Same-Spin Scale       =       0.3333333333333333 [-]
	 SCS Opposite-Spin Scale   =       1.2000000000000000 [-]
	 SCS Same-Spin Energy      =      -0.2766383870037729 [Eh]
	 SCS Opposite-Spin Energy  =      -3.0301257328134006 [Eh]
	 SCS Correlation Energy    =      -3.3067641198171733 [Eh]
	 SCS Total Energy          =    -814.7842580666641652 [Eh]
	-----------------------------------------------------------

  Dipole Moment: [D]
     X:     1.0669      Y:    -4.6172      Z:     2.3781     Total:     5.3021

*** Psi4 exiting successfully. Buy a developer a beer!
