                               Psi4 1.3.2 release

  ==> Input File <==

--------------------------------------------------------------------------
#psi4
#
memory 32 gb

molecule  {
0 1
  O        1.3620710    -0.3800110    -0.9318440
  O        3.2020570     1.9012130    -0.2995130
  O        2.7994070    -2.7489470    -0.4002010
  O       -1.3621860     2.3740050     0.1547830
  N       -0.7982440     0.1994180    -0.2292560
  N       -3.0541720     0.8052390     0.2400120
  N       -4.6734100    -0.8124350     0.4126370
  C        2.7015950     0.8755540     0.5594740
  C        1.2368440     1.1072260     0.8878520
  C        2.6518190    -0.3922910    -0.2854700
  C        0.5739580     0.6830040    -0.4149160
  C        2.8020980    -1.6600160     0.5224700
  C       -1.1273370    -1.1158190    -0.3082760
  C       -1.7446880     1.2038920     0.0820450
  C       -2.4173070    -1.5045610    -0.1045420
  C       -3.3437706    -0.4563180     0.1668021
  H        3.3343810     0.7567850     1.4508530
  H        0.9047070     0.4438290     1.6934890
  H        0.9853290     2.1340670     1.1581470
  H        0.5274540     1.5132540    -1.1249130
  H        3.4174920    -0.3642830    -1.0666260
  H        1.9707490    -1.7331840     1.2432230
  H        3.7460890    -1.6095150     1.0882890
  H        3.1038510     2.7463240     0.1779830
  H       -0.3107400    -1.7892010    -0.5436980
  H        2.9100300    -3.5650720     0.1192120
  H       -2.6854939    -2.5536626    -0.1569881
  H       -5.0287110    -1.6377420    -0.0567190
  H       -5.2994710    -0.0137980     0.3861010
units angstrom
no_reorient  #important for SAPT in psi4, default
symmetry c1  #important for SAPT in psi4, default
}

set PROPERTIES_ORIGIN ["COM"]
properties('MP2/aug-cc-pvtz', properties = ['dipole'])
--------------------------------------------------------------------------

    Molecular point group: c1
  Charge       = 0
  Multiplicity = 1
  Basis Set: AUG-CC-PVTZ
    Blend: AUG-CC-PVTZ
  Basis Set: (AUG-CC-PVTZ AUX)
    Blend: AUG-CC-PVTZ-JKFIT

    Orbital Energies [Eh]
    ---------------------

    Doubly Occupied:

       1A    -20.578023     2A    -20.574817     3A    -20.573424
       4A    -20.505601     5A    -15.622600     6A    -15.584023
       7A    -15.542988     8A    -11.372257     9A    -11.343987
      10A    -11.331511    11A    -11.317641    12A    -11.301365
      13A    -11.297199    14A    -11.293518    15A    -11.237452
      16A    -11.237132    17A     -1.417404    18A     -1.384648
      19A     -1.373927    20A     -1.366434    21A     -1.293483
      22A     -1.259449    23A     -1.169965    24A     -1.079859
      25A     -1.069691    26A     -1.028355    27A     -0.926906
      28A     -0.897812    29A     -0.870561    30A     -0.831442
      31A     -0.806690    32A     -0.753085    33A     -0.739739
      34A     -0.721320    35A     -0.703588    36A     -0.692642
      37A     -0.688359    38A     -0.675119    39A     -0.656644
      40A     -0.638683    41A     -0.628902    42A     -0.618519
      43A     -0.605478    44A     -0.593811    45A     -0.590471
      46A     -0.572537    47A     -0.569150    48A     -0.545121
      49A     -0.531076    50A     -0.524393    51A     -0.509940
      52A     -0.486390    53A     -0.483234    54A     -0.468842
      55A     -0.461600    56A     -0.447561    57A     -0.438818
      58A     -0.418768    59A     -0.386679    60A     -0.335738

  @DF-RHF Final Energy:  -811.47890155059338

   => Energetics <=

    Nuclear Repulsion Energy =           1170.3003624211196438
    One-Electron Energy =               -3435.6057883410871909
    Two-Electron Energy =                1453.8265243693740558
    Total Energy =                       -811.4789015505934913
  Basis Set: (AUG-CC-PVTZ AUX)
    Blend: AUG-CC-PVTZ-RI
    Molecular point group: c1

    Geometry (in Angstrom), charge = 0, multiplicity = 1:

       Center              X                  Y                   Z               Mass
    ------------   -----------------  -----------------  -----------------  -----------------
         O            1.361028353780    -0.380880688050    -0.931737073855    15.994914619570
         O            3.201014353780     1.900343311950    -0.299406073855    15.994914619570
         O            2.798364353780    -2.749816688050    -0.400094073855    15.994914619570
         O           -1.363228646220     2.373135311950     0.154889926145    15.994914619570
         N           -0.799286646220     0.198548311950    -0.229149073855    14.003074004430
         N           -3.055214646220     0.804369311950     0.240118926145    14.003074004430
         N           -4.674452646220    -0.813304688050     0.412743926145    14.003074004430
         C            2.700552353780     0.874684311950     0.559580926145    12.000000000000
         C            1.235801353780     1.106356311950     0.887958926145    12.000000000000
         C            2.650776353780    -0.393160688050    -0.285363073855    12.000000000000
         C            0.572915353780     0.682134311950    -0.414809073855    12.000000000000
         C            2.801055353780    -1.660885688050     0.522576926145    12.000000000000
         C           -1.128379646220    -1.116688688050    -0.308169073855    12.000000000000
         C           -1.745730646220     1.203022311950     0.082151926145    12.000000000000
         C           -2.418349646220    -1.505430688050    -0.104435073855    12.000000000000
         C           -3.344813246220    -0.457187688050     0.166909026145    12.000000000000
         H            3.333338353780     0.755915311950     1.450959926145     1.007825032230
         H            0.903664353780     0.442959311950     1.693595926145     1.007825032230
         H            0.984286353780     2.133197311950     1.158253926145     1.007825032230
         H            0.526411353780     1.512384311950    -1.124806073855     1.007825032230
         H            3.416449353780    -0.365152688050    -1.066519073855     1.007825032230
         H            1.969706353780    -1.734053688050     1.243329926145     1.007825032230
         H            3.745046353780    -1.610384688050     1.088395926145     1.007825032230
         H            3.102808353780     2.745454311950     0.178089926145     1.007825032230
         H           -0.311782646220    -1.790070688050    -0.543591073855     1.007825032230
         H            2.908987353780    -3.565941688050     0.119318926145     1.007825032230
         H           -2.686536546220    -2.554532288050    -0.156881173855     1.007825032230
         H           -5.029753646220    -1.638611688050    -0.056612073855     1.007825032230
         H           -5.300513646220    -0.014667688050     0.386207926145     1.007825032230

  Basis Set: AUG-CC-PVTZ
    Blend: AUG-CC-PVTZ
  Basis Set: (AUG-CC-PVTZ AUX)
    Blend: AUG-CC-PVTZ-JKFIT
	 Reference Energy          =    -811.4789015505933776 [Eh]
	 Singles Energy            =      -0.0000000000000000 [Eh]
	 Same-Spin Energy          =      -0.8294429603272495 [Eh]
	 Opposite-Spin Energy      =      -2.5249850179901552 [Eh]
	 Correlation Energy        =      -3.3544279783174047 [Eh]
	 Total Energy              =    -814.8333295289107809 [Eh]

	 ================> DF-SCS-MP2 Energies <==================
	-----------------------------------------------------------
	 SCS Same-Spin Scale       =       0.3333333333333333 [-]
	 SCS Opposite-Spin Scale   =       1.2000000000000000 [-]
	 SCS Same-Spin Energy      =      -0.2764809867757498 [Eh]
	 SCS Opposite-Spin Energy  =      -3.0299820215881863 [Eh]
	 SCS Correlation Energy    =      -3.3064630083639361 [Eh]
	 SCS Total Energy          =    -814.7853645589573262 [Eh]
	-----------------------------------------------------------

  Dipole Moment: [D]
     X:     1.2685      Y:    -4.5654      Z:     2.4665     Total:     5.3418

*** Psi4 exiting successfully. Buy a developer a beer!
