                               Psi4 1.3.2 release

  ==> Input File <==

--------------------------------------------------------------------------
#psi4
#
memory 32 gb

molecule  {
0 1
  O        1.3620710    -0.3800110    -0.9318440
  O        3.2393589     1.9087723    -0.2673072
  O        2.7994070    -2.7489470    -0.4002010
  O       -1.3621860     2.3740050     0.1547830
  N       -0.7982440     0.1994180    -0.2292560
  N       -3.0541720     0.8052390     0.2400120
  N       -4.6734100    -0.8124350     0.4126370
  C        2.7015950     0.8755540     0.5594740
  C        1.2368440     1.1072260     0.8878520
  C        2.6518190    -0.3922910    -0.2854700
  C        0.5739580     0.6830040    -0.4149160
  C        2.8020980    -1.6600160     0.5224700
  C       -1.1273370    -1.1158190    -0.3082760
  C       -1.7446880     1.2038920     0.0820450
  C       -2.4173070    -1.5045610    -0.1045420
  C       -3.3619920    -0.4731600     0.1685110
  H        3.3570427     0.7848180     1.4376744
  H        0.9047070     0.4438290     1.6934890
  H        0.9853290     2.1340670     1.1581470
  H        0.5274540     1.5132540    -1.1249130
  H        3.4174920    -0.3642830    -1.0666260
  H        1.9707490    -1.7331840     1.2432230
  H        3.7460890    -1.6095150     1.0882890
  H        3.1038510     2.7463240     0.1779830
  H       -0.3107400    -1.7892010    -0.5436980
  H        2.9100300    -3.5650720     0.1192120
  H       -2.7034680    -2.5490840    -0.1532500
  H       -5.0287110    -1.6377420    -0.0567190
  H       -5.2994710    -0.0137980     0.3861010
units angstrom
no_reorient  #important for SAPT in psi4, default
symmetry c1  #important for SAPT in psi4, default
}

set PROPERTIES_ORIGIN ["COM"]
properties('MP2/aug-cc-pvtz', properties = ['dipole'])
--------------------------------------------------------------------------

    Molecular point group: c1
  Charge       = 0
  Multiplicity = 1
  Basis Set: AUG-CC-PVTZ
    Blend: AUG-CC-PVTZ
  Basis Set: (AUG-CC-PVTZ AUX)
    Blend: AUG-CC-PVTZ-JKFIT

    Orbital Energies [Eh]
    ---------------------

    Doubly Occupied:

       1A    -20.577946     2A    -20.573690     3A    -20.570552
       4A    -20.503552     5A    -15.622316     6A    -15.588696
       7A    -15.541213     8A    -11.370395     9A    -11.345447
      10A    -11.331765    11A    -11.318749    12A    -11.300816
      13A    -11.297177    14A    -11.293872    15A    -11.237944
      16A    -11.237466    17A     -1.417221    18A     -1.383037
      19A     -1.374532    20A     -1.367043    21A     -1.292691
      22A     -1.261924    23A     -1.169525    24A     -1.079775
      25A     -1.069422    26A     -1.028503    27A     -0.927425
      28A     -0.897986    29A     -0.869916    30A     -0.831947
      31A     -0.806704    32A     -0.754767    33A     -0.738855
      34A     -0.722098    35A     -0.706455    36A     -0.693410
      37A     -0.691223    38A     -0.676141    39A     -0.656928
      40A     -0.638269    41A     -0.628281    42A     -0.618655
      43A     -0.604924    44A     -0.596095    45A     -0.589229
      46A     -0.574579    47A     -0.568087    48A     -0.545256
      49A     -0.532299    50A     -0.524376    51A     -0.510827
      52A     -0.484771    53A     -0.482723    54A     -0.468549
      55A     -0.461368    56A     -0.444891    57A     -0.438374
      58A     -0.416830    59A     -0.384177    60A     -0.335435

  @DF-RHF Final Energy:  -811.48040213830893

   => Energetics <=

    Nuclear Repulsion Energy =           1169.2656766582458658
    One-Electron Energy =               -3433.5379087286983122
    Two-Electron Energy =                1452.7918299321436280
    Total Energy =                       -811.4804021383088184
  Basis Set: (AUG-CC-PVTZ AUX)
    Blend: AUG-CC-PVTZ-RI
    Molecular point group: c1

    Geometry (in Angstrom), charge = 0, multiplicity = 1:

       Center              X                  Y                   Z               Mass
    ------------   -----------------  -----------------  -----------------  -----------------
         O            1.359343087300    -0.380667879357    -0.934053864754    15.994914619570
         O            3.236630987300     1.908115420643    -0.269517064754    15.994914619570
         O            2.796679087300    -2.749603879357    -0.402410864754    15.994914619570
         O           -1.364913912700     2.373348120643     0.152573135246    15.994914619570
         N           -0.800971912700     0.198761120643    -0.231465864754    14.003074004430
         N           -3.056899912700     0.804582120643     0.237802135246    14.003074004430
         N           -4.676137912700    -0.813091879357     0.410427135246    14.003074004430
         C            2.698867087300     0.874897120643     0.557264135246    12.000000000000
         C            1.234116087300     1.106569120643     0.885642135246    12.000000000000
         C            2.649091087300    -0.392947879357    -0.287679864754    12.000000000000
         C            0.571230087300     0.682347120643    -0.417125864754    12.000000000000
         C            2.799370087300    -1.660672879357     0.520260135246    12.000000000000
         C           -1.130064912700    -1.116475879357    -0.310485864754    12.000000000000
         C           -1.747415912700     1.203235120643     0.079835135246    12.000000000000
         C           -2.420034912700    -1.505217879357    -0.106751864754    12.000000000000
         C           -3.364719912700    -0.473816879357     0.166301135246    12.000000000000
         H            3.354314787300     0.784161120643     1.435464535246     1.007825032230
         H            0.901979087300     0.443172120643     1.691279135246     1.007825032230
         H            0.982601087300     2.133410120643     1.155937135246     1.007825032230
         H            0.524726087300     1.512597120643    -1.127122864754     1.007825032230
         H            3.414764087300    -0.364939879357    -1.068835864754     1.007825032230
         H            1.968021087300    -1.733840879357     1.241013135246     1.007825032230
         H            3.743361087300    -1.610171879357     1.086079135246     1.007825032230
         H            3.101123087300     2.745667120643     0.175773135246     1.007825032230
         H           -0.313467912700    -1.789857879357    -0.545907864754     1.007825032230
         H            2.907302087300    -3.565728879357     0.117002135246     1.007825032230
         H           -2.706195912700    -2.549740879357    -0.155459864754     1.007825032230
         H           -5.031438912700    -1.638398879357    -0.058928864754     1.007825032230
         H           -5.302198912700    -0.014454879357     0.383891135246     1.007825032230

  Basis Set: AUG-CC-PVTZ
    Blend: AUG-CC-PVTZ
  Basis Set: (AUG-CC-PVTZ AUX)
    Blend: AUG-CC-PVTZ-JKFIT
	 Reference Energy          =    -811.4804021383089321 [Eh]
	 Singles Energy            =      -0.0000000000000000 [Eh]
	 Same-Spin Energy          =      -0.8292440432738556 [Eh]
	 Opposite-Spin Energy      =      -2.5242525656780561 [Eh]
	 Correlation Energy        =      -3.3534966089519118 [Eh]
	 Total Energy              =    -814.8338987472608324 [Eh]

	 ================> DF-SCS-MP2 Energies <==================
	-----------------------------------------------------------
	 SCS Same-Spin Scale       =       0.3333333333333333 [-]
	 SCS Opposite-Spin Scale   =       1.2000000000000000 [-]
	 SCS Same-Spin Energy      =      -0.2764146810912852 [Eh]
	 SCS Opposite-Spin Energy  =      -3.0291030788136672 [Eh]
	 SCS Correlation Energy    =      -3.3055177599049523 [Eh]
	 SCS Total Energy          =    -814.7859198982139333 [Eh]
	-----------------------------------------------------------

  Dipole Moment: [D]
     X:     0.9508      Y:    -4.7134      Z:     2.4430     Total:     5.3934

*** Psi4 exiting successfully. Buy a developer a beer!
