                               Psi4 1.3.2 release

  ==> Input File <==

--------------------------------------------------------------------------
#psi4
#
memory 32 gb

molecule  {
0 1
  O        1.3620710    -0.3800110    -0.9318440
  O        3.2020570     1.9012130    -0.2995130
  O        2.7994070    -2.7489470    -0.4002010
  O       -1.3621860     2.3740050     0.1547830
  N       -0.7982440     0.1994180    -0.2292560
  N       -3.0541720     0.8052390     0.2400120
  N       -4.6734100    -0.8124350     0.4126370
  C        2.7015950     0.8755540     0.5594740
  C        1.2368440     1.1072260     0.8878520
  C        2.6702333    -0.4521010    -0.3277624
  C        0.5192536     0.6621545    -0.4607946
  C        2.8020980    -1.6600160     0.5224700
  C       -1.1273370    -1.1158190    -0.3082760
  C       -1.7446880     1.2038920     0.0820450
  C       -2.4173070    -1.5045610    -0.1045420
  C       -3.3619920    -0.4731600     0.1685110
  H        3.3343810     0.7567850     1.4508530
  H        0.9047070     0.4438290     1.6934890
  H        0.9853290     2.1340670     1.1581470
  H        0.5274540     1.5132540    -1.1249130
  H        3.4174920    -0.3642830    -1.0666260
  H        1.9707490    -1.7331840     1.2432230
  H        3.7460890    -1.6095150     1.0882890
  H        3.1038510     2.7463240     0.1779830
  H       -0.3107400    -1.7892010    -0.5436980
  H        2.9100300    -3.5650720     0.1192120
  H       -2.7034680    -2.5490840    -0.1532500
  H       -5.0287110    -1.6377420    -0.0567190
  H       -5.2994710    -0.0137980     0.3861010
units angstrom
no_reorient  #important for SAPT in psi4, default
symmetry c1  #important for SAPT in psi4, default
}

set PROPERTIES_ORIGIN ["COM"]
properties('MP2/aug-cc-pvtz', properties = ['dipole'])
--------------------------------------------------------------------------

    Molecular point group: c1
  Charge       = 0
  Multiplicity = 1
  Basis Set: AUG-CC-PVTZ
    Blend: AUG-CC-PVTZ
  Basis Set: (AUG-CC-PVTZ AUX)
    Blend: AUG-CC-PVTZ-JKFIT

    Orbital Energies [Eh]
    ---------------------

    Doubly Occupied:

       1A    -20.576285     2A    -20.570616     3A    -20.567622
       4A    -20.505436     5A    -15.625079     6A    -15.590006
       7A    -15.543073     8A    -11.372797     9A    -11.347044
      10A    -11.329437    11A    -11.320468    12A    -11.298734
      13A    -11.295197    14A    -11.292278    15A    -11.239345
      16A    -11.233794    17A     -1.412808    18A     -1.384281
      19A     -1.372008    20A     -1.362516    21A     -1.295686
      22A     -1.268108    23A     -1.172365    24A     -1.076590
      25A     -1.060312    26A     -1.023877    27A     -0.929485
      28A     -0.900756    29A     -0.867482    30A     -0.829528
      31A     -0.808403    32A     -0.758346    33A     -0.739609
      34A     -0.718576    35A     -0.706885    36A     -0.692963
      37A     -0.685262    38A     -0.678955    39A     -0.659462
      40A     -0.635673    41A     -0.627933    42A     -0.619888
      43A     -0.607215    44A     -0.597679    45A     -0.589790
      46A     -0.576804    47A     -0.569550    48A     -0.544802
      49A     -0.530428    50A     -0.521950    51A     -0.505333
      52A     -0.480628    53A     -0.471045    54A     -0.461685
      55A     -0.460176    56A     -0.443150    57A     -0.436336
      58A     -0.419613    59A     -0.383493    60A     -0.335689

  @DF-RHF Final Energy:  -811.46870554264888

   => Energetics <=

    Nuclear Repulsion Energy =           1168.9946407981190077
    One-Electron Energy =               -3433.0660307491043568
    Two-Electron Energy =                1452.6026844083366996
    Total Energy =                       -811.4687055426488769
  Basis Set: (AUG-CC-PVTZ AUX)
    Blend: AUG-CC-PVTZ-RI
    Molecular point group: c1

    Geometry (in Angstrom), charge = 0, multiplicity = 1:

       Center              X                  Y                   Z               Mass
    ------------   -----------------  -----------------  -----------------  -----------------
         O            1.363988638048    -0.375748799976    -0.927184803429    15.994914619570
         O            3.203974638048     1.905475200024    -0.294853803429    15.994914619570
         O            2.801324638048    -2.744684799976    -0.395541803429    15.994914619570
         O           -1.360268361952     2.378267200024     0.159442196571    15.994914619570
         N           -0.796326361952     0.203680200024    -0.224596803429    14.003074004430
         N           -3.052254361952     0.809501200024     0.244671196571    14.003074004430
         N           -4.671492361952    -0.808172799976     0.417296196571    14.003074004430
         C            2.703512638048     0.879816200024     0.564133196571    12.000000000000
         C            1.238761638048     1.111488200024     0.892511196571    12.000000000000
         C            2.672150938048    -0.447838799976    -0.323103203429    12.000000000000
         C            0.521171238048     0.666416700024    -0.456135403429    12.000000000000
         C            2.804015638048    -1.655753799976     0.527129196571    12.000000000000
         C           -1.125419361952    -1.111556799976    -0.303616803429    12.000000000000
         C           -1.742770361952     1.208154200024     0.086704196571    12.000000000000
         C           -2.415389361952    -1.500298799976    -0.099882803429    12.000000000000
         C           -3.360074361952    -0.468897799976     0.173170196571    12.000000000000
         H            3.336298638048     0.761047200024     1.455512196571     1.007825032230
         H            0.906624638048     0.448091200024     1.698148196571     1.007825032230
         H            0.987246638048     2.138329200024     1.162806196571     1.007825032230
         H            0.529371638048     1.517516200024    -1.120253803429     1.007825032230
         H            3.419409638048    -0.360020799976    -1.061966803429     1.007825032230
         H            1.972666638048    -1.728921799976     1.247882196571     1.007825032230
         H            3.748006638048    -1.605252799976     1.092948196571     1.007825032230
         H            3.105768638048     2.750586200024     0.182642196571     1.007825032230
         H           -0.308822361952    -1.784938799976    -0.539038803429     1.007825032230
         H            2.911947638048    -3.560809799976     0.123871196571     1.007825032230
         H           -2.701550361952    -2.544821799976    -0.148590803429     1.007825032230
         H           -5.026793361952    -1.633479799976    -0.052059803429     1.007825032230
         H           -5.297553361952    -0.009535799976     0.390760196571     1.007825032230

  Basis Set: AUG-CC-PVTZ
    Blend: AUG-CC-PVTZ
  Basis Set: (AUG-CC-PVTZ AUX)
    Blend: AUG-CC-PVTZ-JKFIT
	 Reference Energy          =    -811.4687055426488769 [Eh]
	 Singles Energy            =      -0.0000000000000000 [Eh]
	 Same-Spin Energy          =      -0.8295088640016204 [Eh]
	 Opposite-Spin Energy      =      -2.5250687685315256 [Eh]
	 Correlation Energy        =      -3.3545776325331458 [Eh]
	 Total Energy              =    -814.8232831751820413 [Eh]

	 ================> DF-SCS-MP2 Energies <==================
	-----------------------------------------------------------
	 SCS Same-Spin Scale       =       0.3333333333333333 [-]
	 SCS Opposite-Spin Scale   =       1.2000000000000000 [-]
	 SCS Same-Spin Energy      =      -0.2765029546672068 [Eh]
	 SCS Opposite-Spin Energy  =      -3.0300825222378305 [Eh]
	 SCS Correlation Energy    =      -3.3065854769050373 [Eh]
	 SCS Total Energy          =    -814.7752910195539471 [Eh]
	-----------------------------------------------------------

  Dipole Moment: [D]
     X:     0.8265      Y:    -4.8035      Z:     2.3815     Total:     5.4248

*** Psi4 exiting successfully. Buy a developer a beer!
