                               Psi4 1.3.2 release

  ==> Input File <==

--------------------------------------------------------------------------
#psi4
#
memory 32 gb

molecule  {
0 1
  O        1.3677613    -0.3796386    -0.9430685
  O        3.2020570     1.9012130    -0.2995130
  O        2.7994070    -2.7489470    -0.4002010
  O       -1.3621860     2.3740050     0.1547830
  N       -0.7982440     0.1994180    -0.2292560
  N       -3.0541720     0.8052390     0.2400120
  N       -4.6734100    -0.8124350     0.4126370
  C        2.7015950     0.8755540     0.5594740
  C        1.2368440     1.1072260     0.8878520
  C        2.6518190    -0.3922910    -0.2854700
  C        0.5739580     0.6830040    -0.4149160
  C        2.8020980    -1.6600160     0.5224700
  C       -1.1273370    -1.1158190    -0.3082760
  C       -1.7446880     1.2038920     0.0820450
  C       -2.4173070    -1.5045610    -0.1045420
  C       -3.3619920    -0.4731600     0.1685110
  H        3.3343810     0.7567850     1.4508530
  H        0.9047070     0.4438290     1.6934890
  H        0.9853290     2.1340670     1.1581470
  H        0.5274540     1.5132540    -1.1249130
  H        3.4106419    -0.3641203    -1.0732761
  H        1.9707490    -1.7331840     1.2432230
  H        3.7460890    -1.6095150     1.0882890
  H        3.1038510     2.7463240     0.1779830
  H       -0.3107400    -1.7892010    -0.5436980
  H        2.9100300    -3.5650720     0.1192120
  H       -2.7034680    -2.5490840    -0.1532500
  H       -5.0287110    -1.6377420    -0.0567190
  H       -5.2994710    -0.0137980     0.3861010
units angstrom
no_reorient  #important for SAPT in psi4, default
symmetry c1  #important for SAPT in psi4, default
}

set PROPERTIES_ORIGIN ["COM"]
properties('MP2/aug-cc-pvtz', properties = ['dipole'])
--------------------------------------------------------------------------

    Molecular point group: c1
  Charge       = 0
  Multiplicity = 1
  Basis Set: AUG-CC-PVTZ
    Blend: AUG-CC-PVTZ
  Basis Set: (AUG-CC-PVTZ AUX)
    Blend: AUG-CC-PVTZ-JKFIT

    Orbital Energies [Eh]
    ---------------------

    Doubly Occupied:

       1A    -20.577645     2A    -20.574307     3A    -20.572805
       4A    -20.503209     5A    -15.622030     6A    -15.588477
       7A    -15.540964     8A    -11.370095     9A    -11.345188
      10A    -11.331135    11A    -11.318483    12A    -11.300962
      13A    -11.296857    14A    -11.292549    15A    -11.237218
      16A    -11.237186    17A     -1.414792    18A     -1.382521
      19A     -1.373484    20A     -1.365114    21A     -1.292391
      22A     -1.261631    23A     -1.169269    24A     -1.079355
      25A     -1.068591    26A     -1.027702    27A     -0.926844
      28A     -0.897525    29A     -0.869032    30A     -0.830613
      31A     -0.806220    32A     -0.754369    33A     -0.738446
      34A     -0.720633    35A     -0.706845    36A     -0.692506
      37A     -0.689294    38A     -0.675284    39A     -0.656210
      40A     -0.637158    41A     -0.627699    42A     -0.618552
      43A     -0.604788    44A     -0.594984    45A     -0.588585
      46A     -0.572697    47A     -0.567291    48A     -0.545083
      49A     -0.532673    50A     -0.523796    51A     -0.510525
      52A     -0.485992    53A     -0.482278    54A     -0.468448
      55A     -0.460961    56A     -0.444613    57A     -0.437917
      58A     -0.416500    59A     -0.383894    60A     -0.335110

  @DF-RHF Final Energy:  -811.47899205230453

   => Energetics <=

    Nuclear Repulsion Energy =           1169.6318696264561368
    One-Electron Energy =               -3434.3270741858173096
    Two-Electron Energy =                1453.2162125070567527
    Total Energy =                       -811.4789920523044202
  Basis Set: (AUG-CC-PVTZ AUX)
    Blend: AUG-CC-PVTZ-RI
    Molecular point group: c1

    Geometry (in Angstrom), charge = 0, multiplicity = 1:

       Center              X                  Y                   Z               Mass
    ------------   -----------------  -----------------  -----------------  -----------------
         O            1.367390893774    -0.379665588757    -0.942248365552    15.994914619570
         O            3.201686593774     1.901186011243    -0.298692865552    15.994914619570
         O            2.799036593774    -2.748973988757    -0.399380865552    15.994914619570
         O           -1.362556406226     2.373978011243     0.155603134448    15.994914619570
         N           -0.798614406226     0.199391011243    -0.228435865552    14.003074004430
         N           -3.054542406226     0.805212011243     0.240832134448    14.003074004430
         N           -4.673780406226    -0.812461988757     0.413457134448    14.003074004430
         C            2.701224593774     0.875527011243     0.560294134448    12.000000000000
         C            1.236473593774     1.107199011243     0.888672134448    12.000000000000
         C            2.651448593774    -0.392317988757    -0.284649865552    12.000000000000
         C            0.573587593774     0.682977011243    -0.414095865552    12.000000000000
         C            2.801727593774    -1.660042988757     0.523290134448    12.000000000000
         C           -1.127707406226    -1.115845988757    -0.307455865552    12.000000000000
         C           -1.745058406226     1.203865011243     0.082865134448    12.000000000000
         C           -2.417677406226    -1.504587988757    -0.103721865552    12.000000000000
         C           -3.362362406226    -0.473186988757     0.169331134448    12.000000000000
         H            3.334010593774     0.756758011243     1.451673134448     1.007825032230
         H            0.904336593774     0.443802011243     1.694309134448     1.007825032230
         H            0.984958593774     2.134040011243     1.158967134448     1.007825032230
         H            0.527083593774     1.513227011243    -1.124092865552     1.007825032230
         H            3.410271493774    -0.364147288757    -1.072455965552     1.007825032230
         H            1.970378593774    -1.733210988757     1.244043134448     1.007825032230
         H            3.745718593774    -1.609541988757     1.089109134448     1.007825032230
         H            3.103480593774     2.746297011243     0.178803134448     1.007825032230
         H           -0.311110406226    -1.789227988757    -0.542877865552     1.007825032230
         H            2.909659593774    -3.565098988757     0.120032134448     1.007825032230
         H           -2.703838406226    -2.549110988757    -0.152429865552     1.007825032230
         H           -5.029081406226    -1.637768988757    -0.055898865552     1.007825032230
         H           -5.299841406226    -0.013824988757     0.386921134448     1.007825032230

  Basis Set: AUG-CC-PVTZ
    Blend: AUG-CC-PVTZ
  Basis Set: (AUG-CC-PVTZ AUX)
    Blend: AUG-CC-PVTZ-JKFIT
	 Reference Energy          =    -811.4789920523045339 [Eh]
	 Singles Energy            =      -0.0000000000000000 [Eh]
	 Same-Spin Energy          =      -0.8296836856860343 [Eh]
	 Opposite-Spin Energy      =      -2.5253505992484051 [Eh]
	 Correlation Energy        =      -3.3550342849344394 [Eh]
	 Total Energy              =    -814.8340263372389245 [Eh]

	 ================> DF-SCS-MP2 Energies <==================
	-----------------------------------------------------------
	 SCS Same-Spin Scale       =       0.3333333333333333 [-]
	 SCS Opposite-Spin Scale   =       1.2000000000000000 [-]
	 SCS Same-Spin Energy      =      -0.2765612285620114 [Eh]
	 SCS Opposite-Spin Energy  =      -3.0304207190980859 [Eh]
	 SCS Correlation Energy    =      -3.3069819476600975 [Eh]
	 SCS Total Energy          =    -814.7859739999646536 [Eh]
	-----------------------------------------------------------

  Dipole Moment: [D]
     X:     1.0482      Y:    -4.6710      Z:     2.5098     Total:     5.4052

*** Psi4 exiting successfully. Buy a developer a beer!
