                               Psi4 1.3.2 release

  ==> Input File <==

--------------------------------------------------------------------------
#psi4
#
memory 32 gb

molecule  {
0 1
  O        1.3620710    -0.3800110    -0.9318440
  O        3.2020570     1.9012130    -0.2995130
  O        2.7994070    -2.7489470    -0.4002010
  O       -1.3621860     2.3740050     0.1547830
  N       -0.8012852     0.1913813    -0.2797252
  N       -3.0541720     0.8052390     0.2400120
  N       -4.6734100    -0.8124350     0.4126370
  C        2.7015950     0.8755540     0.5594740
  C        1.2806058     1.1197062     0.8604376
  C        2.6518190    -0.3922910    -0.2854700
  C        0.5739580     0.6830040    -0.4149160
  C        2.8020980    -1.6600160     0.5224700
  C       -1.1273370    -1.1158190    -0.3082760
  C       -1.7446880     1.2038920     0.0820450
  C       -2.4173070    -1.5045610    -0.1045420
  C       -3.3619920    -0.4731600     0.1685110
  H        3.3343810     0.7567850     1.4508530
  H        0.9047070     0.4438290     1.6934890
  H        0.9853290     2.1340670     1.1581470
  H        0.5274540     1.5132540    -1.1249130
  H        3.4174920    -0.3642830    -1.0666260
  H        1.9707490    -1.7331840     1.2432230
  H        3.7460890    -1.6095150     1.0882890
  H        3.1038510     2.7463240     0.1779830
  H       -0.3107400    -1.7892010    -0.5436980
  H        2.9100300    -3.5650720     0.1192120
  H       -2.7034680    -2.5490840    -0.1532500
  H       -5.0287110    -1.6377420    -0.0567190
  H       -5.2994710    -0.0137980     0.3861010
units angstrom
no_reorient  #important for SAPT in psi4, default
symmetry c1  #important for SAPT in psi4, default
}

set PROPERTIES_ORIGIN ["COM"]
properties('MP2/aug-cc-pvtz', properties = ['dipole'])
--------------------------------------------------------------------------

    Molecular point group: c1
  Charge       = 0
  Multiplicity = 1
  Basis Set: AUG-CC-PVTZ
    Blend: AUG-CC-PVTZ
  Basis Set: (AUG-CC-PVTZ AUX)
    Blend: AUG-CC-PVTZ-JKFIT

    Orbital Energies [Eh]
    ---------------------

    Doubly Occupied:

       1A    -20.577594     2A    -20.573610     3A    -20.571967
       4A    -20.506165     5A    -15.622927     6A    -15.588497
       7A    -15.541164     8A    -11.372525     9A    -11.345295
      10A    -11.330844    11A    -11.317377    12A    -11.299533
      13A    -11.296735    14A    -11.293248    15A    -11.240002
      16A    -11.235898    17A     -1.417253    18A     -1.382746
      19A     -1.373895    20A     -1.365996    21A     -1.293462
      22A     -1.262480    23A     -1.169498    24A     -1.082783
      25A     -1.070280    26A     -1.028208    27A     -0.928773
      28A     -0.896100    29A     -0.868717    30A     -0.829634
      31A     -0.807963    32A     -0.753545    33A     -0.740388
      34A     -0.721373    35A     -0.707298    36A     -0.692761
      37A     -0.688459    38A     -0.675322    39A     -0.656962
      40A     -0.639543    41A     -0.625803    42A     -0.619347
      43A     -0.603698    44A     -0.594385    45A     -0.589023
      46A     -0.577459    47A     -0.569396    48A     -0.542776
      49A     -0.530436    50A     -0.522537    51A     -0.504729
      52A     -0.488274    53A     -0.484732    54A     -0.468905
      55A     -0.464120    56A     -0.446021    57A     -0.436786
      58A     -0.416715    59A     -0.384362    60A     -0.334603

  @DF-RHF Final Energy:  -811.47446227861383

   => Energetics <=

    Nuclear Repulsion Energy =           1170.0323508116669018
    One-Electron Energy =               -3435.0717688366148650
    Two-Electron Energy =                1453.5649557463339079
    Total Energy =                       -811.4744622786138279
  Basis Set: (AUG-CC-PVTZ AUX)
    Blend: AUG-CC-PVTZ-RI
    Molecular point group: c1

    Geometry (in Angstrom), charge = 0, multiplicity = 1:

       Center              X                  Y                   Z               Mass
    ------------   -----------------  -----------------  -----------------  -----------------
         O            1.359946037308    -0.380174953542    -0.927283245447    15.994914619570
         O            3.199932037308     1.901049046458    -0.294952245447    15.994914619570
         O            2.797282037308    -2.749110953542    -0.395640245447    15.994914619570
         O           -1.364310962692     2.373841046458     0.159343754553    15.994914619570
         N           -0.803410162692     0.191217346458    -0.275164445447    14.003074004430
         N           -3.056296962692     0.805075046458     0.244572754553    14.003074004430
         N           -4.675534962692    -0.812598953542     0.417197754553    14.003074004430
         C            2.699470037308     0.875390046458     0.564034754553    12.000000000000
         C            1.278480837308     1.119542246458     0.864998354553    12.000000000000
         C            2.649694037308    -0.392454953542    -0.280909245447    12.000000000000
         C            0.571833037308     0.682840046458    -0.410355245447    12.000000000000
         C            2.799973037308    -1.660179953542     0.527030754553    12.000000000000
         C           -1.129461962692    -1.115982953542    -0.303715245447    12.000000000000
         C           -1.746812962692     1.203728046458     0.086605754553    12.000000000000
         C           -2.419431962692    -1.504724953542    -0.099981245447    12.000000000000
         C           -3.364116962692    -0.473323953542     0.173071754553    12.000000000000
         H            3.332256037308     0.756621046458     1.455413754553     1.007825032230
         H            0.902582037308     0.443665046458     1.698049754553     1.007825032230
         H            0.983204037308     2.133903046458     1.162707754553     1.007825032230
         H            0.525329037308     1.513090046458    -1.120352245447     1.007825032230
         H            3.415367037308    -0.364446953542    -1.062065245447     1.007825032230
         H            1.968624037308    -1.733347953542     1.247783754553     1.007825032230
         H            3.743964037308    -1.609678953542     1.092849754553     1.007825032230
         H            3.101726037308     2.746160046458     0.182543754553     1.007825032230
         H           -0.312864962692    -1.789364953542    -0.539137245447     1.007825032230
         H            2.907905037308    -3.565235953542     0.123772754553     1.007825032230
         H           -2.705592962692    -2.549247953542    -0.148689245447     1.007825032230
         H           -5.030835962692    -1.637905953542    -0.052158245447     1.007825032230
         H           -5.301595962692    -0.013961953542     0.390661754553     1.007825032230

  Basis Set: AUG-CC-PVTZ
    Blend: AUG-CC-PVTZ
  Basis Set: (AUG-CC-PVTZ AUX)
    Blend: AUG-CC-PVTZ-JKFIT
	 Reference Energy          =    -811.4744622786138279 [Eh]
	 Singles Energy            =      -0.0000000000000000 [Eh]
	 Same-Spin Energy          =      -0.8300488969868052 [Eh]
	 Opposite-Spin Energy      =      -2.5255187541838007 [Eh]
	 Correlation Energy        =      -3.3555676511706061 [Eh]
	 Total Energy              =    -814.8300299297844731 [Eh]

	 ================> DF-SCS-MP2 Energies <==================
	-----------------------------------------------------------
	 SCS Same-Spin Scale       =       0.3333333333333333 [-]
	 SCS Opposite-Spin Scale   =       1.2000000000000000 [-]
	 SCS Same-Spin Energy      =      -0.2766829656622684 [Eh]
	 SCS Opposite-Spin Energy  =      -3.0306225050205606 [Eh]
	 SCS Correlation Energy    =      -3.3073054706828291 [Eh]
	 SCS Total Energy          =    -814.7817677492967050 [Eh]
	-----------------------------------------------------------

  Dipole Moment: [D]
     X:     1.0275      Y:    -4.6143      Z:     2.5183     Total:     5.3563

*** Psi4 exiting successfully. Buy a developer a beer!
