                               Psi4 1.3.2 release

  ==> Input File <==

--------------------------------------------------------------------------
#psi4
#
memory 32 gb

molecule  {
0 1
  O        1.3620710    -0.3800110    -0.9318440
  O        3.2020570     1.9012130    -0.2995130
  O        2.7994070    -2.7489470    -0.4002010
  O       -1.3621860     2.3740050     0.1547830
  N       -0.7982440     0.1994180    -0.2292560
  N       -3.0541720     0.8052390     0.2400120
  N       -4.6734100    -0.8124350     0.4126370
  C        2.7015950     0.8755540     0.5594740
  C        1.2368440     1.1072260     0.8878520
  C        2.6518190    -0.3922910    -0.2854700
  C        0.5739580     0.6830040    -0.4149160
  C        2.8020980    -1.6600160     0.5224700
  C       -1.1273370    -1.1158190    -0.3082760
  C       -1.7446880     1.2038920     0.0820450
  C       -2.4173070    -1.5045610    -0.1045420
  C       -3.3619920    -0.4731600     0.1685110
  H        3.3343810     0.7567850     1.4508530
  H        0.9047070     0.4438290     1.6934890
  H        0.9853290     2.1340670     1.1581470
  H        0.5274540     1.5132540    -1.1249130
  H        3.4174920    -0.3642830    -1.0666260
  H        1.9707490    -1.7331840     1.2432230
  H        3.7460890    -1.6095150     1.0882890
  H        3.0837192     2.9195677     0.2758674
  H       -0.3107400    -1.7892010    -0.5436980
  H        2.9100300    -3.5650720     0.1192120
  H       -2.7034680    -2.5490840    -0.1532500
  H       -5.0287110    -1.6377420    -0.0567190
  H       -5.2994710    -0.0137980     0.3861010
units angstrom
no_reorient  #important for SAPT in psi4, default
symmetry c1  #important for SAPT in psi4, default
}

set PROPERTIES_ORIGIN ["COM"]
properties('MP2/aug-cc-pvtz', properties = ['dipole'])
--------------------------------------------------------------------------

    Molecular point group: c1
  Charge       = 0
  Multiplicity = 1
  Basis Set: AUG-CC-PVTZ
    Blend: AUG-CC-PVTZ
  Basis Set: (AUG-CC-PVTZ AUX)
    Blend: AUG-CC-PVTZ-JKFIT

    Orbital Energies [Eh]
    ---------------------

    Doubly Occupied:

       1A    -20.588665     2A    -20.577517     3A    -20.572335
       4A    -20.502708     5A    -15.621263     6A    -15.588096
       7A    -15.540491     8A    -11.369547     9A    -11.344719
      10A    -11.329925    11A    -11.317912    12A    -11.299089
      13A    -11.296734    14A    -11.292968    15A    -11.236658
      16A    -11.235487    17A     -1.414911    18A     -1.380961
      19A     -1.370000    20A     -1.340547    21A     -1.291834
      22A     -1.260982    23A     -1.168791    24A     -1.076164
      25A     -1.064966    26A     -1.027346    27A     -0.923786
      28A     -0.896480    29A     -0.865440    30A     -0.826852
      31A     -0.805028    32A     -0.753692    33A     -0.737501
      34A     -0.719642    35A     -0.702895    36A     -0.691793
      37A     -0.675381    38A     -0.662308    39A     -0.655879
      40A     -0.633691    41A     -0.624120    42A     -0.616642
      43A     -0.603156    44A     -0.592520    45A     -0.587889
      46A     -0.571015    47A     -0.563803    48A     -0.543070
      49A     -0.530871    50A     -0.522865    51A     -0.509358
      52A     -0.481459    53A     -0.478030    54A     -0.467680
      55A     -0.458269    56A     -0.443823    57A     -0.437141
      58A     -0.415929    59A     -0.383383    60A     -0.334535

  @DF-RHF Final Energy:  -811.44338930183574

   => Energetics <=

    Nuclear Repulsion Energy =           1168.7849753969692301
    One-Electron Energy =               -3432.8036414051457541
    Two-Electron Energy =                1452.5752767063404463
    Total Energy =                       -811.4433893018358503
  Basis Set: (AUG-CC-PVTZ AUX)
    Blend: AUG-CC-PVTZ-RI
    Molecular point group: c1

    Geometry (in Angstrom), charge = 0, multiplicity = 1:

       Center              X                  Y                   Z               Mass
    ------------   -----------------  -----------------  -----------------  -----------------
         O            1.362160328742    -0.380779890244    -0.932278375415    15.994914619570
         O            3.202146328742     1.900444109756    -0.299947375415    15.994914619570
         O            2.799496328742    -2.749715890244    -0.400635375415    15.994914619570
         O           -1.362096671258     2.373236109756     0.154348624585    15.994914619570
         N           -0.798154671258     0.198649109756    -0.229690375415    14.003074004430
         N           -3.054082671258     0.804470109756     0.239577624585    14.003074004430
         N           -4.673320671258    -0.813203890244     0.412202624585    14.003074004430
         C            2.701684328742     0.874785109756     0.559039624585    12.000000000000
         C            1.236933328742     1.106457109756     0.887417624585    12.000000000000
         C            2.651908328742    -0.393059890244    -0.285904375415    12.000000000000
         C            0.574047328742     0.682235109756    -0.415350375415    12.000000000000
         C            2.802187328742    -1.660784890244     0.522035624585    12.000000000000
         C           -1.127247671258    -1.116587890244    -0.308710375415    12.000000000000
         C           -1.744598671258     1.203123109756     0.081610624585    12.000000000000
         C           -2.417217671258    -1.505329890244    -0.104976375415    12.000000000000
         C           -3.361902671258    -0.473928890244     0.168076624585    12.000000000000
         H            3.334470328742     0.756016109756     1.450418624585     1.007825032230
         H            0.904796328742     0.443060109756     1.693054624585     1.007825032230
         H            0.985418328742     2.133298109756     1.157712624585     1.007825032230
         H            0.527543328742     1.512485109756    -1.125347375415     1.007825032230
         H            3.417581328742    -0.365051890244    -1.067060375415     1.007825032230
         H            1.970838328742    -1.733952890244     1.242788624585     1.007825032230
         H            3.746178328742    -1.610283890244     1.087854624585     1.007825032230
         H            3.083808528742     2.918798809756     0.275433024585     1.007825032230
         H           -0.310650671258    -1.789969890244    -0.544132375415     1.007825032230
         H            2.910119328742    -3.565840890244     0.118777624585     1.007825032230
         H           -2.703378671258    -2.549852890244    -0.153684375415     1.007825032230
         H           -5.028621671258    -1.638510890244    -0.057153375415     1.007825032230
         H           -5.299381671258    -0.014566890244     0.385666624585     1.007825032230

  Basis Set: AUG-CC-PVTZ
    Blend: AUG-CC-PVTZ
  Basis Set: (AUG-CC-PVTZ AUX)
    Blend: AUG-CC-PVTZ-JKFIT
	 Reference Energy          =    -811.4433893018357367 [Eh]
	 Singles Energy            =      -0.0000000000000000 [Eh]
	 Same-Spin Energy          =      -0.8319069258833185 [Eh]
	 Opposite-Spin Energy      =      -2.5319862789469827 [Eh]
	 Correlation Energy        =      -3.3638932048303012 [Eh]
	 Total Energy              =    -814.8072825066660698 [Eh]

	 ================> DF-SCS-MP2 Energies <==================
	-----------------------------------------------------------
	 SCS Same-Spin Scale       =       0.3333333333333333 [-]
	 SCS Opposite-Spin Scale   =       1.2000000000000000 [-]
	 SCS Same-Spin Energy      =      -0.2773023086277728 [Eh]
	 SCS Opposite-Spin Energy  =      -3.0383835347363792 [Eh]
	 SCS Correlation Energy    =      -3.3156858433641521 [Eh]
	 SCS Total Energy          =    -814.7590751451998585 [Eh]
	-----------------------------------------------------------

  Dipole Moment: [D]
     X:     1.0959      Y:    -4.5459      Z:     2.5347     Total:     5.3189

*** Psi4 exiting successfully. Buy a developer a beer!
