                               Psi4 1.4a3.dev225

  ==> Input File <==

--------------------------------------------------------------------------
#psi4
#
memory 32 gb

molecule  {
0 1
  O       -1.4695130     0.3030610    -1.0874480
  O       -3.6436400    -1.4204040    -0.2669360
  O       -1.6911330     2.8536240     0.0000030
  O        1.1857770    -2.4961310     0.0874550
  N        0.6842480    -0.3150290    -0.3399290
  N        2.9133760    -0.9647370     0.2108410
  N        4.5636770     0.6178870     0.3785230
  C       -2.7686820    -0.6858470     0.5863090
  C       -1.3787780    -1.3118450     0.6568060
  C       -2.4925280     0.6283540    -0.1295840
  C       -0.6939390    -0.7805590    -0.6115670
  C       -2.0414120     1.7324860     0.8087370
  C        1.0545030     0.9838330    -0.4888120
  C        1.6080830    -1.3384950     0.0010630
  C        2.3487550     1.3478080    -0.2622830
  C        3.2578570     0.3046130     0.0876290
  H       -3.2188600    -0.5381750     1.5798200
  H       -0.8341690    -0.9801840     1.5464130
  H       -1.3950130    -2.4033150     0.6754970
  H       -0.6263030    -1.5384450    -1.3968420
  H       -3.3591510     0.9641520    -0.7058050
  H       -1.2005368     1.4001411     1.3988825
  H       -2.8667900     1.9743150     1.4948250
  H       -3.6905400    -2.3294490     0.0774600
  H        0.2668220     1.6750250    -0.7707300
  H       -1.4321050     3.5760960     0.5972330
  H        2.6621150     2.3809760    -0.3596430
  H        4.9550500     1.4416620    -0.0591730
  H        5.1797170    -0.1867780     0.4106900
units angstrom
no_reorient  #important for SAPT in psi4, default
symmetry c1  #important for SAPT in psi4, default
}

set PROPERTIES_ORIGIN ["COM"]
properties('MP2/aug-cc-pvtz', properties = ['dipole'])
--------------------------------------------------------------------------

    Molecular point group: c1
  Charge       = 0
  Multiplicity = 1
  Basis Set: AUG-CC-PVTZ
    Blend: AUG-CC-PVTZ
  Basis Set: (AUG-CC-PVTZ AUX)
    Blend: AUG-CC-PVTZ-JKFIT

    Orbital Energies [Eh]
    ---------------------

    Doubly Occupied:

       1A    -20.583154     2A    -20.574381     3A    -20.572627
       4A    -20.501919     5A    -15.619118     6A    -15.588933
       7A    -15.539858     8A    -11.368796     9A    -11.345839
      10A    -11.333169    11A    -11.314595    12A    -11.299486
      13A    -11.297779    14A    -11.294503    15A    -11.237318
      16A    -11.235352    17A     -1.418837    18A     -1.381586
      19A     -1.377445    20A     -1.366061    21A     -1.290280
      22A     -1.258648    23A     -1.168510    24A     -1.076316
      25A     -1.068050    26A     -1.025041    27A     -0.931095
      28A     -0.895305    29A     -0.868018    30A     -0.830280
      31A     -0.805776    32A     -0.753759    33A     -0.737832
      34A     -0.725920    35A     -0.707389    36A     -0.701821
      37A     -0.690553    38A     -0.673711    39A     -0.651755
      40A     -0.642527    41A     -0.622671    42A     -0.617829
      43A     -0.606658    44A     -0.595790    45A     -0.587755
      46A     -0.572535    47A     -0.565702    48A     -0.551506
      49A     -0.526813    50A     -0.520679    51A     -0.510839
      52A     -0.485086    53A     -0.480763    54A     -0.473334
      55A     -0.459564    56A     -0.448165    57A     -0.440782
      58A     -0.413641    59A     -0.382445    60A     -0.333946

  @DF-RHF Final Energy:  -811.47937217939341

   => Energetics <=

    Nuclear Repulsion Energy =           1185.2214662391259026
    One-Electron Energy =               -3465.5019891103897862
    Two-Electron Energy =                1468.8011506918705891
    Total Energy =                       -811.4793721793935219
  Basis Set: (AUG-CC-PVTZ AUX)
    Blend: AUG-CC-PVTZ-RI
    Molecular point group: c1

    Geometry (in Angstrom), charge = 0, multiplicity = 1:

       Center              X                  Y                   Z               Mass
    ------------   -----------------  -----------------  -----------------  -----------------
         O           -1.493903128240     0.326749088421    -1.067772200280    15.994914619570
         O           -3.668030128240    -1.396715911579    -0.247260200280    15.994914619570
         O           -1.715523128240     2.877312088421     0.019678799720    15.994914619570
         O            1.161386871760    -2.472442911579     0.107130799720    15.994914619570
         N            0.659857871760    -0.291340911579    -0.320253200280    14.003074004430
         N            2.888985871760    -0.941048911579     0.230516799720    14.003074004430
         N            4.539286871760     0.641575088421     0.398198799720    14.003074004430
         C           -2.793072128240    -0.662158911579     0.605984799720    12.000000000000
         C           -1.403168128240    -1.288156911579     0.676481799720    12.000000000000
         C           -2.516918128240     0.652042088421    -0.109908200280    12.000000000000
         C           -0.718329128240    -0.756870911579    -0.591891200280    12.000000000000
         C           -2.065802128240     1.756174088421     0.828412799720    12.000000000000
         C            1.030112871760     1.007521088421    -0.469136200280    12.000000000000
         C            1.583692871760    -1.314806911579     0.020738799720    12.000000000000
         C            2.324364871760     1.371496088421    -0.242607200280    12.000000000000
         C            3.233466871760     0.328301088421     0.107304799720    12.000000000000
         H           -3.243250128240    -0.514486911579     1.599495799720     1.007825032230
         H           -0.858559128240    -0.956495911579     1.566088799720     1.007825032230
         H           -1.419403128240    -2.379626911579     0.695172799720     1.007825032230
         H           -0.650693128240    -1.514756911579    -1.377166200280     1.007825032230
         H           -3.383541128240     0.987840088421    -0.686129200280     1.007825032230
         H           -1.224926928240     1.423829188421     1.418558299720     1.007825032230
         H           -2.891180128240     1.998003088421     1.514500799720     1.007825032230
         H           -3.714930128240    -2.305760911579     0.097135799720     1.007825032230
         H            0.242431871760     1.698713088421    -0.751054200280     1.007825032230
         H           -1.456495128240     3.599784088421     0.616908799720     1.007825032230
         H            2.637724871760     2.404664088421    -0.339967200280     1.007825032230
         H            4.930659871760     1.465350088421    -0.039497200280     1.007825032230
         H            5.155326871760    -0.163089911579     0.430365799720     1.007825032230

  Basis Set: AUG-CC-PVTZ
    Blend: AUG-CC-PVTZ
  Basis Set: (AUG-CC-PVTZ AUX)
    Blend: AUG-CC-PVTZ-JKFIT
	 Reference Energy          =    -811.4793721793934083 [Eh]
	 Singles Energy            =      -0.0000000000000000 [Eh]
	 Same-Spin Energy          =      -0.8307513182310946 [Eh]
	 Opposite-Spin Energy      =      -2.5268363658464379 [Eh]
	 Correlation Energy        =      -3.3575876840775325 [Eh]
	 Total Energy              =    -814.8369598634709519 [Eh]

	 ================> DF-SCS-MP2 Energies <==================
	-----------------------------------------------------------
	 SCS Same-Spin Scale       =       0.3333333333333333 [-]
	 SCS Opposite-Spin Scale   =       1.2000000000000000 [-]
	 SCS Same-Spin Energy      =      -0.2769171060770315 [Eh]
	 SCS Opposite-Spin Energy  =      -3.0322036390157252 [Eh]
	 SCS Correlation Energy    =      -3.3091207450927569 [Eh]
	 SCS Total Energy          =    -814.7884929244861496 [Eh]
	-----------------------------------------------------------

  Dipole Moment: [D]
     X:    -0.3205      Y:     4.5912      Z:     2.4165     Total:     5.1981

*** Psi4 exiting successfully. Buy a developer a beer!
