                               Psi4 1.3.2 release

  ==> Input File <==

--------------------------------------------------------------------------
#psi4
#
memory 32 gb

molecule  {
0 1
  O        1.3620710    -0.3800110    -0.9318440
  O        3.2020570     1.9012130    -0.2995130
  O        2.7994070    -2.7489470    -0.4002010
  O       -1.3621860     2.3740050     0.1547830
  N       -0.7982440     0.1994180    -0.2292560
  N       -3.0541720     0.8052390     0.2400120
  N       -4.6734100    -0.8124350     0.4126370
  C        2.7015950     0.8755540     0.5594740
  C        1.2401597     1.1180599     0.8947310
  C        2.6650532    -0.3918824    -0.2867580
  C        0.5739580     0.6830040    -0.4149160
  C        2.8020980    -1.6600160     0.5224700
  C       -1.1273370    -1.1158190    -0.3082760
  C       -1.7446880     1.2038920     0.0820450
  C       -2.4173070    -1.5045610    -0.1045420
  C       -3.3619920    -0.4731600     0.1685110
  H        3.3343810     0.7567850     1.4508530
  H        0.9047070     0.4438290     1.6934890
  H        0.9853290     2.1340670     1.1581470
  H        0.5274540     1.5132540    -1.1249130
  H        3.4174920    -0.3642830    -1.0666260
  H        1.9707490    -1.7331840     1.2432230
  H        3.7460890    -1.6095150     1.0882890
  H        3.1038510     2.7463240     0.1779830
  H       -0.3107400    -1.7892010    -0.5436980
  H        2.9100300    -3.5650720     0.1192120
  H       -2.7034680    -2.5490840    -0.1532500
  H       -5.0287110    -1.6377420    -0.0567190
  H       -5.2994710    -0.0137980     0.3861010
units angstrom
no_reorient  #important for SAPT in psi4, default
symmetry c1  #important for SAPT in psi4, default
}

set PROPERTIES_ORIGIN ["COM"]
properties('MP2/aug-cc-pvtz', properties = ['dipole'])
--------------------------------------------------------------------------

    Molecular point group: c1
  Charge       = 0
  Multiplicity = 1
  Basis Set: AUG-CC-PVTZ
    Blend: AUG-CC-PVTZ
  Basis Set: (AUG-CC-PVTZ AUX)
    Blend: AUG-CC-PVTZ-JKFIT

    Orbital Energies [Eh]
    ---------------------

    Doubly Occupied:

       1A    -20.578074     2A    -20.574272     3A    -20.571825
       4A    -20.502830     5A    -15.621433     6A    -15.588143
       7A    -15.540550     8A    -11.369620     9A    -11.344775
      10A    -11.330487    11A    -11.317943    12A    -11.301213
      13A    -11.297412    14A    -11.293494    15A    -11.236722
      16A    -11.236719    17A     -1.413713    18A     -1.382124
      19A     -1.373834    20A     -1.364894    21A     -1.291879
      22A     -1.260851    23A     -1.168772    24A     -1.077801
      25A     -1.068983    26A     -1.027597    27A     -0.926439
      28A     -0.897154    29A     -0.869210    30A     -0.830388
      31A     -0.807091    32A     -0.753930    33A     -0.737750
      34A     -0.720687    35A     -0.706635    36A     -0.693207
      37A     -0.689110    38A     -0.675457    39A     -0.656124
      40A     -0.636751    41A     -0.626605    42A     -0.618350
      43A     -0.604340    44A     -0.594773    45A     -0.587810
      46A     -0.572152    47A     -0.569529    48A     -0.545685
      49A     -0.531988    50A     -0.524654    51A     -0.509566
      52A     -0.486878    53A     -0.482216    54A     -0.468606
      55A     -0.461315    56A     -0.444223    57A     -0.437397
      58A     -0.416136    59A     -0.383334    60A     -0.334558

  @DF-RHF Final Energy:  -811.47896876256402

   => Energetics <=

    Nuclear Repulsion Energy =           1169.4175049144105287
    One-Electron Energy =               -3433.9209323249128829
    Two-Electron Energy =                1453.0244586479382178
    Total Energy =                       -811.4789687625641363
  Basis Set: (AUG-CC-PVTZ AUX)
    Blend: AUG-CC-PVTZ-RI
    Molecular point group: c1

    Geometry (in Angstrom), charge = 0, multiplicity = 1:

       Center              X                  Y                   Z               Mass
    ------------   -----------------  -----------------  -----------------  -----------------
         O            1.361196448571    -0.380605117108    -0.932139407321    15.994914619570
         O            3.201182448571     1.900618882892    -0.299808407321    15.994914619570
         O            2.798532448571    -2.749541117108    -0.400496407321    15.994914619570
         O           -1.363060551429     2.373410882892     0.154487592679    15.994914619570
         N           -0.799118551429     0.198823882892    -0.229551407321    14.003074004430
         N           -3.055046551429     0.804644882892     0.239716592679    14.003074004430
         N           -4.674284551429    -0.813029117108     0.412341592679    14.003074004430
         C            2.700720448571     0.874959882892     0.559178592679    12.000000000000
         C            1.239285148571     1.117465782892     0.894435592679    12.000000000000
         C            2.664178648571    -0.392476517108    -0.287053407321    12.000000000000
         C            0.573083448571     0.682409882892    -0.415211407321    12.000000000000
         C            2.801223448571    -1.660610117108     0.522174592679    12.000000000000
         C           -1.128211551429    -1.116413117108    -0.308571407321    12.000000000000
         C           -1.745562551429     1.203297882892     0.081749592679    12.000000000000
         C           -2.418181551429    -1.505155117108    -0.104837407321    12.000000000000
         C           -3.362866551429    -0.473754117108     0.168215592679    12.000000000000
         H            3.333506448571     0.756190882892     1.450557592679     1.007825032230
         H            0.903832448571     0.443234882892     1.693193592679     1.007825032230
         H            0.984454448571     2.133472882892     1.157851592679     1.007825032230
         H            0.526579448571     1.512659882892    -1.125208407321     1.007825032230
         H            3.416617448571    -0.364877117108    -1.066921407321     1.007825032230
         H            1.969874448571    -1.733778117108     1.242927592679     1.007825032230
         H            3.745214448571    -1.610109117108     1.087993592679     1.007825032230
         H            3.102976448571     2.745729882892     0.177687592679     1.007825032230
         H           -0.311614551429    -1.789795117108    -0.543993407321     1.007825032230
         H            2.909155448571    -3.565666117108     0.118916592679     1.007825032230
         H           -2.704342551429    -2.549678117108    -0.153545407321     1.007825032230
         H           -5.029585551429    -1.638336117108    -0.057014407321     1.007825032230
         H           -5.300345551429    -0.014392117108     0.385805592679     1.007825032230

  Basis Set: AUG-CC-PVTZ
    Blend: AUG-CC-PVTZ
  Basis Set: (AUG-CC-PVTZ AUX)
    Blend: AUG-CC-PVTZ-JKFIT
	 Reference Energy          =    -811.4789687625640227 [Eh]
	 Singles Energy            =      -0.0000000000000000 [Eh]
	 Same-Spin Energy          =      -0.8295534443353046 [Eh]
	 Opposite-Spin Energy      =      -2.5251884006422602 [Eh]
	 Correlation Energy        =      -3.3547418449775650 [Eh]
	 Total Energy              =    -814.8337106075415477 [Eh]

	 ================> DF-SCS-MP2 Energies <==================
	-----------------------------------------------------------
	 SCS Same-Spin Scale       =       0.3333333333333333 [-]
	 SCS Opposite-Spin Scale   =       1.2000000000000000 [-]
	 SCS Same-Spin Energy      =      -0.2765178147784348 [Eh]
	 SCS Opposite-Spin Energy  =      -3.0302260807707122 [Eh]
	 SCS Correlation Energy    =      -3.3067438955491468 [Eh]
	 SCS Total Energy          =    -814.7857126581131979 [Eh]
	-----------------------------------------------------------

  Dipole Moment: [D]
     X:     1.1226      Y:    -4.6916      Z:     2.4878     Total:     5.4277

*** Psi4 exiting successfully. Buy a developer a beer!
