                               Psi4 1.3.2 release

  ==> Input File <==

--------------------------------------------------------------------------
#psi4
#
memory 32 gb

molecule  {
0 1
  O        1.3620710    -0.3800110    -0.9318440
  O        3.2020570     1.9012130    -0.2995130
  O        2.7994070    -2.7489470    -0.4002010
  O       -1.3621860     2.3740050     0.1547830
  N       -0.7982440     0.1994180    -0.2292560
  N       -3.0760472     0.8100092     0.2452048
  N       -4.6785235    -0.7892385     0.4162234
  C        2.7015950     0.8755540     0.5594740
  C        1.2368440     1.1072260     0.8878520
  C        2.6518190    -0.3922910    -0.2854700
  C        0.5739580     0.6830040    -0.4149160
  C        2.8020980    -1.6600160     0.5224700
  C       -1.1273370    -1.1158190    -0.3082760
  C       -1.7446880     1.2038920     0.0820450
  C       -2.4173070    -1.5045610    -0.1045420
  C       -3.3619920    -0.4731600     0.1685110
  H        3.3343810     0.7567850     1.4508530
  H        0.9047070     0.4438290     1.6934890
  H        0.9853290     2.1340670     1.1581470
  H        0.5274540     1.5132540    -1.1249130
  H        3.4174920    -0.3642830    -1.0666260
  H        1.9707490    -1.7331840     1.2432230
  H        3.7460890    -1.6095150     1.0882890
  H        3.1038510     2.7463240     0.1779830
  H       -0.3107400    -1.7892010    -0.5436980
  H        2.9100300    -3.5650720     0.1192120
  H       -2.7034680    -2.5490840    -0.1532500
  H       -5.0287110    -1.6377420    -0.0567190
  H       -5.2994710    -0.0137980     0.3861010
units angstrom
no_reorient  #important for SAPT in psi4, default
symmetry c1  #important for SAPT in psi4, default
}

set PROPERTIES_ORIGIN ["COM"]
properties('MP2/aug-cc-pvtz', properties = ['dipole'])
--------------------------------------------------------------------------

    Molecular point group: c1
  Charge       = 0
  Multiplicity = 1
  Basis Set: AUG-CC-PVTZ
    Blend: AUG-CC-PVTZ
  Basis Set: (AUG-CC-PVTZ AUX)
    Blend: AUG-CC-PVTZ-JKFIT

    Orbital Energies [Eh]
    ---------------------

    Doubly Occupied:

       1A    -20.578053     2A    -20.574717     3A    -20.573482
       4A    -20.505016     5A    -15.622810     6A    -15.586067
       7A    -15.542300     8A    -11.371638     9A    -11.343166
      10A    -11.331508    11A    -11.319120    12A    -11.301278
      13A    -11.297211    14A    -11.293510    15A    -11.238122
      16A    -11.237298    17A     -1.417156    18A     -1.382367
      19A     -1.373909    20A     -1.366057    21A     -1.292099
      22A     -1.262090    23A     -1.164099    24A     -1.079516
      25A     -1.069411    26A     -1.028292    27A     -0.926644
      28A     -0.898700    29A     -0.866668    30A     -0.829441
      31A     -0.807019    32A     -0.753729    33A     -0.739208
      34A     -0.721135    35A     -0.706346    36A     -0.693579
      37A     -0.688951    38A     -0.673018    39A     -0.656306
      40A     -0.637061    41A     -0.627324    42A     -0.620277
      43A     -0.604580    44A     -0.595990    45A     -0.587895
      46A     -0.572980    47A     -0.568991    48A     -0.545166
      49A     -0.532524    50A     -0.524213    51A     -0.510537
      52A     -0.486355    53A     -0.482318    54A     -0.468849
      55A     -0.461553    56A     -0.446750    57A     -0.439141
      58A     -0.416389    59A     -0.382294    60A     -0.335305

  @DF-RHF Final Energy:  -811.47737644086692

   => Energetics <=

    Nuclear Repulsion Energy =           1169.3438118873370968
    One-Electron Energy =               -3433.7273190602704744
    Two-Electron Energy =                1452.9061307320666856
    Total Energy =                       -811.4773764408669194
  Basis Set: (AUG-CC-PVTZ AUX)
    Blend: AUG-CC-PVTZ-RI
    Molecular point group: c1

    Geometry (in Angstrom), charge = 0, multiplicity = 1:

       Center              X                  Y                   Z               Mass
    ------------   -----------------  -----------------  -----------------  -----------------
         O            1.363735186627    -0.381735545946    -0.932385317041    15.994914619570
         O            3.203721186627     1.899488454054    -0.300054317041    15.994914619570
         O            2.801071186627    -2.750671545946    -0.400742317041    15.994914619570
         O           -1.360521813373     2.372280454054     0.154241682959    15.994914619570
         N           -0.796579813373     0.197693454054    -0.229797317041    14.003074004430
         N           -3.074383013373     0.808284654054     0.244663482959    14.003074004430
         N           -4.676859313373    -0.790963045946     0.415682082959    14.003074004430
         C            2.703259186627     0.873829454054     0.558932682959    12.000000000000
         C            1.238508186627     1.105501454054     0.887310682959    12.000000000000
         C            2.653483186627    -0.394015545946    -0.286011317041    12.000000000000
         C            0.575622186627     0.681279454054    -0.415457317041    12.000000000000
         C            2.803762186627    -1.661740545946     0.521928682959    12.000000000000
         C           -1.125672813373    -1.117543545946    -0.308817317041    12.000000000000
         C           -1.743023813373     1.202167454054     0.081503682959    12.000000000000
         C           -2.415642813373    -1.506285545946    -0.105083317041    12.000000000000
         C           -3.360327813373    -0.474884545946     0.167969682959    12.000000000000
         H            3.336045186627     0.755060454054     1.450311682959     1.007825032230
         H            0.906371186627     0.442104454054     1.692947682959     1.007825032230
         H            0.986993186627     2.132342454054     1.157605682959     1.007825032230
         H            0.529118186627     1.511529454054    -1.125454317041     1.007825032230
         H            3.419156186627    -0.366007545946    -1.067167317041     1.007825032230
         H            1.972413186627    -1.734908545946     1.242681682959     1.007825032230
         H            3.747753186627    -1.611239545946     1.087747682959     1.007825032230
         H            3.105515186627     2.744599454054     0.177441682959     1.007825032230
         H           -0.309075813373    -1.790925545946    -0.544239317041     1.007825032230
         H            2.911694186627    -3.566796545946     0.118670682959     1.007825032230
         H           -2.701803813373    -2.550808545946    -0.153791317041     1.007825032230
         H           -5.027046813373    -1.639466545946    -0.057260317041     1.007825032230
         H           -5.297806813373    -0.015522545946     0.385559682959     1.007825032230

  Basis Set: AUG-CC-PVTZ
    Blend: AUG-CC-PVTZ
  Basis Set: (AUG-CC-PVTZ AUX)
    Blend: AUG-CC-PVTZ-JKFIT
	 Reference Energy          =    -811.4773764408669194 [Eh]
	 Singles Energy            =      -0.0000000000000000 [Eh]
	 Same-Spin Energy          =      -0.8295837453035178 [Eh]
	 Opposite-Spin Energy      =      -2.5255576359095904 [Eh]
	 Correlation Energy        =      -3.3551413812131079 [Eh]
	 Total Energy              =    -814.8325178220800353 [Eh]

	 ================> DF-SCS-MP2 Energies <==================
	-----------------------------------------------------------
	 SCS Same-Spin Scale       =       0.3333333333333333 [-]
	 SCS Opposite-Spin Scale   =       1.2000000000000000 [-]
	 SCS Same-Spin Energy      =      -0.2765279151011726 [Eh]
	 SCS Opposite-Spin Energy  =      -3.0306691630915084 [Eh]
	 SCS Correlation Energy    =      -3.3071970781926812 [Eh]
	 SCS Total Energy          =    -814.7845735190595633 [Eh]
	-----------------------------------------------------------

  Dipole Moment: [D]
     X:     1.1873      Y:    -4.6616      Z:     2.4782     Total:     5.4112

*** Psi4 exiting successfully. Buy a developer a beer!
