                               Psi4 1.3.2 release

  ==> Input File <==

--------------------------------------------------------------------------
#psi4
#
memory 32 gb

molecule  {
0 1
  O        1.3620710    -0.3800110    -0.9318440
  O        3.2020570     1.9012130    -0.2995130
  O        2.7994070    -2.7489470    -0.4002010
  O       -1.3621860     2.3740050     0.1547830
  N       -0.7982440     0.1994180    -0.2292560
  N       -3.0541720     0.8052390     0.2400120
  N       -4.6734100    -0.8124350     0.4126370
  C        2.6983253     0.8900923     0.5374329
  C        1.2368440     1.1072260     0.8878520
  C        2.6518190    -0.3922910    -0.2854700
  C        0.5739580     0.6830040    -0.4149160
  C        2.7999979    -1.6741243     0.5002932
  C       -1.1273370    -1.1158190    -0.3082760
  C       -1.7446880     1.2038920     0.0820450
  C       -2.4173070    -1.5045610    -0.1045420
  C       -3.3619920    -0.4731600     0.1685110
  H        3.3343810     0.7567850     1.4508530
  H        0.9047070     0.4438290     1.6934890
  H        0.9853290     2.1340670     1.1581470
  H        0.5274540     1.5132540    -1.1249130
  H        3.4174920    -0.3642830    -1.0666260
  H        1.9707490    -1.7331840     1.2432230
  H        3.7460890    -1.6095150     1.0882890
  H        3.1038510     2.7463240     0.1779830
  H       -0.3107400    -1.7892010    -0.5436980
  H        2.9100300    -3.5650720     0.1192120
  H       -2.7034680    -2.5490840    -0.1532500
  H       -5.0287110    -1.6377420    -0.0567190
  H       -5.2994710    -0.0137980     0.3861010
units angstrom
no_reorient  #important for SAPT in psi4, default
symmetry c1  #important for SAPT in psi4, default
}

set PROPERTIES_ORIGIN ["COM"]
properties('MP2/aug-cc-pvtz', properties = ['dipole'])
--------------------------------------------------------------------------

    Molecular point group: c1
  Charge       = 0
  Multiplicity = 1
  Basis Set: AUG-CC-PVTZ
    Blend: AUG-CC-PVTZ
  Basis Set: (AUG-CC-PVTZ AUX)
    Blend: AUG-CC-PVTZ-JKFIT

    Orbital Energies [Eh]
    ---------------------

    Doubly Occupied:

       1A    -20.580114     2A    -20.576706     3A    -20.571736
       4A    -20.502747     5A    -15.621348     6A    -15.588140
       7A    -15.540538     8A    -11.369585     9A    -11.344770
      10A    -11.330068    11A    -11.318009    12A    -11.301512
      13A    -11.297814    14A    -11.291908    15A    -11.236735
      16A    -11.235782    17A     -1.417729    18A     -1.385061
      19A     -1.383430    20A     -1.370792    21A     -1.291950
      22A     -1.261119    23A     -1.168848    24A     -1.078136
      25A     -1.067250    26A     -1.027370    27A     -0.925694
      28A     -0.897013    29A     -0.868927    30A     -0.830733
      31A     -0.803528    32A     -0.753911    33A     -0.737801
      34A     -0.725273    35A     -0.707931    36A     -0.695127
      37A     -0.692322    38A     -0.675598    39A     -0.656690
      40A     -0.637855    41A     -0.627562    42A     -0.619144
      43A     -0.607161    44A     -0.596977    45A     -0.589599
      46A     -0.572960    47A     -0.569664    48A     -0.545634
      49A     -0.533675    50A     -0.523444    51A     -0.510639
      52A     -0.483333    53A     -0.481698    54A     -0.465079
      55A     -0.458238    56A     -0.443188    57A     -0.436536
      58A     -0.415962    59A     -0.383324    60A     -0.334570

  @DF-RHF Final Energy:  -811.47864155127127

   => Energetics <=

    Nuclear Repulsion Energy =           1170.4195230315131084
    One-Electron Energy =               -3435.8643581737073873
    Two-Electron Energy =                1453.9661935909230124
    Total Energy =                       -811.4786415512712665
  Basis Set: (AUG-CC-PVTZ AUX)
    Blend: AUG-CC-PVTZ-RI
    Molecular point group: c1

    Geometry (in Angstrom), charge = 0, multiplicity = 1:

       Center              X                  Y                   Z               Mass
    ------------   -----------------  -----------------  -----------------  -----------------
         O            1.362354736907    -0.380033759259    -0.929507388275    15.994914619570
         O            3.202340736907     1.901190240741    -0.297176388275    15.994914619570
         O            2.799690736907    -2.748969759259    -0.397864388275    15.994914619570
         O           -1.361902263093     2.373982240741     0.157119611725    15.994914619570
         N           -0.797960263093     0.199395240741    -0.226919388275    14.003074004430
         N           -3.053888263093     0.805216240741     0.242348611725    14.003074004430
         N           -4.673126263093    -0.812457759259     0.414973611725    14.003074004430
         C            2.698609036907     0.890069540741     0.539769511725    12.000000000000
         C            1.237127736907     1.107203240741     0.890188611725    12.000000000000
         C            2.652102736907    -0.392313759259    -0.283133388275    12.000000000000
         C            0.574241736907     0.682981240741    -0.412579388275    12.000000000000
         C            2.800281636907    -1.674147059259     0.502629811725    12.000000000000
         C           -1.127053263093    -1.115841759259    -0.305939388275    12.000000000000
         C           -1.744404263093     1.203869240741     0.084381611725    12.000000000000
         C           -2.417023263093    -1.504583759259    -0.102205388275    12.000000000000
         C           -3.361708263093    -0.473182759259     0.170847611725    12.000000000000
         H            3.334664736907     0.756762240741     1.453189611725     1.007825032230
         H            0.904990736907     0.443806240741     1.695825611725     1.007825032230
         H            0.985612736907     2.134044240741     1.160483611725     1.007825032230
         H            0.527737736907     1.513231240741    -1.122576388275     1.007825032230
         H            3.417775736907    -0.364305759259    -1.064289388275     1.007825032230
         H            1.971032736907    -1.733206759259     1.245559611725     1.007825032230
         H            3.746372736907    -1.609537759259     1.090625611725     1.007825032230
         H            3.104134736907     2.746301240741     0.180319611725     1.007825032230
         H           -0.310456263093    -1.789223759259    -0.541361388275     1.007825032230
         H            2.910313736907    -3.565094759259     0.121548611725     1.007825032230
         H           -2.703184263093    -2.549106759259    -0.150913388275     1.007825032230
         H           -5.028427263093    -1.637764759259    -0.054382388275     1.007825032230
         H           -5.299187263093    -0.013820759259     0.388437611725     1.007825032230

  Basis Set: AUG-CC-PVTZ
    Blend: AUG-CC-PVTZ
  Basis Set: (AUG-CC-PVTZ AUX)
    Blend: AUG-CC-PVTZ-JKFIT
	 Reference Energy          =    -811.4786415512712665 [Eh]
	 Singles Energy            =      -0.0000000000000000 [Eh]
	 Same-Spin Energy          =      -0.8296602126892919 [Eh]
	 Opposite-Spin Energy      =      -2.5244461136524823 [Eh]
	 Correlation Energy        =      -3.3541063263417743 [Eh]
	 Total Energy              =    -814.8327478776130874 [Eh]

	 ================> DF-SCS-MP2 Energies <==================
	-----------------------------------------------------------
	 SCS Same-Spin Scale       =       0.3333333333333333 [-]
	 SCS Opposite-Spin Scale   =       1.2000000000000000 [-]
	 SCS Same-Spin Energy      =      -0.2765534042297639 [Eh]
	 SCS Opposite-Spin Energy  =      -3.0293353363829785 [Eh]
	 SCS Correlation Energy    =      -3.3058887406127422 [Eh]
	 SCS Total Energy          =    -814.7845302918840389 [Eh]
	-----------------------------------------------------------

  Dipole Moment: [D]
     X:     1.1090      Y:    -4.6912      Z:     2.3829     Total:     5.3773

*** Psi4 exiting successfully. Buy a developer a beer!
