                               Psi4 1.3.2 release

  ==> Input File <==

--------------------------------------------------------------------------
#psi4
#
memory 32 gb

molecule  {
0 1
  O        1.3620710    -0.3800110    -0.9318440
  O        3.2020570     1.9012130    -0.2995130
  O        2.7994070    -2.7489470    -0.4002010
  O       -1.3621860     2.3740050     0.1547830
  N       -0.7982440     0.1994180    -0.2292560
  N       -3.0541720     0.8052390     0.2400120
  N       -4.6734100    -0.8124350     0.4126370
  C        2.7015950     0.8755540     0.5594740
  C        1.2368440     1.1072260     0.8878520
  C        2.6518190    -0.3922910    -0.2854700
  C        0.5739580     0.6830040    -0.4149160
  C        2.8020980    -1.6600160     0.5224700
  C       -1.1273370    -1.1158190    -0.3082760
  C       -1.7446880     1.2038920     0.0820450
  C       -2.4173070    -1.5045610    -0.1045420
  C       -3.3619920    -0.4731600     0.1685110
  H        3.3343810     0.7567850     1.4508530
  H        0.9047070     0.4438290     1.6934890
  H        0.9853290     2.1340670     1.1581470
  H        0.5274540     1.5132540    -1.1249130
  H        3.4174920    -0.3642830    -1.0666260
  H        1.8953579    -1.7398193     1.3085847
  H        3.7460890    -1.6095150     1.0882890
  H        3.1038510     2.7463240     0.1779830
  H       -0.3107400    -1.7892010    -0.5436980
  H        2.9100300    -3.5650720     0.1192120
  H       -2.7034680    -2.5490840    -0.1532500
  H       -5.0287110    -1.6377420    -0.0567190
  H       -5.2994710    -0.0137980     0.3861010
units angstrom
no_reorient  #important for SAPT in psi4, default
symmetry c1  #important for SAPT in psi4, default
}

set PROPERTIES_ORIGIN ["COM"]
properties('MP2/aug-cc-pvtz', properties = ['dipole'])
--------------------------------------------------------------------------

    Molecular point group: c1
  Charge       = 0
  Multiplicity = 1
  Basis Set: AUG-CC-PVTZ
    Blend: AUG-CC-PVTZ
  Basis Set: (AUG-CC-PVTZ AUX)
    Blend: AUG-CC-PVTZ-JKFIT

    Orbital Energies [Eh]
    ---------------------

    Doubly Occupied:

       1A    -20.580266     2A    -20.574490     3A    -20.572963
       4A    -20.502843     5A    -15.621505     6A    -15.588167
       7A    -15.540576     8A    -11.369687     9A    -11.344814
      10A    -11.330598    11A    -11.317998    12A    -11.309017
      13A    -11.301027    14A    -11.294488    15A    -11.236743
      16A    -11.236342    17A     -1.416717    18A     -1.382432
      19A     -1.374737    20A     -1.366189    21A     -1.292015
      22A     -1.261221    23A     -1.168905    24A     -1.078695
      25A     -1.068363    26A     -1.027053    27A     -0.923686
      28A     -0.896090    29A     -0.868051    30A     -0.830700
      31A     -0.803825    32A     -0.753759    33A     -0.738130
      34A     -0.719620    35A     -0.706534    36A     -0.693735
      37A     -0.688978    38A     -0.673638    39A     -0.653821
      40A     -0.635290    41A     -0.627439    42A     -0.617987
      43A     -0.604882    44A     -0.594715    45A     -0.588086
      46A     -0.572704    47A     -0.568840    48A     -0.543515
      49A     -0.532398    50A     -0.523223    51A     -0.510326
      52A     -0.486025    53A     -0.481937    54A     -0.465014
      55A     -0.459135    56A     -0.444463    57A     -0.438052
      58A     -0.416167    59A     -0.383547    60A     -0.334698

  @DF-RHF Final Energy:  -811.47244269547377

   => Energetics <=

    Nuclear Repulsion Energy =           1169.5499729311845840
    One-Electron Energy =               -3434.1711100299917234
    Two-Electron Energy =                1453.1486944033333657
    Total Energy =                       -811.4724426954737737
  Basis Set: (AUG-CC-PVTZ AUX)
    Blend: AUG-CC-PVTZ-RI
    Molecular point group: c1

    Geometry (in Angstrom), charge = 0, multiplicity = 1:

       Center              X                  Y                   Z               Mass
    ------------   -----------------  -----------------  -----------------  -----------------
         O            1.362405568767    -0.379981589680    -0.932134040113    15.994914619570
         O            3.202391568767     1.901242410320    -0.299803040113    15.994914619570
         O            2.799741568767    -2.748917589680    -0.400491040113    15.994914619570
         O           -1.361851431233     2.374034410320     0.154492959887    15.994914619570
         N           -0.797909431233     0.199447410320    -0.229546040113    14.003074004430
         N           -3.053837431233     0.805268410320     0.239721959887    14.003074004430
         N           -4.673075431233    -0.812405589680     0.412346959887    14.003074004430
         C            2.701929568767     0.875583410320     0.559183959887    12.000000000000
         C            1.237178568767     1.107255410320     0.887561959887    12.000000000000
         C            2.652153568767    -0.392261589680    -0.285760040113    12.000000000000
         C            0.574292568767     0.683033410320    -0.415206040113    12.000000000000
         C            2.802432568767    -1.659986589680     0.522179959887    12.000000000000
         C           -1.127002431233    -1.115789589680    -0.308566040113    12.000000000000
         C           -1.744353431233     1.203921410320     0.081754959887    12.000000000000
         C           -2.416972431233    -1.504531589680    -0.104832040113    12.000000000000
         C           -3.361657431233    -0.473130589680     0.168220959887    12.000000000000
         H            3.334715568767     0.756814410320     1.450562959887     1.007825032230
         H            0.905041568767     0.443858410320     1.693198959887     1.007825032230
         H            0.985663568767     2.134096410320     1.157856959887     1.007825032230
         H            0.527788568767     1.513283410320    -1.125203040113     1.007825032230
         H            3.417826568767    -0.364253589680    -1.066916040113     1.007825032230
         H            1.895692468767    -1.739789889680     1.308294659887     1.007825032230
         H            3.746423568767    -1.609485589680     1.087998959887     1.007825032230
         H            3.104185568767     2.746353410320     0.177692959887     1.007825032230
         H           -0.310405431233    -1.789171589680    -0.543988040113     1.007825032230
         H            2.910364568767    -3.565042589680     0.118921959887     1.007825032230
         H           -2.703133431233    -2.549054589680    -0.153540040113     1.007825032230
         H           -5.028376431233    -1.637712589680    -0.057009040113     1.007825032230
         H           -5.299136431233    -0.013768589680     0.385810959887     1.007825032230

  Basis Set: AUG-CC-PVTZ
    Blend: AUG-CC-PVTZ
  Basis Set: (AUG-CC-PVTZ AUX)
    Blend: AUG-CC-PVTZ-JKFIT
	 Reference Energy          =    -811.4724426954737737 [Eh]
	 Singles Energy            =      -0.0000000000000000 [Eh]
	 Same-Spin Energy          =      -0.8298435522480978 [Eh]
	 Opposite-Spin Energy      =      -2.5260536648141581 [Eh]
	 Correlation Energy        =      -3.3558972170622559 [Eh]
	 Total Energy              =    -814.8283399125360802 [Eh]

	 ================> DF-SCS-MP2 Energies <==================
	-----------------------------------------------------------
	 SCS Same-Spin Scale       =       0.3333333333333333 [-]
	 SCS Opposite-Spin Scale   =       1.2000000000000000 [-]
	 SCS Same-Spin Energy      =      -0.2766145174160326 [Eh]
	 SCS Opposite-Spin Energy  =      -3.0312643977769897 [Eh]
	 SCS Correlation Energy    =      -3.3078789151930224 [Eh]
	 SCS Total Energy          =    -814.7803216106667605 [Eh]
	-----------------------------------------------------------

  Dipole Moment: [D]
     X:     1.1337      Y:    -4.6992      Z:     2.4217     Total:     5.4067

*** Psi4 exiting successfully. Buy a developer a beer!
