                               Psi4 1.3.2 release

  ==> Input File <==

--------------------------------------------------------------------------
#psi4
#
memory 32 gb

molecule  {
0 1
  O        1.3620710    -0.3800110    -0.9318440
  O        3.2020570     1.9012130    -0.2995130
  O        2.7994070    -2.7489470    -0.4002010
  O       -1.3621860     2.3740050     0.1547830
  N       -0.7982440     0.1994180    -0.2292560
  N       -3.0541720     0.8052390     0.2400120
  N       -4.6734100    -0.8124350     0.4126370
  C        2.7032242     0.8681397     0.5703985
  C        1.2368440     1.1072260     0.8878520
  C        2.6518190    -0.3922910    -0.2854700
  C        0.5739580     0.6830040    -0.4149160
  C        2.8031309    -1.6528168     0.5334665
  C       -1.1273370    -1.1158190    -0.3082760
  C       -1.7446880     1.2038920     0.0820450
  C       -2.4173070    -1.5045610    -0.1045420
  C       -3.3619920    -0.4731600     0.1685110
  H        3.3343810     0.7567850     1.4508530
  H        0.9047070     0.4438290     1.6934890
  H        0.9853290     2.1340670     1.1581470
  H        0.5274540     1.5132540    -1.1249130
  H        3.4174920    -0.3642830    -1.0666260
  H        1.9707490    -1.7331840     1.2432230
  H        3.7460890    -1.6095150     1.0882890
  H        3.1038510     2.7463240     0.1779830
  H       -0.3107400    -1.7892010    -0.5436980
  H        2.9100300    -3.5650720     0.1192120
  H       -2.7034680    -2.5490840    -0.1532500
  H       -5.0287110    -1.6377420    -0.0567190
  H       -5.2994710    -0.0137980     0.3861010
units angstrom
no_reorient  #important for SAPT in psi4, default
symmetry c1  #important for SAPT in psi4, default
}

set PROPERTIES_ORIGIN ["COM"]
properties('MP2/aug-cc-pvtz', properties = ['dipole'])
--------------------------------------------------------------------------

    Molecular point group: c1
  Charge       = 0
  Multiplicity = 1
  Basis Set: AUG-CC-PVTZ
    Blend: AUG-CC-PVTZ
  Basis Set: (AUG-CC-PVTZ AUX)
    Blend: AUG-CC-PVTZ-JKFIT

    Orbital Energies [Eh]
    ---------------------

    Doubly Occupied:

       1A    -20.576572     2A    -20.573478     3A    -20.573159
       4A    -20.503192     5A    -15.621916     6A    -15.588456
       7A    -15.540920     8A    -11.370043     9A    -11.345159
      10A    -11.331088    11A    -11.318417    12A    -11.300636
      13A    -11.296514    14A    -11.293722    15A    -11.237337
      16A    -11.237156    17A     -1.416359    18A     -1.381757
      19A     -1.368818    20A     -1.362513    21A     -1.292356
      22A     -1.261570    23A     -1.169231    24A     -1.079492
      25A     -1.069749    26A     -1.028272    27A     -0.927389
      28A     -0.897696    29A     -0.869071    30A     -0.830902
      31A     -0.807882    32A     -0.754411    33A     -0.739200
      34A     -0.719564    35A     -0.706243    36A     -0.691251
      37A     -0.687628    38A     -0.675956    39A     -0.656657
      40A     -0.636935    41A     -0.627761    42A     -0.618210
      43A     -0.603858    44A     -0.594180    45A     -0.588098
      46A     -0.572784    47A     -0.568336    48A     -0.544262
      49A     -0.531798    50A     -0.523821    51A     -0.510198
      52A     -0.487146    53A     -0.482245    54A     -0.469941
      55A     -0.462184    56A     -0.445139    57A     -0.438336
      58A     -0.416515    59A     -0.383929    60A     -0.335103

  @DF-RHF Final Energy:  -811.47861822550078

   => Energetics <=

    Nuclear Repulsion Energy =           1169.7052333043550334
    One-Electron Energy =               -3434.4826817454968477
    Two-Electron Energy =                1453.2988302156411464
    Total Energy =                       -811.4786182255008953
  Basis Set: (AUG-CC-PVTZ AUX)
    Blend: AUG-CC-PVTZ-RI
    Molecular point group: c1

    Geometry (in Angstrom), charge = 0, multiplicity = 1:

       Center              X                  Y                   Z               Mass
    ------------   -----------------  -----------------  -----------------  -----------------
         O            1.361930312481    -0.379999670663    -0.933002322805    15.994914619570
         O            3.201916312481     1.901224329337    -0.300671322805    15.994914619570
         O            2.799266312481    -2.748935670663    -0.401359322805    15.994914619570
         O           -1.362326687519     2.374016329337     0.153624677195    15.994914619570
         N           -0.798384687519     0.199429329337    -0.230414322805    14.003074004430
         N           -3.054312687519     0.805250329337     0.238853677195    14.003074004430
         N           -4.673550687519    -0.812423670663     0.411478677195    14.003074004430
         C            2.703083512481     0.868151029337     0.569240177195    12.000000000000
         C            1.236703312481     1.107237329337     0.886693677195    12.000000000000
         C            2.651678312481    -0.392279670663    -0.286628322805    12.000000000000
         C            0.573817312481     0.683015329337    -0.416074322805    12.000000000000
         C            2.802990212481    -1.652805470663     0.532308177195    12.000000000000
         C           -1.127477687519    -1.115807670663    -0.309434322805    12.000000000000
         C           -1.744828687519     1.203903329337     0.080886677195    12.000000000000
         C           -2.417447687519    -1.504549670663    -0.105700322805    12.000000000000
         C           -3.362132687519    -0.473148670663     0.167352677195    12.000000000000
         H            3.334240312481     0.756796329337     1.449694677195     1.007825032230
         H            0.904566312481     0.443840329337     1.692330677195     1.007825032230
         H            0.985188312481     2.134078329337     1.156988677195     1.007825032230
         H            0.527313312481     1.513265329337    -1.126071322805     1.007825032230
         H            3.417351312481    -0.364271670663    -1.067784322805     1.007825032230
         H            1.970608312481    -1.733172670663     1.242064677195     1.007825032230
         H            3.745948312481    -1.609503670663     1.087130677195     1.007825032230
         H            3.103710312481     2.746335329337     0.176824677195     1.007825032230
         H           -0.310880687519    -1.789189670663    -0.544856322805     1.007825032230
         H            2.909889312481    -3.565060670663     0.118053677195     1.007825032230
         H           -2.703608687519    -2.549072670663    -0.154408322805     1.007825032230
         H           -5.028851687519    -1.637730670663    -0.057877322805     1.007825032230
         H           -5.299611687519    -0.013786670663     0.384942677195     1.007825032230

  Basis Set: AUG-CC-PVTZ
    Blend: AUG-CC-PVTZ
  Basis Set: (AUG-CC-PVTZ AUX)
    Blend: AUG-CC-PVTZ-JKFIT
	 Reference Energy          =    -811.4786182255007816 [Eh]
	 Singles Energy            =      -0.0000000000000000 [Eh]
	 Same-Spin Energy          =      -0.8296871166757976 [Eh]
	 Opposite-Spin Energy      =      -2.5255588256605441 [Eh]
	 Correlation Energy        =      -3.3552459423363419 [Eh]
	 Total Energy              =    -814.8338641678370777 [Eh]

	 ================> DF-SCS-MP2 Energies <==================
	-----------------------------------------------------------
	 SCS Same-Spin Scale       =       0.3333333333333333 [-]
	 SCS Opposite-Spin Scale   =       1.2000000000000000 [-]
	 SCS Same-Spin Energy      =      -0.2765623722252659 [Eh]
	 SCS Opposite-Spin Energy  =      -3.0306705907926528 [Eh]
	 SCS Correlation Energy    =      -3.3072329630179187 [Eh]
	 SCS Total Energy          =    -814.7858511885186772 [Eh]
	-----------------------------------------------------------

  Dipole Moment: [D]
     X:     1.0569      Y:    -4.6725      Z:     2.5394     Total:     5.4220

*** Psi4 exiting successfully. Buy a developer a beer!
