                               Psi4 1.3.2 release

  ==> Input File <==

--------------------------------------------------------------------------
#psi4
#
memory 32 gb

molecule  {
0 1
  O        1.3620710    -0.3800110    -0.9318440
  O        3.2020570     1.9012130    -0.2995130
  O        2.7994070    -2.7489470    -0.4002010
  O       -1.3621860     2.3740050     0.1547830
  N       -0.7982440     0.1994180    -0.2292560
  N       -3.0107095     0.7945319     0.2295627
  N       -4.6619863    -0.8585110     0.4052422
  C        2.7015950     0.8755540     0.5594740
  C        1.2368440     1.1072260     0.8878520
  C        2.6518190    -0.3922910    -0.2854700
  C        0.5739580     0.6830040    -0.4149160
  C        2.8020980    -1.6600160     0.5224700
  C       -1.1273370    -1.1158190    -0.3082760
  C       -1.7446880     1.2038920     0.0820450
  C       -2.4173070    -1.5045610    -0.1045420
  C       -3.3619920    -0.4731600     0.1685110
  H        3.3343810     0.7567850     1.4508530
  H        0.9047070     0.4438290     1.6934890
  H        0.9853290     2.1340670     1.1581470
  H        0.5274540     1.5132540    -1.1249130
  H        3.4174920    -0.3642830    -1.0666260
  H        1.9707490    -1.7331840     1.2432230
  H        3.7460890    -1.6095150     1.0882890
  H        3.1038510     2.7463240     0.1779830
  H       -0.3107400    -1.7892010    -0.5436980
  H        2.9100300    -3.5650720     0.1192120
  H       -2.7034680    -2.5490840    -0.1532500
  H       -5.0287110    -1.6377420    -0.0567190
  H       -5.2994710    -0.0137980     0.3861010
units angstrom
no_reorient  #important for SAPT in psi4, default
symmetry c1  #important for SAPT in psi4, default
}

set PROPERTIES_ORIGIN ["COM"]
properties('MP2/aug-cc-pvtz', properties = ['dipole'])
--------------------------------------------------------------------------

    Molecular point group: c1
  Charge       = 0
  Multiplicity = 1
  Basis Set: AUG-CC-PVTZ
    Blend: AUG-CC-PVTZ
  Basis Set: (AUG-CC-PVTZ AUX)
    Blend: AUG-CC-PVTZ-JKFIT

    Orbital Energies [Eh]
    ---------------------

    Doubly Occupied:

       1A    -20.577159     2A    -20.573585     3A    -20.571661
       4A    -20.498943     5A    -15.619487     6A    -15.592931
       7A    -15.537893     8A    -11.366014     9A    -11.349395
      10A    -11.329142    11A    -11.316711    12A    -11.300007
      13A    -11.296179    14A    -11.292198    15A    -11.235755
      16A    -11.234904    17A     -1.415693    18A     -1.382789
      19A     -1.372907    20A     -1.365036    21A     -1.292865
      22A     -1.260410    23A     -1.179339    24A     -1.077963
      25A     -1.068069    26A     -1.027522    27A     -0.927830
      28A     -0.895226    29A     -0.874913    30A     -0.833071
      31A     -0.805151    32A     -0.753889    33A     -0.738255
      34A     -0.721852    35A     -0.713505    36A     -0.692510
      37A     -0.690347    38A     -0.675719    39A     -0.655182
      40A     -0.636878    41A     -0.628337    42A     -0.614963
      43A     -0.604387    44A     -0.593658    45A     -0.588894
      46A     -0.571856    47A     -0.568234    48A     -0.544245
      49A     -0.532650    50A     -0.522741    51A     -0.510256
      52A     -0.484917    53A     -0.481623    54A     -0.467813
      55A     -0.460229    56A     -0.441699    57A     -0.433862
      58A     -0.415100    59A     -0.386524    60A     -0.334167

  @DF-RHF Final Energy:  -811.47496689178718

   => Energetics <=

    Nuclear Repulsion Energy =           1171.1937474508472405
    One-Electron Energy =               -3437.4673529807100749
    Two-Electron Energy =                1454.7986386380755448
    Total Energy =                       -811.4749668917872896
  Basis Set: (AUG-CC-PVTZ AUX)
    Blend: AUG-CC-PVTZ-RI
    Molecular point group: c1

    Geometry (in Angstrom), charge = 0, multiplicity = 1:

       Center              X                  Y                   Z               Mass
    ------------   -----------------  -----------------  -----------------  -----------------
         O            1.358686539726    -0.376509624263    -0.930743646138    15.994914619570
         O            3.198672539726     1.904714375737    -0.298412646138    15.994914619570
         O            2.796022539726    -2.745445624263    -0.399100646138    15.994914619570
         O           -1.365570460274     2.377506375737     0.155883353862    15.994914619570
         N           -0.801628460274     0.202919375737    -0.228155646138    14.003074004430
         N           -3.014093960274     0.798033275737     0.230663053862    14.003074004430
         N           -4.665370760274    -0.855009624263     0.406342553862    14.003074004430
         C            2.698210539726     0.879055375737     0.560574353862    12.000000000000
         C            1.233459539726     1.110727375737     0.888952353862    12.000000000000
         C            2.648434539726    -0.388789624263    -0.284369646138    12.000000000000
         C            0.570573539726     0.686505375737    -0.413815646138    12.000000000000
         C            2.798713539726    -1.656514624263     0.523570353862    12.000000000000
         C           -1.130721460274    -1.112317624263    -0.307175646138    12.000000000000
         C           -1.748072460274     1.207393375737     0.083145353862    12.000000000000
         C           -2.420691460274    -1.501059624263    -0.103441646138    12.000000000000
         C           -3.365376460274    -0.469658624263     0.169611353862    12.000000000000
         H            3.330996539726     0.760286375737     1.451953353862     1.007825032230
         H            0.901322539726     0.447330375737     1.694589353862     1.007825032230
         H            0.981944539726     2.137568375737     1.159247353862     1.007825032230
         H            0.524069539726     1.516755375737    -1.123812646138     1.007825032230
         H            3.414107539726    -0.360781624263    -1.065525646138     1.007825032230
         H            1.967364539726    -1.729682624263     1.244323353862     1.007825032230
         H            3.742704539726    -1.606013624263     1.089389353862     1.007825032230
         H            3.100466539726     2.749825375737     0.179083353862     1.007825032230
         H           -0.314124460274    -1.785699624263    -0.542597646138     1.007825032230
         H            2.906645539726    -3.561570624263     0.120312353862     1.007825032230
         H           -2.706852460274    -2.545582624263    -0.152149646138     1.007825032230
         H           -5.032095460274    -1.634240624263    -0.055618646138     1.007825032230
         H           -5.302855460274    -0.010296624263     0.387201353862     1.007825032230

  Basis Set: AUG-CC-PVTZ
    Blend: AUG-CC-PVTZ
  Basis Set: (AUG-CC-PVTZ AUX)
    Blend: AUG-CC-PVTZ-JKFIT
	 Reference Energy          =    -811.4749668917871759 [Eh]
	 Singles Energy            =      -0.0000000000000000 [Eh]
	 Same-Spin Energy          =      -0.8300183524368095 [Eh]
	 Opposite-Spin Energy      =      -2.5248500719309002 [Eh]
	 Correlation Energy        =      -3.3548684243677096 [Eh]
	 Total Energy              =    -814.8298353161549130 [Eh]

	 ================> DF-SCS-MP2 Energies <==================
	-----------------------------------------------------------
	 SCS Same-Spin Scale       =       0.3333333333333333 [-]
	 SCS Opposite-Spin Scale   =       1.2000000000000000 [-]
	 SCS Same-Spin Energy      =      -0.2766727841456031 [Eh]
	 SCS Opposite-Spin Energy  =      -3.0298200863170801 [Eh]
	 SCS Correlation Energy    =      -3.3064928704626833 [Eh]
	 SCS Total Energy          =    -814.7814597622498241 [Eh]
	-----------------------------------------------------------

  Dipole Moment: [D]
     X:     0.8588      Y:    -4.7061      Z:     2.5118     Total:     5.4031

*** Psi4 exiting successfully. Buy a developer a beer!
