                               Psi4 1.3.2 release

  ==> Input File <==

--------------------------------------------------------------------------
#psi4
#
memory 32 gb

molecule  {
0 1
  O        1.3620710    -0.3800110    -0.9318440
  O        3.2020570     1.9012130    -0.2995130
  O        2.7994070    -2.7489470    -0.4002010
  O       -1.3621860     2.3740050     0.1547830
  N       -0.7982440     0.1994180    -0.2292560
  N       -3.0541720     0.8052390     0.2400120
  N       -4.6734100    -0.8124350     0.4126370
  C        2.6813747     0.8663239     0.5740961
  C        1.2368440     1.1072260     0.8878520
  C        2.6518190    -0.3922910    -0.2854700
  C        0.5739580     0.6830040    -0.4149160
  C        2.8020980    -1.6600160     0.5224700
  C       -1.1273370    -1.1158190    -0.3082760
  C       -1.7446880     1.2038920     0.0820450
  C       -2.4173070    -1.5045610    -0.1045420
  C       -3.3619920    -0.4731600     0.1685110
  H        3.3343810     0.7567850     1.4508530
  H        0.9047070     0.4438290     1.6934890
  H        0.9853290     2.1340670     1.1581470
  H        0.5274540     1.5132540    -1.1249130
  H        3.4116910    -0.3814360    -1.0726936
  H        1.9707490    -1.7331840     1.2432230
  H        3.7460890    -1.6095150     1.0882890
  H        3.1038510     2.7463240     0.1779830
  H       -0.3107400    -1.7892010    -0.5436980
  H        2.9100300    -3.5650720     0.1192120
  H       -2.7034680    -2.5490840    -0.1532500
  H       -5.0287110    -1.6377420    -0.0567190
  H       -5.2994710    -0.0137980     0.3861010
units angstrom
no_reorient  #important for SAPT in psi4, default
symmetry c1  #important for SAPT in psi4, default
}

set PROPERTIES_ORIGIN ["COM"]
properties('MP2/aug-cc-pvtz', properties = ['dipole'])
--------------------------------------------------------------------------

    Molecular point group: c1
  Charge       = 0
  Multiplicity = 1
  Basis Set: AUG-CC-PVTZ
    Blend: AUG-CC-PVTZ
  Basis Set: (AUG-CC-PVTZ AUX)
    Blend: AUG-CC-PVTZ-JKFIT

    Orbital Energies [Eh]
    ---------------------

    Doubly Occupied:

       1A    -20.577998     2A    -20.572985     3A    -20.571891
       4A    -20.503368     5A    -15.622032     6A    -15.588561
       7A    -15.541044     8A    -11.370194     9A    -11.345283
      10A    -11.331326    11A    -11.318550    12A    -11.301107
      13A    -11.296818    14A    -11.293592    15A    -11.237286
      16A    -11.237127    17A     -1.416624    18A     -1.382057
      19A     -1.371634    20A     -1.360502    21A     -1.292496
      22A     -1.261706    23A     -1.169363    24A     -1.082163
      25A     -1.069916    26A     -1.029339    27A     -0.927372
      28A     -0.897578    29A     -0.868518    30A     -0.830786
      31A     -0.807162    32A     -0.754464    33A     -0.739193
      34A     -0.721798    35A     -0.705878    36A     -0.693081
      37A     -0.685312    38A     -0.675919    39A     -0.656712
      40A     -0.637439    41A     -0.627382    42A     -0.618307
      43A     -0.604765    44A     -0.594023    45A     -0.588628
      46A     -0.572676    47A     -0.568188    48A     -0.544638
      49A     -0.530750    50A     -0.524746    51A     -0.509312
      52A     -0.488664    53A     -0.483244    54A     -0.469009
      55A     -0.462552    56A     -0.445348    57A     -0.437782
      58A     -0.416681    59A     -0.384072    60A     -0.335256

  @DF-RHF Final Energy:  -811.47805111552725

   => Energetics <=

    Nuclear Repulsion Energy =           1170.1017481088199474
    One-Electron Energy =               -3435.2551977120169795
    Two-Electron Energy =                1453.6753984876700088
    Total Energy =                       -811.4780511155272507
  Basis Set: (AUG-CC-PVTZ AUX)
    Blend: AUG-CC-PVTZ-RI
    Molecular point group: c1

    Geometry (in Angstrom), charge = 0, multiplicity = 1:

       Center              X                  Y                   Z               Mass
    ------------   -----------------  -----------------  -----------------  -----------------
         O            1.363165216902    -0.379447172147    -0.932589703891    15.994914619570
         O            3.203151216902     1.901776827853    -0.300258703891    15.994914619570
         O            2.800501216902    -2.748383172147    -0.400946703891    15.994914619570
         O           -1.361091783098     2.374568827853     0.154037296109    15.994914619570
         N           -0.797149783098     0.199981827853    -0.230001703891    14.003074004430
         N           -3.053077783098     0.805802827853     0.239266296109    14.003074004430
         N           -4.672315783098    -0.811871172147     0.411891296109    14.003074004430
         C            2.682468916902     0.866887727853     0.573350396109    12.000000000000
         C            1.237938216902     1.107789827853     0.887106296109    12.000000000000
         C            2.652913216902    -0.391727172147    -0.286215703891    12.000000000000
         C            0.575052216902     0.683567827853    -0.415661703891    12.000000000000
         C            2.803192216902    -1.659452172147     0.521724296109    12.000000000000
         C           -1.126242783098    -1.115255172147    -0.309021703891    12.000000000000
         C           -1.743593783098     1.204455827853     0.081299296109    12.000000000000
         C           -2.416212783098    -1.503997172147    -0.105287703891    12.000000000000
         C           -3.360897783098    -0.472596172147     0.167765296109    12.000000000000
         H            3.335475216902     0.757348827853     1.450107296109     1.007825032230
         H            0.905801216902     0.444392827853     1.692743296109     1.007825032230
         H            0.986423216902     2.134630827853     1.157401296109     1.007825032230
         H            0.528548216902     1.513817827853    -1.125658703891     1.007825032230
         H            3.412785216902    -0.380872172147    -1.073439303891     1.007825032230
         H            1.971843216902    -1.732620172147     1.242477296109     1.007825032230
         H            3.747183216902    -1.608951172147     1.087543296109     1.007825032230
         H            3.104945216902     2.746887827853     0.177237296109     1.007825032230
         H           -0.309645783098    -1.788637172147    -0.544443703891     1.007825032230
         H            2.911124216902    -3.564508172147     0.118466296109     1.007825032230
         H           -2.702373783098    -2.548520172147    -0.153995703891     1.007825032230
         H           -5.027616783098    -1.637178172147    -0.057464703891     1.007825032230
         H           -5.298376783098    -0.013234172147     0.385355296109     1.007825032230

  Basis Set: AUG-CC-PVTZ
    Blend: AUG-CC-PVTZ
  Basis Set: (AUG-CC-PVTZ AUX)
    Blend: AUG-CC-PVTZ-JKFIT
	 Reference Energy          =    -811.4780511155272507 [Eh]
	 Singles Energy            =      -0.0000000000000000 [Eh]
	 Same-Spin Energy          =      -0.8298076475233833 [Eh]
	 Opposite-Spin Energy      =      -2.5255931875695596 [Eh]
	 Correlation Energy        =      -3.3554008350929427 [Eh]
	 Total Energy              =    -814.8334519506202014 [Eh]

	 ================> DF-SCS-MP2 Energies <==================
	-----------------------------------------------------------
	 SCS Same-Spin Scale       =       0.3333333333333333 [-]
	 SCS Opposite-Spin Scale   =       1.2000000000000000 [-]
	 SCS Same-Spin Energy      =      -0.2766025491744611 [Eh]
	 SCS Opposite-Spin Energy  =      -3.0307118250834715 [Eh]
	 SCS Correlation Energy    =      -3.3073143742579325 [Eh]
	 SCS Total Energy          =    -814.7853654897851357 [Eh]
	-----------------------------------------------------------

  Dipole Moment: [D]
     X:     1.0075      Y:    -4.7453      Z:     2.5210     Total:     5.4671

*** Psi4 exiting successfully. Buy a developer a beer!
