                               Psi4 1.3.2 release

  ==> Input File <==

--------------------------------------------------------------------------
#psi4
#
memory 32 gb

molecule  {
0 1
  O        1.3567983    -0.3582012    -0.9204184
  O        3.2020570     1.9012130    -0.2995130
  O        2.7994070    -2.7489470    -0.4002010
  O       -1.3621860     2.3740050     0.1547830
  N       -0.7982440     0.1994180    -0.2292560
  N       -3.0541720     0.8052390     0.2400120
  N       -4.6734100    -0.8124350     0.4126370
  C        2.6771268     0.8818118     0.5511067
  C        1.2368440     1.1072260     0.8878520
  C        2.6518190    -0.3922910    -0.2854700
  C        0.5739580     0.6830040    -0.4149160
  C        2.8020980    -1.6600160     0.5224700
  C       -1.1273370    -1.1158190    -0.3082760
  C       -1.7446880     1.2038920     0.0820450
  C       -2.4173070    -1.5045610    -0.1045420
  C       -3.3619920    -0.4731600     0.1685110
  H        3.3343810     0.7567850     1.4508530
  H        0.9047070     0.4438290     1.6934890
  H        0.9853290     2.1340670     1.1581470
  H        0.5274540     1.5132540    -1.1249130
  H        3.4174920    -0.3642830    -1.0666260
  H        1.9707490    -1.7331840     1.2432230
  H        3.7460890    -1.6095150     1.0882890
  H        3.1038510     2.7463240     0.1779830
  H       -0.3107400    -1.7892010    -0.5436980
  H        2.9100300    -3.5650720     0.1192120
  H       -2.7034680    -2.5490840    -0.1532500
  H       -5.0287110    -1.6377420    -0.0567190
  H       -5.2994710    -0.0137980     0.3861010
units angstrom
no_reorient  #important for SAPT in psi4, default
symmetry c1  #important for SAPT in psi4, default
}

set PROPERTIES_ORIGIN ["COM"]
properties('MP2/aug-cc-pvtz', properties = ['dipole'])
--------------------------------------------------------------------------

    Molecular point group: c1
  Charge       = 0
  Multiplicity = 1
  Basis Set: AUG-CC-PVTZ
    Blend: AUG-CC-PVTZ
  Basis Set: (AUG-CC-PVTZ AUX)
    Blend: AUG-CC-PVTZ-JKFIT

    Orbital Energies [Eh]
    ---------------------

    Doubly Occupied:

       1A    -20.578688     2A    -20.574314     3A    -20.571764
       4A    -20.502638     5A    -15.621034     6A    -15.588192
       7A    -15.540562     8A    -11.369495     9A    -11.344827
      10A    -11.328794    11A    -11.318266    12A    -11.300877
      13A    -11.297893    14A    -11.294325    15A    -11.236918
      16A    -11.235042    17A     -1.422995    18A     -1.382349
      19A     -1.374293    20A     -1.367477    21A     -1.291978
      22A     -1.261119    23A     -1.168847    24A     -1.080447
      25A     -1.070236    26A     -1.029960    27A     -0.927573
      28A     -0.897688    29A     -0.868330    30A     -0.831319
      31A     -0.805559    32A     -0.754261    33A     -0.739122
      34A     -0.722727    35A     -0.706468    36A     -0.694255
      37A     -0.689653    38A     -0.677064    39A     -0.657774
      40A     -0.638123    41A     -0.627003    42A     -0.619061
      43A     -0.604671    44A     -0.595852    45A     -0.589500
      46A     -0.572794    47A     -0.571434    48A     -0.545074
      49A     -0.531542    50A     -0.524188    51A     -0.510296
      52A     -0.485108    53A     -0.482638    54A     -0.469157
      55A     -0.461141    56A     -0.444265    57A     -0.437161
      58A     -0.415874    59A     -0.383318    60A     -0.334579

  @DF-RHF Final Energy:  -811.47900447792085

   => Energetics <=

    Nuclear Repulsion Energy =           1171.0518366968817645
    One-Electron Energy =               -3437.1258748044133426
    Two-Electron Energy =                1454.5950336296107253
    Total Energy =                       -811.4790044779208529
  Basis Set: (AUG-CC-PVTZ AUX)
    Blend: AUG-CC-PVTZ-RI
    Molecular point group: c1

    Geometry (in Angstrom), charge = 0, multiplicity = 1:

       Center              X                  Y                   Z               Mass
    ------------   -----------------  -----------------  -----------------  -----------------
         O            1.358462618834    -0.360068066756    -0.920780969485    15.994914619570
         O            3.203721318834     1.899346133244    -0.299875569485    15.994914619570
         O            2.801071318834    -2.750813866756    -0.400563569485    15.994914619570
         O           -1.360521681166     2.372138133244     0.154420430515    15.994914619570
         N           -0.796579681166     0.197551133244    -0.229618569485    14.003074004430
         N           -3.052507681166     0.803372133244     0.239649430515    14.003074004430
         N           -4.671745681166    -0.814301866756     0.412274430515    14.003074004430
         C            2.678791118834     0.879944933244     0.550744130515    12.000000000000
         C            1.238508318834     1.105359133244     0.887489430515    12.000000000000
         C            2.653483318834    -0.394157866756    -0.285832569485    12.000000000000
         C            0.575622318834     0.681137133244    -0.415278569485    12.000000000000
         C            2.803762318834    -1.661882866756     0.522107430515    12.000000000000
         C           -1.125672681166    -1.117685866756    -0.308638569485    12.000000000000
         C           -1.743023681166     1.202025133244     0.081682430515    12.000000000000
         C           -2.415642681166    -1.506427866756    -0.104904569485    12.000000000000
         C           -3.360327681166    -0.475026866756     0.168148430515    12.000000000000
         H            3.336045318834     0.754918133244     1.450490430515     1.007825032230
         H            0.906371318834     0.441962133244     1.693126430515     1.007825032230
         H            0.986993318834     2.132200133244     1.157784430515     1.007825032230
         H            0.529118318834     1.511387133244    -1.125275569485     1.007825032230
         H            3.419156318834    -0.366149866756    -1.066988569485     1.007825032230
         H            1.972413318834    -1.735050866756     1.242860430515     1.007825032230
         H            3.747753318834    -1.611381866756     1.087926430515     1.007825032230
         H            3.105515318834     2.744457133244     0.177620430515     1.007825032230
         H           -0.309075681166    -1.791067866756    -0.544060569485     1.007825032230
         H            2.911694318834    -3.566938866756     0.118849430515     1.007825032230
         H           -2.701803681166    -2.550950866756    -0.153612569485     1.007825032230
         H           -5.027046681166    -1.639608866756    -0.057081569485     1.007825032230
         H           -5.297806681166    -0.015664866756     0.385738430515     1.007825032230

  Basis Set: AUG-CC-PVTZ
    Blend: AUG-CC-PVTZ
  Basis Set: (AUG-CC-PVTZ AUX)
    Blend: AUG-CC-PVTZ-JKFIT
	 Reference Energy          =    -811.4790044779208529 [Eh]
	 Singles Energy            =      -0.0000000000000000 [Eh]
	 Same-Spin Energy          =      -0.8296961818469937 [Eh]
	 Opposite-Spin Energy      =      -2.5246011773280252 [Eh]
	 Correlation Energy        =      -3.3542973591750189 [Eh]
	 Total Energy              =    -814.8333018370958598 [Eh]

	 ================> DF-SCS-MP2 Energies <==================
	-----------------------------------------------------------
	 SCS Same-Spin Scale       =       0.3333333333333333 [-]
	 SCS Opposite-Spin Scale   =       1.2000000000000000 [-]
	 SCS Same-Spin Energy      =      -0.2765653939489979 [Eh]
	 SCS Opposite-Spin Energy  =      -3.0295214127936303 [Eh]
	 SCS Correlation Energy    =      -3.3060868067426283 [Eh]
	 SCS Total Energy          =    -814.7850912846635083 [Eh]
	-----------------------------------------------------------

  Dipole Moment: [D]
     X:     1.0981      Y:    -4.7450      Z:     2.4438     Total:     5.4491

*** Psi4 exiting successfully. Buy a developer a beer!
