                               Psi4 1.3.2 release

  ==> Input File <==

--------------------------------------------------------------------------
#psi4
#
memory 32 gb

molecule  {
0 1
  O        1.3620710    -0.3800110    -0.9318440
  O        3.2020570     1.9012130    -0.2995130
  O        2.7994070    -2.7489470    -0.4002010
  O       -1.3621860     2.3740050     0.1547830
  N       -0.7982440     0.1994180    -0.2292560
  N       -3.0541720     0.8052390     0.2400120
  N       -4.6734100    -0.8124350     0.4126370
  C        2.7015950     0.8755540     0.5594740
  C        1.2368440     1.1072260     0.8878520
  C        2.6958584    -0.4048354    -0.3116237
  C        0.5739580     0.6830040    -0.4149160
  C        2.8020980    -1.6600160     0.5224700
  C       -1.1273370    -1.1158190    -0.3082760
  C       -1.7446880     1.2038920     0.0820450
  C       -2.4173070    -1.5045610    -0.1045420
  C       -3.3619920    -0.4731600     0.1685110
  H        3.3343810     0.7567850     1.4508530
  H        0.9047070     0.4438290     1.6934890
  H        0.9853290     2.1340670     1.1581470
  H        0.5274540     1.5132540    -1.1249130
  H        3.4174920    -0.3642830    -1.0666260
  H        1.9854615    -1.7664580     1.2557875
  H        3.7460890    -1.6095150     1.0882890
  H        3.1038510     2.7463240     0.1779830
  H       -0.3107400    -1.7892010    -0.5436980
  H        2.9100300    -3.5650720     0.1192120
  H       -2.7034680    -2.5490840    -0.1532500
  H       -5.0287110    -1.6377420    -0.0567190
  H       -5.2994710    -0.0137980     0.3861010
units angstrom
no_reorient  #important for SAPT in psi4, default
symmetry c1  #important for SAPT in psi4, default
}

set PROPERTIES_ORIGIN ["COM"]
properties('MP2/aug-cc-pvtz', properties = ['dipole'])
--------------------------------------------------------------------------

    Molecular point group: c1
  Charge       = 0
  Multiplicity = 1
  Basis Set: AUG-CC-PVTZ
    Blend: AUG-CC-PVTZ
  Basis Set: (AUG-CC-PVTZ AUX)
    Blend: AUG-CC-PVTZ-JKFIT

    Orbital Energies [Eh]
    ---------------------

    Doubly Occupied:

       1A    -20.577190     2A    -20.574029     3A    -20.568858
       4A    -20.502361     5A    -15.620855     6A    -15.587824
       7A    -15.540157     8A    -11.369199     9A    -11.344383
      10A    -11.329223    11A    -11.317408    12A    -11.302113
      13A    -11.297923    14A    -11.293932    15A    -11.236236
      16A    -11.236187    17A     -1.409237    18A     -1.381461
      19A     -1.373681    20A     -1.362935    21A     -1.291311
      22A     -1.260026    23A     -1.168344    24A     -1.076267
      25A     -1.066902    26A     -1.028268    27A     -0.925443
      28A     -0.896666    29A     -0.868212    30A     -0.828151
      31A     -0.812349    32A     -0.753912    33A     -0.736886
      34A     -0.718922    35A     -0.705970    36A     -0.693980
      37A     -0.688473    38A     -0.675256    39A     -0.655422
      40A     -0.635117    41A     -0.625932    42A     -0.617743
      43A     -0.604588    44A     -0.595286    45A     -0.585794
      46A     -0.574394    47A     -0.570348    48A     -0.544655
      49A     -0.530825    50A     -0.521341    51A     -0.511886
      52A     -0.483571    53A     -0.481537    54A     -0.467739
      55A     -0.462003    56A     -0.444413    57A     -0.436958
      58A     -0.415760    59A     -0.383076    60A     -0.334158

  @DF-RHF Final Energy:  -811.47590301191349

   => Energetics <=

    Nuclear Repulsion Energy =           1168.7832898235853918
    One-Electron Energy =               -3432.7122317864018441
    Two-Electron Energy =                1452.4530389509031920
    Total Energy =                       -811.4759030119134877
  Basis Set: (AUG-CC-PVTZ AUX)
    Blend: AUG-CC-PVTZ-RI
    Molecular point group: c1

    Geometry (in Angstrom), charge = 0, multiplicity = 1:

       Center              X                  Y                   Z               Mass
    ------------   -----------------  -----------------  -----------------  -----------------
         O            1.359678545070    -0.379200491985    -0.930517704033    15.994914619570
         O            3.199664545070     1.902023508015    -0.298186704033    15.994914619570
         O            2.797014545070    -2.748136491985    -0.398874704033    15.994914619570
         O           -1.364578454930     2.374815508015     0.156109295967    15.994914619570
         N           -0.800636454930     0.200228508015    -0.227929704033    14.003074004430
         N           -3.056564454930     0.806049508015     0.241338295967    14.003074004430
         N           -4.675802454930    -0.811624491985     0.413963295967    14.003074004430
         C            2.699202545070     0.876364508015     0.560800295967    12.000000000000
         C            1.234451545070     1.108036508015     0.889178295967    12.000000000000
         C            2.693465945070    -0.404024891985    -0.310297404033    12.000000000000
         C            0.571565545070     0.683814508015    -0.413589704033    12.000000000000
         C            2.799705545070    -1.659205491985     0.523796295967    12.000000000000
         C           -1.129729454930    -1.115008491985    -0.306949704033    12.000000000000
         C           -1.747080454930     1.204702508015     0.083371295967    12.000000000000
         C           -2.419699454930    -1.503750491985    -0.103215704033    12.000000000000
         C           -3.364384454930    -0.472349491985     0.169837295967    12.000000000000
         H            3.331988545070     0.757595508015     1.452179295967     1.007825032230
         H            0.902314545070     0.444639508015     1.694815295967     1.007825032230
         H            0.982936545070     2.134877508015     1.159473295967     1.007825032230
         H            0.525061545070     1.514064508015    -1.123586704033     1.007825032230
         H            3.415099545070    -0.363472491985    -1.065299704033     1.007825032230
         H            1.983069045070    -1.765647491985     1.257113795967     1.007825032230
         H            3.743696545070    -1.608704491985     1.089615295967     1.007825032230
         H            3.101458545070     2.747134508015     0.179309295967     1.007825032230
         H           -0.313132454930    -1.788390491985    -0.542371704033     1.007825032230
         H            2.907637545070    -3.564261491985     0.120538295967     1.007825032230
         H           -2.705860454930    -2.548273491985    -0.151923704033     1.007825032230
         H           -5.031103454930    -1.636931491985    -0.055392704033     1.007825032230
         H           -5.301863454930    -0.012987491985     0.387427295967     1.007825032230

  Basis Set: AUG-CC-PVTZ
    Blend: AUG-CC-PVTZ
  Basis Set: (AUG-CC-PVTZ AUX)
    Blend: AUG-CC-PVTZ-JKFIT
	 Reference Energy          =    -811.4759030119134877 [Eh]
	 Singles Energy            =      -0.0000000000000000 [Eh]
	 Same-Spin Energy          =      -0.8293251901069101 [Eh]
	 Opposite-Spin Energy      =      -2.5251493700549035 [Eh]
	 Correlation Energy        =      -3.3544745601618136 [Eh]
	 Total Energy              =    -814.8303775720753492 [Eh]

	 ================> DF-SCS-MP2 Energies <==================
	-----------------------------------------------------------
	 SCS Same-Spin Scale       =       0.3333333333333333 [-]
	 SCS Opposite-Spin Scale   =       1.2000000000000000 [-]
	 SCS Same-Spin Energy      =      -0.2764417300356367 [Eh]
	 SCS Opposite-Spin Energy  =      -3.0301792440658839 [Eh]
	 SCS Correlation Energy    =      -3.3066209741015204 [Eh]
	 SCS Total Energy          =    -814.7825239860150077 [Eh]
	-----------------------------------------------------------

  Dipole Moment: [D]
     X:     1.2044      Y:    -4.7186      Z:     2.4901     Total:     5.4696

*** Psi4 exiting successfully. Buy a developer a beer!
