                               Psi4 1.3.2 release

  ==> Input File <==

--------------------------------------------------------------------------
#psi4
#
memory 32 gb

molecule  {
0 1
  O        1.3620710    -0.3800110    -0.9318440
  O        3.2020570     1.9012130    -0.2995130
  O        2.7994070    -2.7489470    -0.4002010
  O       -1.3621860     2.3740050     0.1547830
  N       -0.7982440     0.1994180    -0.2292560
  N       -3.0541720     0.8052390     0.2400120
  N       -4.6734100    -0.8124350     0.4126370
  C        2.7015950     0.8755540     0.5594740
  C        1.2368440     1.1072260     0.8878520
  C        2.6518190    -0.3922910    -0.2854700
  C        0.5739580     0.6830040    -0.4149160
  C        2.8020980    -1.6600160     0.5224700
  C       -1.1102224    -1.1843576    -0.3182006
  C       -1.7446880     1.2038920     0.0820450
  C       -2.4173070    -1.5045610    -0.1045420
  C       -3.3619920    -0.4731600     0.1685110
  H        3.3343810     0.7567850     1.4508530
  H        0.9047070     0.4438290     1.6934890
  H        0.9853290     2.1340670     1.1581470
  H        0.5274540     1.5132540    -1.1249130
  H        3.4174920    -0.3642830    -1.0666260
  H        1.9707490    -1.7331840     1.2432230
  H        3.7460890    -1.6095150     1.0882890
  H        3.1038510     2.7463240     0.1779830
  H       -0.3107400    -1.7892010    -0.5436980
  H        2.9100300    -3.5650720     0.1192120
  H       -2.6493488    -2.5618373    -0.1646453
  H       -5.0287110    -1.6377420    -0.0567190
  H       -5.2994710    -0.0137980     0.3861010
units angstrom
no_reorient  #important for SAPT in psi4, default
symmetry c1  #important for SAPT in psi4, default
}

set PROPERTIES_ORIGIN ["COM"]
properties('MP2/aug-cc-pvtz', properties = ['dipole'])
--------------------------------------------------------------------------

    Molecular point group: c1
  Charge       = 0
  Multiplicity = 1
  Basis Set: AUG-CC-PVTZ
    Blend: AUG-CC-PVTZ
  Basis Set: (AUG-CC-PVTZ AUX)
    Blend: AUG-CC-PVTZ-JKFIT

    Orbital Energies [Eh]
    ---------------------

    Doubly Occupied:

       1A    -20.577364     2A    -20.572599     3A    -20.570766
       4A    -20.501551     5A    -15.616007     6A    -15.591479
       7A    -15.543611     8A    -11.368925     9A    -11.350239
      10A    -11.326041    11A    -11.320114    12A    -11.298859
      13A    -11.296074    14A    -11.291527    15A    -11.243884
      16A    -11.233723    17A     -1.413299    18A     -1.378733
      19A     -1.372663    20A     -1.364183    21A     -1.289822
      22A     -1.249752    23A     -1.169595    24A     -1.078563
      25A     -1.068940    26A     -1.025795    27A     -0.924063
      28A     -0.899519    29A     -0.866888    30A     -0.827568
      31A     -0.805301    32A     -0.752150    33A     -0.735270
      34A     -0.719841    35A     -0.711369    36A     -0.691964
      37A     -0.687254    38A     -0.678960    39A     -0.655076
      40A     -0.636164    41A     -0.625178    42A     -0.621938
      43A     -0.607758    44A     -0.598236    45A     -0.587919
      46A     -0.567441    47A     -0.563953    48A     -0.543726
      49A     -0.531935    50A     -0.520048    51A     -0.509112
      52A     -0.483842    53A     -0.476457    54A     -0.467537
      55A     -0.458319    56A     -0.444205    57A     -0.437381
      58A     -0.416843    59A     -0.383401    60A     -0.338381

  @DF-RHF Final Energy:  -811.47028394475160

   => Energetics <=

    Nuclear Repulsion Energy =           1168.5537584799014894
    One-Electron Energy =               -3432.2698757014481998
    Two-Electron Energy =                1452.2458332767948832
    Total Energy =                       -811.4702839447515998
  Basis Set: (AUG-CC-PVTZ AUX)
    Blend: AUG-CC-PVTZ-RI
    Molecular point group: c1

    Geometry (in Angstrom), charge = 0, multiplicity = 1:

       Center              X                  Y                   Z               Mass
    ------------   -----------------  -----------------  -----------------  -----------------
         O            1.360926428223    -0.376332697775    -0.931268954456    15.994914619570
         O            3.200912428223     1.904891302225    -0.298937954456    15.994914619570
         O            2.798262428223    -2.745268697775    -0.399625954456    15.994914619570
         O           -1.363330571777     2.377683302225     0.155358045544    15.994914619570
         N           -0.799388571777     0.203096302225    -0.228680954456    14.003074004430
         N           -3.055316571777     0.808917302225     0.240587045544    14.003074004430
         N           -4.674554571777    -0.808756697775     0.413212045544    14.003074004430
         C            2.700450428223     0.879232302225     0.560049045544    12.000000000000
         C            1.235699428223     1.110904302225     0.888427045544    12.000000000000
         C            2.650674428223    -0.388612697775    -0.284894954456    12.000000000000
         C            0.572813428223     0.686682302225    -0.414340954456    12.000000000000
         C            2.800953428223    -1.656337697775     0.523045045544    12.000000000000
         C           -1.111366971777    -1.180679297775    -0.317625554456    12.000000000000
         C           -1.745832571777     1.207570302225     0.082620045544    12.000000000000
         C           -2.418451571777    -1.500882697775    -0.103966954456    12.000000000000
         C           -3.363136571777    -0.469481697775     0.169086045544    12.000000000000
         H            3.333236428223     0.760463302225     1.451428045544     1.007825032230
         H            0.903562428223     0.447507302225     1.694064045544     1.007825032230
         H            0.984184428223     2.137745302225     1.158722045544     1.007825032230
         H            0.526309428223     1.516932302225    -1.124337954456     1.007825032230
         H            3.416347428223    -0.360604697775    -1.066050954456     1.007825032230
         H            1.969604428223    -1.729505697775     1.243798045544     1.007825032230
         H            3.744944428223    -1.605836697775     1.088864045544     1.007825032230
         H            3.102706428223     2.750002302225     0.178558045544     1.007825032230
         H           -0.311884571777    -1.785522697775    -0.543122954456     1.007825032230
         H            2.908885428223    -3.561393697775     0.119787045544     1.007825032230
         H           -2.650493371777    -2.558158997775    -0.164070254456     1.007825032230
         H           -5.029855571777    -1.634063697775    -0.056143954456     1.007825032230
         H           -5.300615571777    -0.010119697775     0.386676045544     1.007825032230

  Basis Set: AUG-CC-PVTZ
    Blend: AUG-CC-PVTZ
  Basis Set: (AUG-CC-PVTZ AUX)
    Blend: AUG-CC-PVTZ-JKFIT
	 Reference Energy          =    -811.4702839447515998 [Eh]
	 Singles Energy            =      -0.0000000000000000 [Eh]
	 Same-Spin Energy          =      -0.8297379348390267 [Eh]
	 Opposite-Spin Energy      =      -2.5266576798025397 [Eh]
	 Correlation Energy        =      -3.3563956146415665 [Eh]
	 Total Energy              =    -814.8266795593931420 [Eh]

	 ================> DF-SCS-MP2 Energies <==================
	-----------------------------------------------------------
	 SCS Same-Spin Scale       =       0.3333333333333333 [-]
	 SCS Opposite-Spin Scale   =       1.2000000000000000 [-]
	 SCS Same-Spin Energy      =      -0.2765793116130089 [Eh]
	 SCS Opposite-Spin Energy  =      -3.0319892157630477 [Eh]
	 SCS Correlation Energy    =      -3.3085685273760568 [Eh]
	 SCS Total Energy          =    -814.7788524721277099 [Eh]
	-----------------------------------------------------------

  Dipole Moment: [D]
     X:     0.8350      Y:    -4.8279      Z:     2.4946     Total:     5.4981

*** Psi4 exiting successfully. Buy a developer a beer!
