                               Psi4 1.3.2 release

  ==> Input File <==

--------------------------------------------------------------------------
#psi4
#
memory 32 gb

molecule  {
0 1
  O        1.3620710    -0.3800110    -0.9318440
  O        3.2020570     1.9012130    -0.2995130
  O        2.7994070    -2.7489470    -0.4002010
  O       -1.3621860     2.3740050     0.1547830
  N       -0.7982440     0.1994180    -0.2292560
  N       -3.0541720     0.8052390     0.2400120
  N       -4.6734100    -0.8124350     0.4126370
  C        2.7015950     0.8755540     0.5594740
  C        1.2334530     1.0826367     0.8973137
  C        2.6518190    -0.3922910    -0.2854700
  C        0.5739580     0.6830040    -0.4149160
  C        2.8020980    -1.6600160     0.5224700
  C       -1.1273370    -1.1158190    -0.3082760
  C       -1.7446880     1.2038920     0.0820450
  C       -2.4173070    -1.5045610    -0.1045420
  C       -3.3619920    -0.4731600     0.1685110
  H        3.3343810     0.7567850     1.4508530
  H        0.9047070     0.4438290     1.6934890
  H        0.9853290     2.1340670     1.1581470
  H        0.5188586     1.5017811    -1.1375096
  H        3.4174920    -0.3642830    -1.0666260
  H        1.9707490    -1.7331840     1.2432230
  H        3.7460890    -1.6095150     1.0882890
  H        3.1038510     2.7463240     0.1779830
  H       -0.3107400    -1.7892010    -0.5436980
  H        2.9100300    -3.5650720     0.1192120
  H       -2.7034680    -2.5490840    -0.1532500
  H       -5.0287110    -1.6377420    -0.0567190
  H       -5.2994710    -0.0137980     0.3861010
units angstrom
no_reorient  #important for SAPT in psi4, default
symmetry c1  #important for SAPT in psi4, default
}

set PROPERTIES_ORIGIN ["COM"]
properties('MP2/aug-cc-pvtz', properties = ['dipole'])
--------------------------------------------------------------------------

    Molecular point group: c1
  Charge       = 0
  Multiplicity = 1
  Basis Set: AUG-CC-PVTZ
    Blend: AUG-CC-PVTZ
  Basis Set: (AUG-CC-PVTZ AUX)
    Blend: AUG-CC-PVTZ-JKFIT

    Orbital Energies [Eh]
    ---------------------

    Doubly Occupied:

       1A    -20.577667     2A    -20.575132     3A    -20.572215
       4A    -20.502848     5A    -15.621285     6A    -15.588281
       7A    -15.540708     8A    -11.369736     9A    -11.344934
      10A    -11.330878    11A    -11.318126    12A    -11.300883
      13A    -11.296801    14A    -11.292632    15A    -11.236906
      16A    -11.236861    17A     -1.416629    18A     -1.382314
      19A     -1.373558    20A     -1.365715    21A     -1.292101
      22A     -1.261345    23A     -1.169034    24A     -1.079120
      25A     -1.069067    26A     -1.027551    27A     -0.926760
      28A     -0.897431    29A     -0.868931    30A     -0.831396
      31A     -0.805784    32A     -0.754266    33A     -0.738602
      34A     -0.720462    35A     -0.706661    36A     -0.692437
      37A     -0.689661    38A     -0.676134    39A     -0.656486
      40A     -0.637344    41A     -0.628728    42A     -0.618769
      43A     -0.604377    44A     -0.595262    45A     -0.588202
      46A     -0.572136    47A     -0.568803    48A     -0.543909
      49A     -0.534161    50A     -0.519849    51A     -0.512931
      52A     -0.485462    53A     -0.481617    54A     -0.468872
      55A     -0.461026    56A     -0.444421    57A     -0.438044
      58A     -0.416144    59A     -0.383744    60A     -0.334768

  @DF-RHF Final Energy:  -811.47841193140096

   => Energetics <=

    Nuclear Repulsion Energy =           1170.0473909400545836
    One-Electron Energy =               -3435.1597984891022861
    Two-Electron Energy =                1453.6339956176470878
    Total Energy =                       -811.4784119314008421
  Basis Set: (AUG-CC-PVTZ AUX)
    Blend: AUG-CC-PVTZ-RI
    Molecular point group: c1

    Geometry (in Angstrom), charge = 0, multiplicity = 1:

       Center              X                  Y                   Z               Mass
    ------------   -----------------  -----------------  -----------------  -----------------
         O            1.362288318745    -0.378660764218    -0.932288040644    15.994914619570
         O            3.202274318745     1.902563235782    -0.299957040644    15.994914619570
         O            2.799624318745    -2.747596764218    -0.400645040644    15.994914619570
         O           -1.361968681255     2.375355235782     0.154338959356    15.994914619570
         N           -0.798026681255     0.200768235782    -0.229700040644    14.003074004430
         N           -3.053954681255     0.806589235782     0.239567959356    14.003074004430
         N           -4.673192681255    -0.811084764218     0.412192959356    14.003074004430
         C            2.701812318745     0.876904235782     0.559029959356    12.000000000000
         C            1.233670318745     1.083986935782     0.896869659356    12.000000000000
         C            2.652036318745    -0.390940764218    -0.285914040644    12.000000000000
         C            0.574175318745     0.684354235782    -0.415360040644    12.000000000000
         C            2.802315318745    -1.658665764218     0.522025959356    12.000000000000
         C           -1.127119681255    -1.114468764218    -0.308720040644    12.000000000000
         C           -1.744470681255     1.205242235782     0.081600959356    12.000000000000
         C           -2.417089681255    -1.503210764218    -0.104986040644    12.000000000000
         C           -3.361774681255    -0.471809764218     0.168066959356    12.000000000000
         H            3.334598318745     0.758135235782     1.450408959356     1.007825032230
         H            0.904924318745     0.445179235782     1.693044959356     1.007825032230
         H            0.985546318745     2.135417235782     1.157702959356     1.007825032230
         H            0.519075918745     1.503131335782    -1.137953640644     1.007825032230
         H            3.417709318745    -0.362932764218    -1.067070040644     1.007825032230
         H            1.970966318745    -1.731833764218     1.242778959356     1.007825032230
         H            3.746306318745    -1.608164764218     1.087844959356     1.007825032230
         H            3.104068318745     2.747674235782     0.177538959356     1.007825032230
         H           -0.310522681255    -1.787850764218    -0.544142040644     1.007825032230
         H            2.910247318745    -3.563721764218     0.118767959356     1.007825032230
         H           -2.703250681255    -2.547733764218    -0.153694040644     1.007825032230
         H           -5.028493681255    -1.636391764218    -0.057163040644     1.007825032230
         H           -5.299253681255    -0.012447764218     0.385656959356     1.007825032230

  Basis Set: AUG-CC-PVTZ
    Blend: AUG-CC-PVTZ
  Basis Set: (AUG-CC-PVTZ AUX)
    Blend: AUG-CC-PVTZ-JKFIT
	 Reference Energy          =    -811.4784119314009558 [Eh]
	 Singles Energy            =      -0.0000000000000000 [Eh]
	 Same-Spin Energy          =      -0.8297392137368447 [Eh]
	 Opposite-Spin Energy      =      -2.5252719223940914 [Eh]
	 Correlation Energy        =      -3.3550111361309360 [Eh]
	 Total Energy              =    -814.8334230675318395 [Eh]

	 ================> DF-SCS-MP2 Energies <==================
	-----------------------------------------------------------
	 SCS Same-Spin Scale       =       0.3333333333333333 [-]
	 SCS Opposite-Spin Scale   =       1.2000000000000000 [-]
	 SCS Same-Spin Energy      =      -0.2765797379122815 [Eh]
	 SCS Opposite-Spin Energy  =      -3.0303263068729094 [Eh]
	 SCS Correlation Energy    =      -3.3069060447851908 [Eh]
	 SCS Total Energy          =    -814.7853179761860929 [Eh]
	-----------------------------------------------------------

  Dipole Moment: [D]
     X:     1.0794      Y:    -4.6778      Z:     2.4907     Total:     5.4084

*** Psi4 exiting successfully. Buy a developer a beer!
