                               Psi4 1.3.2 release

  ==> Input File <==

--------------------------------------------------------------------------
#psi4
#
memory 32 gb

molecule  {
0 1
  O        1.3620710    -0.3800110    -0.9318440
  O        3.2020570     1.9012130    -0.2995130
  O        2.7994070    -2.7489470    -0.4002010
  O       -1.3223306     2.3607721     0.1453356
  N       -0.7633412     0.2342692    -0.2316791
  N       -3.0541720     0.8052390     0.2400120
  N       -4.6734100    -0.8124350     0.4126370
  C        2.7015950     0.8755540     0.5594740
  C        1.2368440     1.1072260     0.8878520
  C        2.6518190    -0.3922910    -0.2854700
  C        0.5739580     0.6830040    -0.4149160
  C        2.8020980    -1.6600160     0.5224700
  C       -1.1273370    -1.1158190    -0.3082760
  C       -1.7446880     1.2038920     0.0820450
  C       -2.4173070    -1.5045610    -0.1045420
  C       -3.3619920    -0.4731600     0.1685110
  H        3.3343810     0.7567850     1.4508530
  H        0.9047070     0.4438290     1.6934890
  H        0.9853290     2.1340670     1.1581470
  H        0.5274540     1.5132540    -1.1249130
  H        3.4174920    -0.3642830    -1.0666260
  H        1.9707490    -1.7331840     1.2432230
  H        3.7460890    -1.6095150     1.0882890
  H        3.1038510     2.7463240     0.1779830
  H       -0.3107400    -1.7892010    -0.5436980
  H        2.9100300    -3.5650720     0.1192120
  H       -2.7034680    -2.5490840    -0.1532500
  H       -5.0287110    -1.6377420    -0.0567190
  H       -5.2994710    -0.0137980     0.3861010
units angstrom
no_reorient  #important for SAPT in psi4, default
symmetry c1  #important for SAPT in psi4, default
}

set PROPERTIES_ORIGIN ["COM"]
properties('MP2/aug-cc-pvtz', properties = ['dipole'])
--------------------------------------------------------------------------

    Molecular point group: c1
  Charge       = 0
  Multiplicity = 1
  Basis Set: AUG-CC-PVTZ
    Blend: AUG-CC-PVTZ
  Basis Set: (AUG-CC-PVTZ AUX)
    Blend: AUG-CC-PVTZ-JKFIT

    Orbital Energies [Eh]
    ---------------------

    Doubly Occupied:

       1A    -20.576610     2A    -20.572022     3A    -20.570212
       4A    -20.500719     5A    -15.618327     6A    -15.592004
       7A    -15.545111     8A    -11.369918     9A    -11.349578
      10A    -11.323965    11A    -11.322245    12A    -11.298141
      13A    -11.295401    14A    -11.291007    15A    -11.242021
      16A    -11.232908    17A     -1.415610    18A     -1.382280
      19A     -1.371971    20A     -1.363949    21A     -1.291203
      22A     -1.257692    23A     -1.173453    24A     -1.078537
      25A     -1.068633    26A     -1.026205    27A     -0.927826
      28A     -0.894316    29A     -0.868723    30A     -0.830075
      31A     -0.805317    32A     -0.755907    33A     -0.735448
      34A     -0.719233    35A     -0.709273    36A     -0.691820
      37A     -0.688163    38A     -0.676586    39A     -0.656584
      40A     -0.637130    41A     -0.626197    42A     -0.618162
      43A     -0.604808    44A     -0.595288    45A     -0.587509
      46A     -0.572958    47A     -0.565753    48A     -0.543721
      49A     -0.533115    50A     -0.521656    51A     -0.508679
      52A     -0.483116    53A     -0.477059    54A     -0.466856
      55A     -0.457803    56A     -0.445514    57A     -0.436688
      58A     -0.416966    59A     -0.385337    60A     -0.337516

  @DF-RHF Final Energy:  -811.47492273516423

   => Energetics <=

    Nuclear Repulsion Energy =           1170.7531584404957812
    One-Electron Energy =               -3436.6345134552375384
    Two-Electron Energy =                1454.4064322795773023
    Total Energy =                       -811.4749227351642276
  Basis Set: (AUG-CC-PVTZ AUX)
    Blend: AUG-CC-PVTZ-RI
    Molecular point group: c1

    Geometry (in Angstrom), charge = 0, multiplicity = 1:

       Center              X                  Y                   Z               Mass
    ------------   -----------------  -----------------  -----------------  -----------------
         O            1.357111597030    -0.381228017498    -0.931029131518    15.994914619570
         O            3.197097597030     1.899995982502    -0.298698131518    15.994914619570
         O            2.794447597030    -2.750164017498    -0.399386131518    15.994914619570
         O           -1.327290002970     2.359555082502     0.146150468482    15.994914619570
         N           -0.768300602970     0.233052182502    -0.230864231518    14.003074004430
         N           -3.059131402970     0.804021982502     0.240826868482    14.003074004430
         N           -4.678369402970    -0.813652017498     0.413451868482    14.003074004430
         C            2.696635597030     0.874336982502     0.560288868482    12.000000000000
         C            1.231884597030     1.106008982502     0.888666868482    12.000000000000
         C            2.646859597030    -0.393508017498    -0.284655131518    12.000000000000
         C            0.568998597030     0.681786982502    -0.414101131518    12.000000000000
         C            2.797138597030    -1.661233017498     0.523284868482    12.000000000000
         C           -1.132296402970    -1.117036017498    -0.307461131518    12.000000000000
         C           -1.749647402970     1.202674982502     0.082859868482    12.000000000000
         C           -2.422266402970    -1.505778017498    -0.103727131518    12.000000000000
         C           -3.366951402970    -0.474377017498     0.169325868482    12.000000000000
         H            3.329421597030     0.755567982502     1.451667868482     1.007825032230
         H            0.899747597030     0.442611982502     1.694303868482     1.007825032230
         H            0.980369597030     2.132849982502     1.158961868482     1.007825032230
         H            0.522494597030     1.512036982502    -1.124098131518     1.007825032230
         H            3.412532597030    -0.365500017498    -1.065811131518     1.007825032230
         H            1.965789597030    -1.734401017498     1.244037868482     1.007825032230
         H            3.741129597030    -1.610732017498     1.089103868482     1.007825032230
         H            3.098891597030     2.745106982502     0.178797868482     1.007825032230
         H           -0.315699402970    -1.790418017498    -0.542883131518     1.007825032230
         H            2.905070597030    -3.566289017498     0.120026868482     1.007825032230
         H           -2.708427402970    -2.550301017498    -0.152435131518     1.007825032230
         H           -5.033670402970    -1.638959017498    -0.055904131518     1.007825032230
         H           -5.304430402970    -0.015015017498     0.386915868482     1.007825032230

  Basis Set: AUG-CC-PVTZ
    Blend: AUG-CC-PVTZ
  Basis Set: (AUG-CC-PVTZ AUX)
    Blend: AUG-CC-PVTZ-JKFIT
	 Reference Energy          =    -811.4749227351642276 [Eh]
	 Singles Energy            =      -0.0000000000000000 [Eh]
	 Same-Spin Energy          =      -0.8297092369489915 [Eh]
	 Opposite-Spin Energy      =      -2.5255632709166052 [Eh]
	 Correlation Energy        =      -3.3552725078655965 [Eh]
	 Total Energy              =    -814.8301952430298343 [Eh]

	 ================> DF-SCS-MP2 Energies <==================
	-----------------------------------------------------------
	 SCS Same-Spin Scale       =       0.3333333333333333 [-]
	 SCS Opposite-Spin Scale   =       1.2000000000000000 [-]
	 SCS Same-Spin Energy      =      -0.2765697456496638 [Eh]
	 SCS Opposite-Spin Energy  =      -3.0306759250999260 [Eh]
	 SCS Correlation Energy    =      -3.3072456707495896 [Eh]
	 SCS Total Energy          =    -814.7821684059138079 [Eh]
	-----------------------------------------------------------

  Dipole Moment: [D]
     X:     0.6938      Y:    -4.7716      Z:     2.5203     Total:     5.4407

*** Psi4 exiting successfully. Buy a developer a beer!
