                               Psi4 1.3.2 release

  ==> Input File <==

--------------------------------------------------------------------------
#psi4
#
memory 32 gb

molecule  {
0 1
  O        1.3620710    -0.3800110    -0.9318440
  O        3.2020570     1.9012130    -0.2995130
  O        2.7994070    -2.7489470    -0.4002010
  O       -1.3621860     2.3740050     0.1547830
  N       -0.7982440     0.1994180    -0.2292560
  N       -3.0541720     0.8052390     0.2400120
  N       -4.6734100    -0.8124350     0.4126370
  C        2.7015950     0.8755540     0.5594740
  C        1.2368440     1.1072260     0.8878520
  C        2.6518190    -0.3922910    -0.2854700
  C        0.5700085     0.6949478    -0.4125553
  C        2.8020980    -1.6600160     0.5224700
  C       -1.1273370    -1.1158190    -0.3082760
  C       -1.7357450     1.2123906     0.0815673
  C       -2.4173070    -1.5045610    -0.1045420
  C       -3.3619920    -0.4731600     0.1685110
  H        3.3343810     0.7567850     1.4508530
  H        0.9047070     0.4438290     1.6934890
  H        0.9853290     2.1340670     1.1581470
  H        0.5274540     1.5132540    -1.1249130
  H        3.4174920    -0.3642830    -1.0666260
  H        1.9707490    -1.7331840     1.2432230
  H        3.7460890    -1.6095150     1.0882890
  H        3.1038510     2.7463240     0.1779830
  H       -0.3107400    -1.7892010    -0.5436980
  H        2.9100300    -3.5650720     0.1192120
  H       -2.7034680    -2.5490840    -0.1532500
  H       -5.0287110    -1.6377420    -0.0567190
  H       -5.2994710    -0.0137980     0.3861010
units angstrom
no_reorient  #important for SAPT in psi4, default
symmetry c1  #important for SAPT in psi4, default
}

set PROPERTIES_ORIGIN ["COM"]
properties('MP2/aug-cc-pvtz', properties = ['dipole'])
--------------------------------------------------------------------------

    Molecular point group: c1
  Charge       = 0
  Multiplicity = 1
  Basis Set: AUG-CC-PVTZ
    Blend: AUG-CC-PVTZ
  Basis Set: (AUG-CC-PVTZ AUX)
    Blend: AUG-CC-PVTZ-JKFIT

    Orbital Energies [Eh]
    ---------------------

    Doubly Occupied:

       1A    -20.577349     2A    -20.574612     3A    -20.571613
       4A    -20.506467     5A    -15.621295     6A    -15.587301
       7A    -15.539842     8A    -11.370327     9A    -11.343599
      10A    -11.330895    11A    -11.317899    12A    -11.301047
      13A    -11.296404    14A    -11.292301    15A    -11.237359
      16A    -11.236461    17A     -1.414175    18A     -1.386702
      19A     -1.373405    20A     -1.365403    21A     -1.293603
      22A     -1.261043    23A     -1.166128    24A     -1.079418
      25A     -1.068163    26A     -1.027878    27A     -0.926701
      28A     -0.897244    29A     -0.867894    30A     -0.829976
      31A     -0.805839    32A     -0.753160    33A     -0.738299
      34A     -0.720681    35A     -0.706464    36A     -0.692578
      37A     -0.689288    38A     -0.675266    39A     -0.655689
      40A     -0.637242    41A     -0.627831    42A     -0.620022
      43A     -0.605204    44A     -0.594342    45A     -0.588822
      46A     -0.573619    47A     -0.567743    48A     -0.544363
      49A     -0.532715    50A     -0.523704    51A     -0.512238
      52A     -0.485370    53A     -0.483708    54A     -0.468165
      55A     -0.461403    56A     -0.446689    57A     -0.438647
      58A     -0.415003    59A     -0.383261    60A     -0.334994

  @DF-RHF Final Energy:  -811.47906939314407

   => Energetics <=

    Nuclear Repulsion Energy =           1169.8368043219768424
    One-Electron Energy =               -3434.7420459311365448
    Two-Electron Energy =                1453.4261722160158570
    Total Energy =                       -811.4790693931440728
  Basis Set: (AUG-CC-PVTZ AUX)
    Blend: AUG-CC-PVTZ-RI
    Molecular point group: c1

    Geometry (in Angstrom), charge = 0, multiplicity = 1:

       Center              X                  Y                   Z               Mass
    ------------   -----------------  -----------------  -----------------  -----------------
         O            1.361807115840    -0.381091261392    -0.931943467909    15.994914619570
         O            3.201793115840     1.900132738608    -0.299612467909    15.994914619570
         O            2.799143115840    -2.750027261392    -0.400300467909    15.994914619570
         O           -1.362449884160     2.372924738608     0.154683532091    15.994914619570
         N           -0.798507884160     0.198337738608    -0.229355467909    14.003074004430
         N           -3.054435884160     0.804158738608     0.239912532091    14.003074004430
         N           -4.673673884160    -0.813515261392     0.412537532091    14.003074004430
         C            2.701331115840     0.874473738608     0.559374532091    12.000000000000
         C            1.236580115840     1.106145738608     0.887752532091    12.000000000000
         C            2.651555115840    -0.393371261392    -0.285569467909    12.000000000000
         C            0.569744615840     0.693867538608    -0.412654767909    12.000000000000
         C            2.801834115840    -1.661096261392     0.522370532091    12.000000000000
         C           -1.127600884160    -1.116899261392    -0.308375467909    12.000000000000
         C           -1.736008884160     1.211310338608     0.081467832091    12.000000000000
         C           -2.417570884160    -1.505641261392    -0.104641467909    12.000000000000
         C           -3.362255884160    -0.474240261392     0.168411532091    12.000000000000
         H            3.334117115840     0.755704738608     1.450753532091     1.007825032230
         H            0.904443115840     0.442748738608     1.693389532091     1.007825032230
         H            0.985065115840     2.132986738608     1.158047532091     1.007825032230
         H            0.527190115840     1.512173738608    -1.125012467909     1.007825032230
         H            3.417228115840    -0.365363261392    -1.066725467909     1.007825032230
         H            1.970485115840    -1.734264261392     1.243123532091     1.007825032230
         H            3.745825115840    -1.610595261392     1.088189532091     1.007825032230
         H            3.103587115840     2.745243738608     0.177883532091     1.007825032230
         H           -0.311003884160    -1.790281261392    -0.543797467909     1.007825032230
         H            2.909766115840    -3.566152261392     0.119112532091     1.007825032230
         H           -2.703731884160    -2.550164261392    -0.153349467909     1.007825032230
         H           -5.028974884160    -1.638822261392    -0.056818467909     1.007825032230
         H           -5.299734884160    -0.014878261392     0.386001532091     1.007825032230

  Basis Set: AUG-CC-PVTZ
    Blend: AUG-CC-PVTZ
  Basis Set: (AUG-CC-PVTZ AUX)
    Blend: AUG-CC-PVTZ-JKFIT
	 Reference Energy          =    -811.4790693931440728 [Eh]
	 Singles Energy            =      -0.0000000000000000 [Eh]
	 Same-Spin Energy          =      -0.8294961255377905 [Eh]
	 Opposite-Spin Energy      =      -2.5251406270409817 [Eh]
	 Correlation Energy        =      -3.3546367525787724 [Eh]
	 Total Energy              =    -814.8337061457228856 [Eh]

	 ================> DF-SCS-MP2 Energies <==================
	-----------------------------------------------------------
	 SCS Same-Spin Scale       =       0.3333333333333333 [-]
	 SCS Opposite-Spin Scale   =       1.2000000000000000 [-]
	 SCS Same-Spin Energy      =      -0.2764987085125968 [Eh]
	 SCS Opposite-Spin Energy  =      -3.0301687524491778 [Eh]
	 SCS Correlation Energy    =      -3.3066674609617746 [Eh]
	 SCS Total Energy          =    -814.7857368541058349 [Eh]
	-----------------------------------------------------------

  Dipole Moment: [D]
     X:     1.1007      Y:    -4.5487      Z:     2.4968     Total:     5.3043

*** Psi4 exiting successfully. Buy a developer a beer!
