                               Psi4 1.3.2 release

  ==> Input File <==

--------------------------------------------------------------------------
#psi4
#
memory 32 gb

molecule  {
0 1
  O        1.3620710    -0.3800110    -0.9318440
  O        3.2020570     1.9012130    -0.2995130
  O        2.8072286    -2.7954897    -0.3422687
  O       -1.3621860     2.3740050     0.1547830
  N       -0.7982440     0.1994180    -0.2292560
  N       -3.0541720     0.8052390     0.2400120
  N       -4.6734100    -0.8124350     0.4126370
  C        2.7015950     0.8755540     0.5594740
  C        1.2368440     1.1072260     0.8878520
  C        2.6546029    -0.3513388    -0.2178588
  C        0.5739580     0.6830040    -0.4149160
  C        2.8020980    -1.6600160     0.5224700
  C       -1.1273370    -1.1158190    -0.3082760
  C       -1.7446880     1.2038920     0.0820450
  C       -2.4173070    -1.5045610    -0.1045420
  C       -3.3619920    -0.4731600     0.1685110
  H        3.3343810     0.7567850     1.4508530
  H        0.9047070     0.4438290     1.6934890
  H        0.9853290     2.1340670     1.1581470
  H        0.5274540     1.5132540    -1.1249130
  H        3.4174920    -0.3642830    -1.0666260
  H        1.9707490    -1.7331840     1.2432230
  H        3.7460890    -1.6095150     1.0882890
  H        3.1038510     2.7463240     0.1779830
  H       -0.3107400    -1.7892010    -0.5436980
  H        2.9100300    -3.5650720     0.1192120
  H       -2.7034680    -2.5490840    -0.1532500
  H       -5.0287110    -1.6377420    -0.0567190
  H       -5.2994710    -0.0137980     0.3861010
units angstrom
no_reorient  #important for SAPT in psi4, default
symmetry c1  #important for SAPT in psi4, default
}

set PROPERTIES_ORIGIN ["COM"]
properties('MP2/aug-cc-pvtz', properties = ['dipole'])
--------------------------------------------------------------------------

    Molecular point group: c1
  Charge       = 0
  Multiplicity = 1
  Basis Set: AUG-CC-PVTZ
    Blend: AUG-CC-PVTZ
  Basis Set: (AUG-CC-PVTZ AUX)
    Blend: AUG-CC-PVTZ-JKFIT

    Orbital Energies [Eh]
    ---------------------

    Doubly Occupied:

       1A    -20.577240     2A    -20.572167     3A    -20.570461
       4A    -20.502898     5A    -15.621203     6A    -15.588161
       7A    -15.540537     8A    -11.369564     9A    -11.344797
      10A    -11.329370    11A    -11.317936    12A    -11.301765
      13A    -11.301134    14A    -11.298101    15A    -11.238965
      16A    -11.236729    17A     -1.413582    18A     -1.387643
      19A     -1.381944    20A     -1.367121    21A     -1.291822
      22A     -1.260593    23A     -1.168724    24A     -1.089265
      25A     -1.072880    26A     -1.029620    27A     -0.934224
      28A     -0.898327    29A     -0.873278    30A     -0.831118
      31A     -0.801660    32A     -0.754079    33A     -0.738641
      34A     -0.733414    35A     -0.709666    36A     -0.697263
      37A     -0.692114    38A     -0.674552    39A     -0.656386
      40A     -0.639184    41A     -0.628414    42A     -0.619609
      43A     -0.604186    44A     -0.596676    45A     -0.587886
      46A     -0.574215    47A     -0.562619    48A     -0.542583
      49A     -0.535498    50A     -0.523456    51A     -0.509250
      52A     -0.499492    53A     -0.482149    54A     -0.468131
      55A     -0.461810    56A     -0.443647    57A     -0.437339
      58A     -0.416021    59A     -0.383560    60A     -0.334723

  @DF-RHF Final Energy:  -811.46933885276405

   => Energetics <=

    Nuclear Repulsion Energy =           1169.8821474368191957
    One-Electron Energy =               -3434.6641832952714140
    Two-Electron Energy =                1453.3126970056882783
    Total Energy =                       -811.4693388527639399
  Basis Set: (AUG-CC-PVTZ AUX)
    Blend: AUG-CC-PVTZ-RI
    Molecular point group: c1

    Geometry (in Angstrom), charge = 0, multiplicity = 1:

       Center              X                  Y                   Z               Mass
    ------------   -----------------  -----------------  -----------------  -----------------
         O            1.361372969197    -0.378896855724    -0.939497107503    15.994914619570
         O            3.201358969197     1.902327144276    -0.307166107503    15.994914619570
         O            2.806530569197    -2.794375555724    -0.349921807503    15.994914619570
         O           -1.362884030803     2.375119144276     0.147129892497    15.994914619570
         N           -0.798942030803     0.200532144276    -0.236909107503    14.003074004430
         N           -3.054870030803     0.806353144276     0.232358892497    14.003074004430
         N           -4.674108030803    -0.811320855724     0.404983892497    14.003074004430
         C            2.700896969197     0.876668144276     0.551820892497    12.000000000000
         C            1.236145969197     1.108340144276     0.880198892497    12.000000000000
         C            2.653904869197    -0.350224655724    -0.225511907503    12.000000000000
         C            0.573259969197     0.684118144276    -0.422569107503    12.000000000000
         C            2.801399969197    -1.658901855724     0.514816892497    12.000000000000
         C           -1.128035030803    -1.114704855724    -0.315929107503    12.000000000000
         C           -1.745386030803     1.205006144276     0.074391892497    12.000000000000
         C           -2.418005030803    -1.503446855724    -0.112195107503    12.000000000000
         C           -3.362690030803    -0.472045855724     0.160857892497    12.000000000000
         H            3.333682969197     0.757899144276     1.443199892497     1.007825032230
         H            0.904008969197     0.444943144276     1.685835892497     1.007825032230
         H            0.984630969197     2.135181144276     1.150493892497     1.007825032230
         H            0.526755969197     1.514368144276    -1.132566107503     1.007825032230
         H            3.416793969197    -0.363168855724    -1.074279107503     1.007825032230
         H            1.970050969197    -1.732069855724     1.235569892497     1.007825032230
         H            3.745390969197    -1.608400855724     1.080635892497     1.007825032230
         H            3.103152969197     2.747438144276     0.170329892497     1.007825032230
         H           -0.311438030803    -1.788086855724    -0.551351107503     1.007825032230
         H            2.909331969197    -3.563957855724     0.111558892497     1.007825032230
         H           -2.704166030803    -2.547969855724    -0.160903107503     1.007825032230
         H           -5.029409030803    -1.636627855724    -0.064372107503     1.007825032230
         H           -5.300169030803    -0.012683855724     0.378447892497     1.007825032230

  Basis Set: AUG-CC-PVTZ
    Blend: AUG-CC-PVTZ
  Basis Set: (AUG-CC-PVTZ AUX)
    Blend: AUG-CC-PVTZ-JKFIT
	 Reference Energy          =    -811.4693388527640536 [Eh]
	 Singles Energy            =      -0.0000000000000000 [Eh]
	 Same-Spin Energy          =      -0.8296286211710904 [Eh]
	 Opposite-Spin Energy      =      -2.5242601203060566 [Eh]
	 Correlation Energy        =      -3.3538887414771468 [Eh]
	 Total Energy              =    -814.8232275942411889 [Eh]

	 ================> DF-SCS-MP2 Energies <==================
	-----------------------------------------------------------
	 SCS Same-Spin Scale       =       0.3333333333333333 [-]
	 SCS Opposite-Spin Scale   =       1.2000000000000000 [-]
	 SCS Same-Spin Energy      =      -0.2765428737236968 [Eh]
	 SCS Opposite-Spin Energy  =      -3.0291121443672679 [Eh]
	 SCS Correlation Energy    =      -3.3056550180909650 [Eh]
	 SCS Total Energy          =    -814.7749938708550417 [Eh]
	-----------------------------------------------------------

  Dipole Moment: [D]
     X:     1.1162      Y:    -4.5437      Z:     2.5114     Total:     5.3102

*** Psi4 exiting successfully. Buy a developer a beer!
