                               Psi4 1.3.2 release

  ==> Input File <==

--------------------------------------------------------------------------
#psi4
#
memory 32 gb

molecule  {
0 1
  O        1.3620710    -0.3800110    -0.9318440
  O        3.2020570     1.9012130    -0.2995130
  O        2.7994070    -2.7489470    -0.4002010
  O       -1.3621860     2.3740050     0.1547830
  N       -0.7982440     0.1994180    -0.2292560
  N       -3.0541720     0.8052390     0.2400120
  N       -4.6734100    -0.8124350     0.4126370
  C        2.7015950     0.8755540     0.5594740
  C        1.2368440     1.1072260     0.8878520
  C        2.6518190    -0.3922910    -0.2854700
  C        0.5739580     0.6830040    -0.4149160
  C        2.8020980    -1.6600160     0.5224700
  C       -1.1242291    -1.1271775    -0.3099239
  C       -1.7446880     1.2038920     0.0820450
  C       -2.4173070    -1.5045610    -0.1045420
  C       -3.3709862    -0.4817037     0.1693826
  H        3.3343810     0.7567850     1.4508530
  H        0.9047070     0.4438290     1.6934890
  H        0.9853290     2.1340670     1.1581470
  H        0.5274540     1.5132540    -1.1249130
  H        3.4174920    -0.3642830    -1.0666260
  H        1.9707490    -1.7331840     1.2432230
  H        3.7460890    -1.6095150     1.0882890
  H        3.1038510     2.7463240     0.1779830
  H       -0.3107400    -1.7892010    -0.5436980
  H        2.9100300    -3.5650720     0.1192120
  H       -2.7034680    -2.5490840    -0.1532500
  H       -5.0287110    -1.6377420    -0.0567190
  H       -5.2994710    -0.0137980     0.3861010
units angstrom
no_reorient  #important for SAPT in psi4, default
symmetry c1  #important for SAPT in psi4, default
}

set PROPERTIES_ORIGIN ["COM"]
properties('MP2/aug-cc-pvtz', properties = ['dipole'])
--------------------------------------------------------------------------

    Molecular point group: c1
  Charge       = 0
  Multiplicity = 1
  Basis Set: AUG-CC-PVTZ
    Blend: AUG-CC-PVTZ
  Basis Set: (AUG-CC-PVTZ AUX)
    Blend: AUG-CC-PVTZ-JKFIT

    Orbital Energies [Eh]
    ---------------------

    Doubly Occupied:

       1A    -20.577560     2A    -20.573814     3A    -20.572262
       4A    -20.501499     5A    -15.620377     6A    -15.591019
       7A    -15.540121     8A    -11.368544     9A    -11.346400
      10A    -11.329560    11A    -11.318879    12A    -11.300270
      13A    -11.296573    14A    -11.292601    15A    -11.238065
      16A    -11.235939    17A     -1.415710    18A     -1.380668
      19A     -1.373249    20A     -1.365075    21A     -1.291483
      22A     -1.260873    23A     -1.168137    24A     -1.078376
      25A     -1.068571    26A     -1.027414    27A     -0.926221
      28A     -0.897476    29A     -0.867835    30A     -0.830013
      31A     -0.806046    32A     -0.754526    33A     -0.737581
      34A     -0.720581    35A     -0.709517    36A     -0.692715
      37A     -0.689133    38A     -0.676510    39A     -0.656264
      40A     -0.636149    41A     -0.626248    42A     -0.618998
      43A     -0.604636    44A     -0.596643    45A     -0.588033
      46A     -0.571521    47A     -0.568303    48A     -0.544612
      49A     -0.533299    50A     -0.522831    51A     -0.510344
      52A     -0.485271    53A     -0.480544    54A     -0.468170
      55A     -0.460436    56A     -0.443096    57A     -0.436937
      58A     -0.415183    59A     -0.382087    60A     -0.335079

  @DF-RHF Final Energy:  -811.47840956219841

   => Energetics <=

    Nuclear Repulsion Energy =           1169.5311552949303859
    One-Electron Energy =               -3434.1673695697418225
    Two-Electron Energy =                1453.1578047126126876
    Total Energy =                       -811.4784095621985216
  Basis Set: (AUG-CC-PVTZ AUX)
    Blend: AUG-CC-PVTZ-RI
    Molecular point group: c1

    Geometry (in Angstrom), charge = 0, multiplicity = 1:

       Center              X                  Y                   Z               Mass
    ------------   -----------------  -----------------  -----------------  -----------------
         O            1.362382029978    -0.378959358145    -0.931802944262    15.994914619570
         O            3.202368029978     1.902264641855    -0.299471944262    15.994914619570
         O            2.799718029978    -2.747895358145    -0.400159944262    15.994914619570
         O           -1.361874970022     2.375056641855     0.154824055738    15.994914619570
         N           -0.797932970022     0.200469641855    -0.229214944262    14.003074004430
         N           -3.053860970022     0.806290641855     0.240053055738    14.003074004430
         N           -4.673098970022    -0.811383358145     0.412678055738    14.003074004430
         C            2.701906029978     0.876605641855     0.559515055738    12.000000000000
         C            1.237155029978     1.108277641855     0.887893055738    12.000000000000
         C            2.652130029978    -0.391239358145    -0.285428944262    12.000000000000
         C            0.574269029978     0.684055641855    -0.414874944262    12.000000000000
         C            2.802409029978    -1.658964358145     0.522511055738    12.000000000000
         C           -1.123918070022    -1.126125858145    -0.309882844262    12.000000000000
         C           -1.744376970022     1.204943641855     0.082086055738    12.000000000000
         C           -2.416995970022    -1.503509358145    -0.104500944262    12.000000000000
         C           -3.370675170022    -0.480652058145     0.169423655738    12.000000000000
         H            3.334692029978     0.757836641855     1.450894055738     1.007825032230
         H            0.905018029978     0.444880641855     1.693530055738     1.007825032230
         H            0.985640029978     2.135118641855     1.158188055738     1.007825032230
         H            0.527765029978     1.514305641855    -1.124871944262     1.007825032230
         H            3.417803029978    -0.363231358145    -1.066584944262     1.007825032230
         H            1.971060029978    -1.732132358145     1.243264055738     1.007825032230
         H            3.746400029978    -1.608463358145     1.088330055738     1.007825032230
         H            3.104162029978     2.747375641855     0.178024055738     1.007825032230
         H           -0.310428970022    -1.788149358145    -0.543656944262     1.007825032230
         H            2.910341029978    -3.564020358145     0.119253055738     1.007825032230
         H           -2.703156970022    -2.548032358145    -0.153208944262     1.007825032230
         H           -5.028399970022    -1.636690358145    -0.056677944262     1.007825032230
         H           -5.299159970022    -0.012746358145     0.386142055738     1.007825032230

  Basis Set: AUG-CC-PVTZ
    Blend: AUG-CC-PVTZ
  Basis Set: (AUG-CC-PVTZ AUX)
    Blend: AUG-CC-PVTZ-JKFIT
	 Reference Energy          =    -811.4784095621984079 [Eh]
	 Singles Energy            =      -0.0000000000000000 [Eh]
	 Same-Spin Energy          =      -0.8297658284624667 [Eh]
	 Opposite-Spin Energy      =      -2.5254421047453768 [Eh]
	 Correlation Energy        =      -3.3552079332078435 [Eh]
	 Total Energy              =    -814.8336174954062017 [Eh]

	 ================> DF-SCS-MP2 Energies <==================
	-----------------------------------------------------------
	 SCS Same-Spin Scale       =       0.3333333333333333 [-]
	 SCS Opposite-Spin Scale   =       1.2000000000000000 [-]
	 SCS Same-Spin Energy      =      -0.2765886094874889 [Eh]
	 SCS Opposite-Spin Energy  =      -3.0305305256944521 [Eh]
	 SCS Correlation Energy    =      -3.3071191351819409 [Eh]
	 SCS Total Energy          =    -814.7855286973803004 [Eh]
	-----------------------------------------------------------

  Dipole Moment: [D]
     X:     0.9393      Y:    -4.7601      Z:     2.5017     Total:     5.4589

*** Psi4 exiting successfully. Buy a developer a beer!
