                               Psi4 1.3.2 release

  ==> Input File <==

--------------------------------------------------------------------------
#psi4
#
memory 32 gb

molecule  {
0 1
  O        1.3620710    -0.3800110    -0.9318440
  O        3.2020570     1.9012130    -0.2995130
  O        2.7994070    -2.7489470    -0.4002010
  O       -1.3621860     2.3740050     0.1547830
  N       -0.7982440     0.1994180    -0.2292560
  N       -3.0541720     0.8052390     0.2400120
  N       -4.6734100    -0.8124350     0.4126370
  C        2.7015950     0.8755540     0.5594740
  C        1.2368440     1.1072260     0.8878520
  C        2.6518190    -0.3922910    -0.2854700
  C        0.5572279     0.7307575    -0.4071255
  C        2.8020980    -1.6600160     0.5224700
  C       -1.1724235    -1.1042200    -0.2993440
  C       -1.7446880     1.2038920     0.0820450
  C       -2.4173070    -1.5045610    -0.1045420
  C       -3.3619920    -0.4731600     0.1685110
  H        3.3343810     0.7567850     1.4508530
  H        0.9047070     0.4438290     1.6934890
  H        0.9853290     2.1340670     1.1581470
  H        0.5274540     1.5132540    -1.1249130
  H        3.4174920    -0.3642830    -1.0666260
  H        1.9707490    -1.7331840     1.2432230
  H        3.7460890    -1.6095150     1.0882890
  H        3.1038510     2.7463240     0.1779830
  H       -0.3107400    -1.7892010    -0.5436980
  H        2.9100300    -3.5650720     0.1192120
  H       -2.7034680    -2.5490840    -0.1532500
  H       -5.0287110    -1.6377420    -0.0567190
  H       -5.2994710    -0.0137980     0.3861010
units angstrom
no_reorient  #important for SAPT in psi4, default
symmetry c1  #important for SAPT in psi4, default
}

set PROPERTIES_ORIGIN ["COM"]
properties('MP2/aug-cc-pvtz', properties = ['dipole'])
--------------------------------------------------------------------------

    Molecular point group: c1
  Charge       = 0
  Multiplicity = 1
  Basis Set: AUG-CC-PVTZ
    Blend: AUG-CC-PVTZ
  Basis Set: (AUG-CC-PVTZ AUX)
    Blend: AUG-CC-PVTZ-JKFIT

    Orbital Energies [Eh]
    ---------------------

    Doubly Occupied:

       1A    -20.575467     2A    -20.573964     3A    -20.566807
       4A    -20.503753     5A    -15.620160     6A    -15.590208
       7A    -15.541553     8A    -11.368984     9A    -11.346769
      10A    -11.332049    11A    -11.314798    12A    -11.300139
      13A    -11.294226    14A    -11.289028    15A    -11.237269
      16A    -11.234665    17A     -1.405275    18A     -1.382565
      19A     -1.371873    20A     -1.359608    21A     -1.294052
      22A     -1.260843    23A     -1.170250    24A     -1.085214
      25A     -1.069196    26A     -1.029576    27A     -0.927543
      28A     -0.891824    29A     -0.869058    30A     -0.832962
      31A     -0.803579    32A     -0.756314    33A     -0.737616
      34A     -0.719102    35A     -0.705357    36A     -0.692562
      37A     -0.687290    38A     -0.672296    39A     -0.652770
      40A     -0.639502    41A     -0.628238    42A     -0.617048
      43A     -0.600985    44A     -0.593849    45A     -0.582058
      46A     -0.577156    47A     -0.564607    48A     -0.541563
      49A     -0.532795    50A     -0.521831    51A     -0.512786
      52A     -0.483946    53A     -0.481780    54A     -0.466348
      55A     -0.460641    56A     -0.445256    57A     -0.438773
      58A     -0.415550    59A     -0.385733    60A     -0.341505

  @DF-RHF Final Energy:  -811.47328928532841

   => Energetics <=

    Nuclear Repulsion Energy =           1169.7322464062619929
    One-Electron Energy =               -3434.6140399930891363
    Two-Electron Energy =                1453.4085043014988514
    Total Energy =                       -811.4732892853285193
  Basis Set: (AUG-CC-PVTZ AUX)
    Blend: AUG-CC-PVTZ-RI
    Molecular point group: c1

    Geometry (in Angstrom), charge = 0, multiplicity = 1:

       Center              X                  Y                   Z               Mass
    ------------   -----------------  -----------------  -----------------  -----------------
         O            1.365337518151    -0.383147362295    -0.932727621878    15.994914619570
         O            3.205323518151     1.898076637705    -0.300396621878    15.994914619570
         O            2.802673518151    -2.752083362295    -0.401084621878    15.994914619570
         O           -1.358919481849     2.370868637705     0.153899378122    15.994914619570
         N           -0.794977481849     0.196281637705    -0.230139621878    14.003074004430
         N           -3.050905481849     0.802102637705     0.239128378122    14.003074004430
         N           -4.670143481849    -0.815571362295     0.411753378122    14.003074004430
         C            2.704861518151     0.872417637705     0.558590378122    12.000000000000
         C            1.240110518151     1.104089637705     0.886968378122    12.000000000000
         C            2.655085518151    -0.395427362295    -0.286353621878    12.000000000000
         C            0.560494418151     0.727621137705    -0.408009121878    12.000000000000
         C            2.805364518151    -1.663152362295     0.521586378122    12.000000000000
         C           -1.169156981849    -1.107356362295    -0.300227621878    12.000000000000
         C           -1.741421481849     1.200755637705     0.081161378122    12.000000000000
         C           -2.414040481849    -1.507697362295    -0.105425621878    12.000000000000
         C           -3.358725481849    -0.476296362295     0.167627378122    12.000000000000
         H            3.337647518151     0.753648637705     1.449969378122     1.007825032230
         H            0.907973518151     0.440692637705     1.692605378122     1.007825032230
         H            0.988595518151     2.130930637705     1.157263378122     1.007825032230
         H            0.530720518151     1.510117637705    -1.125796621878     1.007825032230
         H            3.420758518151    -0.367419362295    -1.067509621878     1.007825032230
         H            1.974015518151    -1.736320362295     1.242339378122     1.007825032230
         H            3.749355518151    -1.612651362295     1.087405378122     1.007825032230
         H            3.107117518151     2.743187637705     0.177099378122     1.007825032230
         H           -0.307473481849    -1.792337362295    -0.544581621878     1.007825032230
         H            2.913296518151    -3.568208362295     0.118328378122     1.007825032230
         H           -2.700201481849    -2.552220362295    -0.154133621878     1.007825032230
         H           -5.025444481849    -1.640878362295    -0.057602621878     1.007825032230
         H           -5.296204481849    -0.016934362295     0.385217378122     1.007825032230

  Basis Set: AUG-CC-PVTZ
    Blend: AUG-CC-PVTZ
  Basis Set: (AUG-CC-PVTZ AUX)
    Blend: AUG-CC-PVTZ-JKFIT
	 Reference Energy          =    -811.4732892853284056 [Eh]
	 Singles Energy            =      -0.0000000000000000 [Eh]
	 Same-Spin Energy          =      -0.8294624399498254 [Eh]
	 Opposite-Spin Energy      =      -2.5254290309298266 [Eh]
	 Correlation Energy        =      -3.3548914708796520 [Eh]
	 Total Energy              =    -814.8281807562080985 [Eh]

	 ================> DF-SCS-MP2 Energies <==================
	-----------------------------------------------------------
	 SCS Same-Spin Scale       =       0.3333333333333333 [-]
	 SCS Opposite-Spin Scale   =       1.2000000000000000 [-]
	 SCS Same-Spin Energy      =      -0.2764874799832751 [Eh]
	 SCS Opposite-Spin Energy  =      -3.0305148371157919 [Eh]
	 SCS Correlation Energy    =      -3.3070023170990672 [Eh]
	 SCS Total Energy          =    -814.7802916024274964 [Eh]
	-----------------------------------------------------------

  Dipole Moment: [D]
     X:     0.8237      Y:    -4.5760      Z:     2.5273     Total:     5.2920

*** Psi4 exiting successfully. Buy a developer a beer!
