                               Psi4 1.3.2 release

  ==> Input File <==

--------------------------------------------------------------------------
#psi4
#
memory 32 gb

molecule  {
0 1
  O        1.3620710    -0.3800110    -0.9318440
  O        3.2020570     1.9012130    -0.2995130
  O        2.7994070    -2.7489470    -0.4002010
  O       -1.3621860     2.3740050     0.1547830
  N       -0.7982440     0.1994180    -0.2292560
  N       -3.0541720     0.8052390     0.2400120
  N       -4.6734100    -0.8124350     0.4126370
  C        2.7015950     0.8755540     0.5594740
  C        1.2368440     1.1072260     0.8878520
  C        2.6518190    -0.3922910    -0.2854700
  C        0.5739580     0.6830040    -0.4149160
  C        2.8020980    -1.6600160     0.5224700
  C       -1.1273370    -1.1158190    -0.3082760
  C       -1.7446880     1.2038920     0.0820450
  C       -2.4173070    -1.5045610    -0.1045420
  C       -3.3619920    -0.4731600     0.1685110
  H        3.3343810     0.7567850     1.4508530
  H        0.9047070     0.4438290     1.6934890
  H        0.9853290     2.1340670     1.1581470
  H        0.5274540     1.5132540    -1.1249130
  H        3.4174920    -0.3642830    -1.0666260
  H        1.9707490    -1.7331840     1.2432230
  H        3.7460890    -1.6095150     1.0882890
  H        3.1038510     2.7463240     0.1779830
  H       -0.3107400    -1.7892010    -0.5436980
  H        2.9100300    -3.5650720     0.1192120
  H       -2.7034680    -2.5490840    -0.1532500
  H       -4.9989348    -1.6547573    -0.0480063
  H       -5.2755746     0.0047613     0.4045399
units angstrom
no_reorient  #important for SAPT in psi4, default
symmetry c1  #important for SAPT in psi4, default
}

set PROPERTIES_ORIGIN ["COM"]
properties('MP2/aug-cc-pvtz', properties = ['dipole'])
--------------------------------------------------------------------------

    Molecular point group: c1
  Charge       = 0
  Multiplicity = 1
  Basis Set: AUG-CC-PVTZ
    Blend: AUG-CC-PVTZ
  Basis Set: (AUG-CC-PVTZ AUX)
    Blend: AUG-CC-PVTZ-JKFIT

    Orbital Energies [Eh]
    ---------------------

    Doubly Occupied:

       1A    -20.577764     2A    -20.574333     3A    -20.572863
       4A    -20.502981     5A    -15.621594     6A    -15.588534
       7A    -15.540535     8A    -11.369841     9A    -11.344209
      10A    -11.330703    11A    -11.318294    12A    -11.300847
      13A    -11.296872    14A    -11.293069    15A    -11.236953
      16A    -11.236765    17A     -1.416635    18A     -1.382380
      19A     -1.373578    20A     -1.365698    21A     -1.292419
      22A     -1.261670    23A     -1.168915    24A     -1.078965
      25A     -1.068909    26A     -1.027829    27A     -0.926423
      28A     -0.897465    29A     -0.868318    30A     -0.830318
      31A     -0.806349    32A     -0.756229    33A     -0.738658
      34A     -0.720982    35A     -0.704697    36A     -0.692791
      37A     -0.688741    38A     -0.678185    39A     -0.657650
      40A     -0.637315    41A     -0.627522    42A     -0.618275
      43A     -0.604745    44A     -0.594958    45A     -0.588888
      46A     -0.572614    47A     -0.568752    48A     -0.544850
      49A     -0.532514    50A     -0.523723    51A     -0.510351
      52A     -0.485860    53A     -0.482071    54A     -0.468506
      55A     -0.461073    56A     -0.444429    57A     -0.437830
      58A     -0.416255    59A     -0.383167    60A     -0.335003

  @DF-RHF Final Energy:  -811.47902892378909

   => Energetics <=

    Nuclear Repulsion Energy =           1170.0562870245137219
    One-Electron Energy =               -3435.1733098844410961
    Two-Electron Energy =                1453.6379939361386278
    Total Energy =                       -811.4790289237889738
  Basis Set: (AUG-CC-PVTZ AUX)
    Blend: AUG-CC-PVTZ-RI
    Molecular point group: c1

    Geometry (in Angstrom), charge = 0, multiplicity = 1:

       Center              X                  Y                   Z               Mass
    ------------   -----------------  -----------------  -----------------  -----------------
         O            1.361832785815    -0.380017889302    -0.931964464207    15.994914619570
         O            3.201818785815     1.901206110698    -0.299633464207    15.994914619570
         O            2.799168785815    -2.748953889302    -0.400321464207    15.994914619570
         O           -1.362424214185     2.373998110698     0.154662535793    15.994914619570
         N           -0.798482214185     0.199411110698    -0.229376464207    14.003074004430
         N           -3.054410214185     0.805232110698     0.239891535793    14.003074004430
         N           -4.673648214185    -0.812441889302     0.412516535793    14.003074004430
         C            2.701356785815     0.875547110698     0.559353535793    12.000000000000
         C            1.236605785815     1.107219110698     0.887731535793    12.000000000000
         C            2.651580785815    -0.392297889302    -0.285590464207    12.000000000000
         C            0.573719785815     0.682997110698    -0.415036464207    12.000000000000
         C            2.801859785815    -1.660022889302     0.522349535793    12.000000000000
         C           -1.127575214185    -1.115825889302    -0.308396464207    12.000000000000
         C           -1.744926214185     1.203885110698     0.081924535793    12.000000000000
         C           -2.417545214185    -1.504567889302    -0.104662464207    12.000000000000
         C           -3.362230214185    -0.473166889302     0.168390535793    12.000000000000
         H            3.334142785815     0.756778110698     1.450732535793     1.007825032230
         H            0.904468785815     0.443822110698     1.693368535793     1.007825032230
         H            0.985090785815     2.134060110698     1.158026535793     1.007825032230
         H            0.527215785815     1.513247110698    -1.125033464207     1.007825032230
         H            3.417253785815    -0.364289889302    -1.066746464207     1.007825032230
         H            1.970510785815    -1.733190889302     1.243102535793     1.007825032230
         H            3.745850785815    -1.609521889302     1.088168535793     1.007825032230
         H            3.103612785815     2.746317110698     0.177862535793     1.007825032230
         H           -0.310978214185    -1.789207889302    -0.543818464207     1.007825032230
         H            2.909791785815    -3.565078889302     0.119091535793     1.007825032230
         H           -2.703706214185    -2.549090889302    -0.153370464207     1.007825032230
         H           -4.999173014185    -1.654764189302    -0.048126764207     1.007825032230
         H           -5.275812814185     0.004754410698     0.404419435793     1.007825032230

  Basis Set: AUG-CC-PVTZ
    Blend: AUG-CC-PVTZ
  Basis Set: (AUG-CC-PVTZ AUX)
    Blend: AUG-CC-PVTZ-JKFIT
	 Reference Energy          =    -811.4790289237890875 [Eh]
	 Singles Energy            =      -0.0000000000000000 [Eh]
	 Same-Spin Energy          =      -0.8297164291532531 [Eh]
	 Opposite-Spin Energy      =      -2.5251860767669587 [Eh]
	 Correlation Energy        =      -3.3549025059202116 [Eh]
	 Total Energy              =    -814.8339314297093097 [Eh]

	 ================> DF-SCS-MP2 Energies <==================
	-----------------------------------------------------------
	 SCS Same-Spin Scale       =       0.3333333333333333 [-]
	 SCS Opposite-Spin Scale   =       1.2000000000000000 [-]
	 SCS Same-Spin Energy      =      -0.2765721430510844 [Eh]
	 SCS Opposite-Spin Energy  =      -3.0302232921203505 [Eh]
	 SCS Correlation Energy    =      -3.3067954351714350 [Eh]
	 SCS Total Energy          =    -814.7858243589605536 [Eh]
	-----------------------------------------------------------

  Dipole Moment: [D]
     X:     1.0918      Y:    -4.6903      Z:     2.5289     Total:     5.4393

*** Psi4 exiting successfully. Buy a developer a beer!
