                               Psi4 1.3.2 release

  ==> Input File <==

--------------------------------------------------------------------------
#psi4
#
memory 32 gb

molecule  {
0 1
  O        1.3620710    -0.3800110    -0.9318440
  O        3.2020570     1.9012130    -0.2995130
  O        2.7994070    -2.7489470    -0.4002010
  O       -1.3621860     2.3740050     0.1547830
  N       -0.7982440     0.1994180    -0.2292560
  N       -3.0980095     0.8143885     0.2503742
  N       -4.6832360    -0.7659456     0.4197344
  C        2.7015950     0.8755540     0.5594740
  C        1.2368440     1.1072260     0.8878520
  C        2.6518190    -0.3922910    -0.2854700
  C        0.5739580     0.6830040    -0.4149160
  C        2.8020980    -1.6600160     0.5224700
  C       -1.1273370    -1.1158190    -0.3082760
  C       -1.7446880     1.2038920     0.0820450
  C       -2.4173070    -1.5045610    -0.1045420
  C       -3.3619920    -0.4731600     0.1685110
  H        3.3343810     0.7567850     1.4508530
  H        0.9047070     0.4438290     1.6934890
  H        0.9853290     2.1340670     1.1581470
  H        0.5274540     1.5132540    -1.1249130
  H        3.4174920    -0.3642830    -1.0666260
  H        1.9707490    -1.7331840     1.2432230
  H        3.7460890    -1.6095150     1.0882890
  H        3.1038510     2.7463240     0.1779830
  H       -0.3107400    -1.7892010    -0.5436980
  H        2.9100300    -3.5650720     0.1192120
  H       -2.7034680    -2.5490840    -0.1532500
  H       -5.0287110    -1.6377420    -0.0567190
  H       -5.2994710    -0.0137980     0.3861010
units angstrom
no_reorient  #important for SAPT in psi4, default
symmetry c1  #important for SAPT in psi4, default
}

set PROPERTIES_ORIGIN ["COM"]
properties('MP2/aug-cc-pvtz', properties = ['dipole'])
--------------------------------------------------------------------------

    Molecular point group: c1
  Charge       = 0
  Multiplicity = 1
  Basis Set: AUG-CC-PVTZ
    Blend: AUG-CC-PVTZ
  Basis Set: (AUG-CC-PVTZ AUX)
    Blend: AUG-CC-PVTZ-JKFIT

    Orbital Energies [Eh]
    ---------------------

    Doubly Occupied:

       1A    -20.578355     2A    -20.575089     3A    -20.574075
       4A    -20.506938     5A    -15.623875     6A    -15.583810
       7A    -15.543858     8A    -11.373252     9A    -11.341539
      10A    -11.332262    11A    -11.320004    12A    -11.301697
      13A    -11.297556    14A    -11.293942    15A    -11.239264
      16A    -11.237805    17A     -1.417658    18A     -1.382383
      19A     -1.374244    20A     -1.366409    21A     -1.292125
      22A     -1.262898    23A     -1.159239    24A     -1.080059
      25A     -1.069920    26A     -1.028688    27A     -0.926694
      28A     -0.899988    29A     -0.864916    30A     -0.828149
      31A     -0.807681    32A     -0.752626    33A     -0.739764
      34A     -0.721397    35A     -0.707475    36A     -0.694367
      37A     -0.689350    38A     -0.669828    39A     -0.654830
      40A     -0.636700    41A     -0.627087    42A     -0.621937
      43A     -0.604510    44A     -0.596855    45A     -0.586804
      46A     -0.572968    47A     -0.569216    48A     -0.545477
      49A     -0.532573    50A     -0.524682    51A     -0.510707
      52A     -0.486838    53A     -0.482568    54A     -0.469197
      55A     -0.461995    56A     -0.449524    57A     -0.440055
      58A     -0.416099    59A     -0.380856    60A     -0.335685

  @DF-RHF Final Energy:  -811.47254649452600

   => Energetics <=

    Nuclear Repulsion Energy =           1168.7709503899495758
    One-Electron Energy =               -3432.5543054684003437
    Two-Electron Energy =                1452.3108085839246542
    Total Energy =                       -811.4725464945261137
  Basis Set: (AUG-CC-PVTZ AUX)
    Blend: AUG-CC-PVTZ-RI
    Molecular point group: c1

    Geometry (in Angstrom), charge = 0, multiplicity = 1:

       Center              X                  Y                   Z               Mass
    ------------   -----------------  -----------------  -----------------  -----------------
         O            1.365380033172    -0.383441895105    -0.932920576010    15.994914619570
         O            3.205366033172     1.897782104895    -0.300589576010    15.994914619570
         O            2.802716033172    -2.752377895105    -0.401277576010    15.994914619570
         O           -1.358876966828     2.370574104895     0.153706423990    15.994914619570
         N           -0.794934966828     0.195987104895    -0.230332576010    14.003074004430
         N           -3.094700466828     0.810957604895     0.249297623990    14.003074004430
         N           -4.679926966828    -0.769376495105     0.418657823990    14.003074004430
         C            2.704904033172     0.872123104895     0.558397423990    12.000000000000
         C            1.240153033172     1.103795104895     0.886775423990    12.000000000000
         C            2.655128033172    -0.395721895105    -0.286546576010    12.000000000000
         C            0.577267033172     0.679573104895    -0.415992576010    12.000000000000
         C            2.805407033172    -1.663446895105     0.521393423990    12.000000000000
         C           -1.124027966828    -1.119249895105    -0.309352576010    12.000000000000
         C           -1.741378966828     1.200461104895     0.080968423990    12.000000000000
         C           -2.413997966828    -1.507991895105    -0.105618576010    12.000000000000
         C           -3.358682966828    -0.476590895105     0.167434423990    12.000000000000
         H            3.337690033172     0.753354104895     1.449776423990     1.007825032230
         H            0.908016033172     0.440398104895     1.692412423990     1.007825032230
         H            0.988638033172     2.130636104895     1.157070423990     1.007825032230
         H            0.530763033172     1.509823104895    -1.125989576010     1.007825032230
         H            3.420801033172    -0.367713895105    -1.067702576010     1.007825032230
         H            1.974058033172    -1.736614895105     1.242146423990     1.007825032230
         H            3.749398033172    -1.612945895105     1.087212423990     1.007825032230
         H            3.107160033172     2.742893104895     0.176906423990     1.007825032230
         H           -0.307430966828    -1.792631895105    -0.544774576010     1.007825032230
         H            2.913339033172    -3.568502895105     0.118135423990     1.007825032230
         H           -2.700158966828    -2.552514895105    -0.154326576010     1.007825032230
         H           -5.025401966828    -1.641172895105    -0.057795576010     1.007825032230
         H           -5.296161966828    -0.017228895105     0.385024423990     1.007825032230

  Basis Set: AUG-CC-PVTZ
    Blend: AUG-CC-PVTZ
  Basis Set: (AUG-CC-PVTZ AUX)
    Blend: AUG-CC-PVTZ-JKFIT
	 Reference Energy          =    -811.4725464945260001 [Eh]
	 Singles Energy            =      -0.0000000000000000 [Eh]
	 Same-Spin Energy          =      -0.8295857670049084 [Eh]
	 Opposite-Spin Energy      =      -2.5261491712170114 [Eh]
	 Correlation Energy        =      -3.3557349382219197 [Eh]
	 Total Energy              =    -814.8282814327478718 [Eh]

	 ================> DF-SCS-MP2 Energies <==================
	-----------------------------------------------------------
	 SCS Same-Spin Scale       =       0.3333333333333333 [-]
	 SCS Opposite-Spin Scale   =       1.2000000000000000 [-]
	 SCS Same-Spin Energy      =      -0.2765285890016361 [Eh]
	 SCS Opposite-Spin Energy  =      -3.0313790054604137 [Eh]
	 SCS Correlation Energy    =      -3.3079075944620500 [Eh]
	 SCS Total Energy          =    -814.7804540889879945 [Eh]
	-----------------------------------------------------------

  Dipole Moment: [D]
     X:     1.3022      Y:    -4.6420      Z:     2.4671     Total:     5.4158

*** Psi4 exiting successfully. Buy a developer a beer!
