                               Psi4 1.3.2 release

  ==> Input File <==

--------------------------------------------------------------------------
#psi4
#
memory 32 gb

molecule  {
0 1
  O        1.3620710    -0.3800110    -0.9318440
  O        3.2020570     1.9012130    -0.2995130
  O        2.7994070    -2.7489470    -0.4002010
  O       -1.3621860     2.3740050     0.1547830
  N       -0.7982440     0.1994180    -0.2292560
  N       -3.0541720     0.8052390     0.2400120
  N       -4.6734100    -0.8124350     0.4126370
  C        2.7015950     0.8755540     0.5594740
  C        1.2368440     1.1072260     0.8878520
  C        2.6518190    -0.3922910    -0.2854700
  C        0.5739580     0.6830040    -0.4149160
  C        2.8020980    -1.6600160     0.5224700
  C       -1.1273370    -1.1158190    -0.3082760
  C       -1.9347566     1.1460284     0.1049736
  C       -2.4173070    -1.5045610    -0.1045420
  C       -3.3619920    -0.4731600     0.1685110
  H        3.3343810     0.7567850     1.4508530
  H        0.9047070     0.4438290     1.6934890
  H        0.9853290     2.1340670     1.1581470
  H        0.5274540     1.5132540    -1.1249130
  H        3.4174920    -0.3642830    -1.0666260
  H        1.9707490    -1.7331840     1.2432230
  H        3.7460890    -1.6095150     1.0882890
  H        3.1038510     2.7463240     0.1779830
  H       -0.3107400    -1.7892010    -0.5436980
  H        2.9100300    -3.5650720     0.1192120
  H       -2.7034680    -2.5490840    -0.1532500
  H       -5.0287110    -1.6377420    -0.0567190
  H       -5.2994710    -0.0137980     0.3861010
units angstrom
no_reorient  #important for SAPT in psi4, default
symmetry c1  #important for SAPT in psi4, default
}

set PROPERTIES_ORIGIN ["COM"]
properties('MP2/aug-cc-pvtz', properties = ['dipole'])
--------------------------------------------------------------------------

    Molecular point group: c1
  Charge       = 0
  Multiplicity = 1
  Basis Set: AUG-CC-PVTZ
    Blend: AUG-CC-PVTZ
  Basis Set: (AUG-CC-PVTZ AUX)
    Blend: AUG-CC-PVTZ-JKFIT

    Orbital Energies [Eh]
    ---------------------

    Doubly Occupied:

       1A    -20.575954     2A    -20.568970     3A    -20.568469
       4A    -20.464823     5A    -15.619970     6A    -15.607999
       7A    -15.550075     8A    -11.373485     9A    -11.361097
      10A    -11.325019    11A    -11.324073    12A    -11.295182
      13A    -11.294281    14A    -11.289200    15A    -11.242336
      16A    -11.228982    17A     -1.410386    18A     -1.376612
      19A     -1.370588    20A     -1.362089    21A     -1.278328
      22A     -1.236626    23A     -1.212713    24A     -1.077719
      25A     -1.067717    26A     -1.023218    27A     -0.935928
      28A     -0.898607    29A     -0.877456    30A     -0.834424
      31A     -0.803003    32A     -0.767222    33A     -0.733216
      34A     -0.718198    35A     -0.711931    36A     -0.689353
      37A     -0.687378    38A     -0.680052    39A     -0.656212
      40A     -0.640439    41A     -0.632033    42A     -0.619464
      43A     -0.603502    44A     -0.594319    45A     -0.579348
      46A     -0.568091    47A     -0.556204    48A     -0.541170
      49A     -0.527713    50A     -0.517646    51A     -0.504455
      52A     -0.481881    53A     -0.480508    54A     -0.465812
      55A     -0.455005    56A     -0.436140    57A     -0.434960
      58A     -0.390389    59A     -0.383496    60A     -0.332384

  @DF-RHF Final Energy:  -811.41613057191284

   => Energetics <=

    Nuclear Repulsion Energy =           1169.0190242103074070
    One-Electron Energy =               -3433.1826170150616235
    Two-Electron Energy =                1452.7474622328415990
    Total Energy =                       -811.4161305719128450
  Basis Set: (AUG-CC-PVTZ AUX)
    Blend: AUG-CC-PVTZ-RI
    Molecular point group: c1

    Geometry (in Angstrom), charge = 0, multiplicity = 1:

       Center              X                  Y                   Z               Mass
    ------------   -----------------  -----------------  -----------------  -----------------
         O            1.372114654501    -0.376953388774    -0.933055566751    15.994914619570
         O            3.212100654501     1.904270611226    -0.300724566751    15.994914619570
         O            2.809450654501    -2.745889388774    -0.401412566751    15.994914619570
         O           -1.352142345499     2.377062611226     0.153571433249    15.994914619570
         N           -0.788200345499     0.202475611226    -0.230467566751    14.003074004430
         N           -3.044128345499     0.808296611226     0.238800433249    14.003074004430
         N           -4.663366345499    -0.809377388774     0.411425433249    14.003074004430
         C            2.711638654501     0.878611611226     0.558262433249    12.000000000000
         C            1.246887654501     1.110283611226     0.886640433249    12.000000000000
         C            2.661862654501    -0.389233388774    -0.286681566751    12.000000000000
         C            0.584001654501     0.686061611226    -0.416127566751    12.000000000000
         C            2.812141654501    -1.656958388774     0.521258433249    12.000000000000
         C           -1.117293345499    -1.112761388774    -0.309487566751    12.000000000000
         C           -1.924712945499     1.149086011226     0.103762033249    12.000000000000
         C           -2.407263345499    -1.501503388774    -0.105753566751    12.000000000000
         C           -3.351948345499    -0.470102388774     0.167299433249    12.000000000000
         H            3.344424654501     0.759842611226     1.449641433249     1.007825032230
         H            0.914750654501     0.446886611226     1.692277433249     1.007825032230
         H            0.995372654501     2.137124611226     1.156935433249     1.007825032230
         H            0.537497654501     1.516311611226    -1.126124566751     1.007825032230
         H            3.427535654501    -0.361225388774    -1.067837566751     1.007825032230
         H            1.980792654501    -1.730126388774     1.242011433249     1.007825032230
         H            3.756132654501    -1.606457388774     1.087077433249     1.007825032230
         H            3.113894654501     2.749381611226     0.176771433249     1.007825032230
         H           -0.300696345499    -1.786143388774    -0.544909566751     1.007825032230
         H            2.920073654501    -3.562014388774     0.118000433249     1.007825032230
         H           -2.693424345499    -2.546026388774    -0.154461566751     1.007825032230
         H           -5.018667345499    -1.634684388774    -0.057930566751     1.007825032230
         H           -5.289427345499    -0.010740388774     0.384889433249     1.007825032230

  Basis Set: AUG-CC-PVTZ
    Blend: AUG-CC-PVTZ
  Basis Set: (AUG-CC-PVTZ AUX)
    Blend: AUG-CC-PVTZ-JKFIT
	 Reference Energy          =    -811.4161305719128450 [Eh]
	 Singles Energy            =      -0.0000000000000000 [Eh]
	 Same-Spin Energy          =      -0.8323805373707892 [Eh]
	 Opposite-Spin Energy      =      -2.5286110114683882 [Eh]
	 Correlation Energy        =      -3.3609915488391775 [Eh]
	 Total Energy              =    -814.7771221207519829 [Eh]

	 ================> DF-SCS-MP2 Energies <==================
	-----------------------------------------------------------
	 SCS Same-Spin Scale       =       0.3333333333333333 [-]
	 SCS Opposite-Spin Scale   =       1.2000000000000000 [-]
	 SCS Same-Spin Energy      =      -0.2774601791235964 [Eh]
	 SCS Opposite-Spin Energy  =      -3.0343332137620656 [Eh]
	 SCS Correlation Energy    =      -3.3117933928856620 [Eh]
	 SCS Total Energy          =    -814.7279239647984923 [Eh]
	-----------------------------------------------------------

  Dipole Moment: [D]
     X:    -0.1572      Y:    -5.7280      Z:     2.5480     Total:     6.2711

*** Psi4 exiting successfully. Buy a developer a beer!
