                               Psi4 1.3.2 release

  ==> Input File <==

--------------------------------------------------------------------------
#psi4
#
memory 32 gb

molecule  {
0 1
  O        1.3620710    -0.3800110    -0.9318440
  O        3.2020570     1.9012130    -0.2995130
  O        2.7994070    -2.7489470    -0.4002010
  O       -1.3621860     2.3740050     0.1547830
  N       -0.7982440     0.1994180    -0.2292560
  N       -3.0541720     0.8052390     0.2400120
  N       -4.6734100    -0.8124350     0.4126370
  C        2.7015950     0.8755540     0.5594740
  C        1.2368440     1.1072260     0.8878520
  C        2.4730233    -0.3905886    -0.3750758
  C        0.5739580     0.6830040    -0.4149160
  C        2.8020980    -1.6600160     0.5224700
  C       -1.1273370    -1.1158190    -0.3082760
  C       -1.7446880     1.2038920     0.0820450
  C       -2.4173070    -1.5045610    -0.1045420
  C       -3.3619920    -0.4731600     0.1685110
  H        3.3343810     0.7567850     1.4508530
  H        0.9047070     0.4438290     1.6934890
  H        0.9853290     2.1340670     1.1581470
  H        0.5274540     1.5132540    -1.1249130
  H        3.4174920    -0.3642830    -1.0666260
  H        1.9707490    -1.7331840     1.2432230
  H        3.7460890    -1.6095150     1.0882890
  H        3.1038510     2.7463240     0.1779830
  H       -0.3107400    -1.7892010    -0.5436980
  H        2.9100300    -3.5650720     0.1192120
  H       -2.7034680    -2.5490840    -0.1532500
  H       -5.0287110    -1.6377420    -0.0567190
  H       -5.2994710    -0.0137980     0.3861010
units angstrom
no_reorient  #important for SAPT in psi4, default
symmetry c1  #important for SAPT in psi4, default
}

set PROPERTIES_ORIGIN ["COM"]
properties('MP2/aug-cc-pvtz', properties = ['dipole'])
--------------------------------------------------------------------------

    Molecular point group: c1
  Charge       = 0
  Multiplicity = 1
  Basis Set: AUG-CC-PVTZ
    Blend: AUG-CC-PVTZ
  Basis Set: (AUG-CC-PVTZ AUX)
    Blend: AUG-CC-PVTZ-JKFIT

    Orbital Energies [Eh]
    ---------------------

    Doubly Occupied:

       1A    -20.593255     2A    -20.570205     3A    -20.569795
       4A    -20.507795     5A    -15.628686     6A    -15.591969
       7A    -15.545320     8A    -11.375148     9A    -11.349495
      10A    -11.344236    11A    -11.324227    12A    -11.295843
      13A    -11.294466    14A    -11.286854    15A    -11.242219
      16A    -11.237398    17A     -1.492393    18A     -1.389398
      19A     -1.368913    20A     -1.364567    21A     -1.298527
      22A     -1.270332    23A     -1.174635    24A     -1.088473
      25A     -1.059953    26A     -1.021168    27A     -0.923448
      28A     -0.906032    29A     -0.865393    30A     -0.846440
      31A     -0.805503    32A     -0.759029    33A     -0.752514
      34A     -0.730093    35A     -0.710244    36A     -0.694814
      37A     -0.686475    38A     -0.680067    39A     -0.666775
      40A     -0.643262    41A     -0.637691    42A     -0.621682
      43A     -0.616067    44A     -0.606738    45A     -0.596964
      46A     -0.577460    47A     -0.564752    48A     -0.552014
      49A     -0.545119    50A     -0.528811    51A     -0.510481
      52A     -0.486685    53A     -0.466046    54A     -0.455748
      55A     -0.452911    56A     -0.435751    57A     -0.423847
      58A     -0.409538    59A     -0.387470    60A     -0.340057

  @DF-RHF Final Energy:  -811.43833925049341

   => Energetics <=

    Nuclear Repulsion Energy =           1173.1616272303442656
    One-Electron Energy =               -3440.8575536176249443
    Two-Electron Energy =                1456.2575871367869240
    Total Energy =                       -811.4383392504935273
  Basis Set: (AUG-CC-PVTZ AUX)
    Blend: AUG-CC-PVTZ-RI
    Molecular point group: c1

    Geometry (in Angstrom), charge = 0, multiplicity = 1:

       Center              X                  Y                   Z               Mass
    ------------   -----------------  -----------------  -----------------  -----------------
         O            1.371518968037    -0.380100995858    -0.927108985233    15.994914619570
         O            3.211504968037     1.901123004142    -0.294777985233    15.994914619570
         O            2.808854968037    -2.749036995858    -0.395465985233    15.994914619570
         O           -1.352738031963     2.373915004142     0.159518014767    15.994914619570
         N           -0.788796031963     0.199328004142    -0.224520985233    14.003074004430
         N           -3.044724031963     0.805149004142     0.244747014767    14.003074004430
         N           -4.663962031963    -0.812524995858     0.417372014767    14.003074004430
         C            2.711042968037     0.875464004142     0.564209014767    12.000000000000
         C            1.246291968037     1.107136004142     0.892587014767    12.000000000000
         C            2.482471268037    -0.390678595858    -0.370340785233    12.000000000000
         C            0.583405968037     0.682914004142    -0.410180985233    12.000000000000
         C            2.811545968037    -1.660105995858     0.527205014767    12.000000000000
         C           -1.117889031963    -1.115908995858    -0.303540985233    12.000000000000
         C           -1.735240031963     1.203802004142     0.086780014767    12.000000000000
         C           -2.407859031963    -1.504650995858    -0.099806985233    12.000000000000
         C           -3.352544031963    -0.473249995858     0.173246014767    12.000000000000
         H            3.343828968037     0.756695004142     1.455588014767     1.007825032230
         H            0.914154968037     0.443739004142     1.698224014767     1.007825032230
         H            0.994776968037     2.133977004142     1.162882014767     1.007825032230
         H            0.536901968037     1.513164004142    -1.120177985233     1.007825032230
         H            3.426939968037    -0.364372995858    -1.061890985233     1.007825032230
         H            1.980196968037    -1.733273995858     1.247958014767     1.007825032230
         H            3.755536968037    -1.609604995858     1.093024014767     1.007825032230
         H            3.113298968037     2.746234004142     0.182718014767     1.007825032230
         H           -0.301292031963    -1.789290995858    -0.538962985233     1.007825032230
         H            2.919477968037    -3.565161995858     0.123947014767     1.007825032230
         H           -2.694020031963    -2.549173995858    -0.148514985233     1.007825032230
         H           -5.019263031963    -1.637831995858    -0.051983985233     1.007825032230
         H           -5.290023031963    -0.013887995858     0.390836014767     1.007825032230

  Basis Set: AUG-CC-PVTZ
    Blend: AUG-CC-PVTZ
  Basis Set: (AUG-CC-PVTZ AUX)
    Blend: AUG-CC-PVTZ-JKFIT
	 Reference Energy          =    -811.4383392504934136 [Eh]
	 Singles Energy            =      -0.0000000000000000 [Eh]
	 Same-Spin Energy          =      -0.8307510736753938 [Eh]
	 Opposite-Spin Energy      =      -2.5252059653057151 [Eh]
	 Correlation Energy        =      -3.3559570389811091 [Eh]
	 Total Energy              =    -814.7942962894745733 [Eh]

	 ================> DF-SCS-MP2 Energies <==================
	-----------------------------------------------------------
	 SCS Same-Spin Scale       =       0.3333333333333333 [-]
	 SCS Opposite-Spin Scale   =       1.2000000000000000 [-]
	 SCS Same-Spin Energy      =      -0.2769170245584646 [Eh]
	 SCS Opposite-Spin Energy  =      -3.0302471583668580 [Eh]
	 SCS Correlation Energy    =      -3.3071641829253227 [Eh]
	 SCS Total Energy          =    -814.7455034334187758 [Eh]
	-----------------------------------------------------------

  Dipole Moment: [D]
     X:     0.1063      Y:    -4.4426      Z:     2.2693     Total:     4.9898

*** Psi4 exiting successfully. Buy a developer a beer!
