                               Psi4 1.3.2 release

  ==> Input File <==

--------------------------------------------------------------------------
#psi4
#
memory 32 gb

molecule  {
0 1
  O        1.3620710    -0.3800110    -0.9318440
  O        3.2020570     1.9012130    -0.2995130
  O        2.7994070    -2.7489470    -0.4002010
  O       -1.3621860     2.3740050     0.1547830
  N       -0.7982440     0.1994180    -0.2292560
  N       -3.0432691     0.8027078     0.2374073
  N       -4.6707034    -0.8239950     0.4108158
  C        2.7015950     0.8755540     0.5594740
  C        1.2368440     1.1072260     0.8878520
  C        2.6518190    -0.3922910    -0.2854700
  C        0.5739580     0.6830040    -0.4149160
  C        2.8020980    -1.6600160     0.5224700
  C       -1.1273370    -1.1158190    -0.3082760
  C       -1.7446880     1.2038920     0.0820450
  C       -2.4173070    -1.5045610    -0.1045420
  C       -3.3619920    -0.4731600     0.1685110
  H        3.3343810     0.7567850     1.4508530
  H        0.9047070     0.4438290     1.6934890
  H        0.9853290     2.1340670     1.1581470
  H        0.5274540     1.5132540    -1.1249130
  H        3.4174920    -0.3642830    -1.0666260
  H        1.9707490    -1.7331840     1.2432230
  H        3.7460890    -1.6095150     1.0882890
  H        3.1038510     2.7463240     0.1779830
  H       -0.3107400    -1.7892010    -0.5436980
  H        2.9100300    -3.5650720     0.1192120
  H       -2.7034680    -2.5490840    -0.1532500
  H       -5.0287110    -1.6377420    -0.0567190
  H       -5.2994710    -0.0137980     0.3861010
units angstrom
no_reorient  #important for SAPT in psi4, default
symmetry c1  #important for SAPT in psi4, default
}

set PROPERTIES_ORIGIN ["COM"]
properties('MP2/aug-cc-pvtz', properties = ['dipole'])
--------------------------------------------------------------------------

    Molecular point group: c1
  Charge       = 0
  Multiplicity = 1
  Basis Set: AUG-CC-PVTZ
    Blend: AUG-CC-PVTZ
  Basis Set: (AUG-CC-PVTZ AUX)
    Blend: AUG-CC-PVTZ-JKFIT

    Orbital Energies [Eh]
    ---------------------

    Doubly Occupied:

       1A    -20.577604     2A    -20.574153     3A    -20.572579
       4A    -20.502032     5A    -15.621170     6A    -15.589493
       7A    -15.540050     8A    -11.368962     9A    -11.346040
      10A    -11.330344    11A    -11.317871    12A    -11.300645
      13A    -11.296694    14A    -11.292857    15A    -11.236530
      16A    -11.236471    17A     -1.416414    18A     -1.382477
      19A     -1.373407    20A     -1.365538    21A     -1.292329
      22A     -1.261123    23A     -1.171639    24A     -1.078719
      25A     -1.068697    26A     -1.027819    27A     -0.926942
      28A     -0.896856    29A     -0.870324    30A     -0.831443
      31A     -0.806052    32A     -0.754281    33A     -0.738526
      34A     -0.720927    35A     -0.707800    36A     -0.692533
      37A     -0.689710    38A     -0.676455    39A     -0.656445
      40A     -0.637112    41A     -0.627746    42A     -0.617607
      43A     -0.604562    44A     -0.594671    45A     -0.588941
      46A     -0.572596    47A     -0.568630    48A     -0.544702
      49A     -0.532534    50A     -0.523486    51A     -0.510353
      52A     -0.485635    53A     -0.481961    54A     -0.468330
      55A     -0.460893    56A     -0.443552    57A     -0.436996
      58A     -0.416168    59A     -0.384441    60A     -0.334733

  @DF-RHF Final Energy:  -811.47933076269953

   => Energetics <=

    Nuclear Repulsion Energy =           1170.2448146366855326
    One-Electron Energy =               -3435.5570888598508645
    Two-Electron Energy =                1453.8329434604656853
    Total Energy =                       -811.4793307626996466
  Basis Set: (AUG-CC-PVTZ AUX)
    Blend: AUG-CC-PVTZ-RI
    Molecular point group: c1

    Geometry (in Angstrom), charge = 0, multiplicity = 1:

       Center              X                  Y                   Z               Mass
    ------------   -----------------  -----------------  -----------------  -----------------
         O            1.361231782329    -0.379142132256    -0.931571051776    15.994914619570
         O            3.201217782329     1.902081867744    -0.299240051776    15.994914619570
         O            2.798567782329    -2.748078132256    -0.399928051776    15.994914619570
         O           -1.363025217671     2.374873867744     0.155055948224    15.994914619570
         N           -0.799083217671     0.200286867744    -0.228983051776    14.003074004430
         N           -3.044108317671     0.803576667744     0.237680248224    14.003074004430
         N           -4.671542617671    -0.823126132256     0.411088748224    14.003074004430
         C            2.700755782329     0.876422867744     0.559746948224    12.000000000000
         C            1.236004782329     1.108094867744     0.888124948224    12.000000000000
         C            2.650979782329    -0.391422132256    -0.285197051776    12.000000000000
         C            0.573118782329     0.683872867744    -0.414643051776    12.000000000000
         C            2.801258782329    -1.659147132256     0.522742948224    12.000000000000
         C           -1.128176217671    -1.114950132256    -0.308003051776    12.000000000000
         C           -1.745527217671     1.204760867744     0.082317948224    12.000000000000
         C           -2.418146217671    -1.503692132256    -0.104269051776    12.000000000000
         C           -3.362831217671    -0.472291132256     0.168783948224    12.000000000000
         H            3.333541782329     0.757653867744     1.451125948224     1.007825032230
         H            0.903867782329     0.444697867744     1.693761948224     1.007825032230
         H            0.984489782329     2.134935867744     1.158419948224     1.007825032230
         H            0.526614782329     1.514122867744    -1.124640051776     1.007825032230
         H            3.416652782329    -0.363414132256    -1.066353051776     1.007825032230
         H            1.969909782329    -1.732315132256     1.243495948224     1.007825032230
         H            3.745249782329    -1.608646132256     1.088561948224     1.007825032230
         H            3.103011782329     2.747192867744     0.178255948224     1.007825032230
         H           -0.311579217671    -1.788332132256    -0.543425051776     1.007825032230
         H            2.909190782329    -3.564203132256     0.119484948224     1.007825032230
         H           -2.704307217671    -2.548215132256    -0.152977051776     1.007825032230
         H           -5.029550217671    -1.636873132256    -0.056446051776     1.007825032230
         H           -5.300310217671    -0.012929132256     0.386373948224     1.007825032230

  Basis Set: AUG-CC-PVTZ
    Blend: AUG-CC-PVTZ
  Basis Set: (AUG-CC-PVTZ AUX)
    Blend: AUG-CC-PVTZ-JKFIT
	 Reference Energy          =    -811.4793307626995329 [Eh]
	 Singles Energy            =      -0.0000000000000000 [Eh]
	 Same-Spin Energy          =      -0.8297186589804439 [Eh]
	 Opposite-Spin Energy      =      -2.5250031127844261 [Eh]
	 Correlation Energy        =      -3.3547217717648703 [Eh]
	 Total Energy              =    -814.8340525344643765 [Eh]

	 ================> DF-SCS-MP2 Energies <==================
	-----------------------------------------------------------
	 SCS Same-Spin Scale       =       0.3333333333333333 [-]
	 SCS Opposite-Spin Scale   =       1.2000000000000000 [-]
	 SCS Same-Spin Energy      =      -0.2765728863268146 [Eh]
	 SCS Opposite-Spin Energy  =      -3.0300037353413112 [Eh]
	 SCS Correlation Energy    =      -3.3065766216681256 [Eh]
	 SCS Total Energy          =    -814.7859073843676470 [Eh]
	-----------------------------------------------------------

  Dipole Moment: [D]
     X:     1.0199      Y:    -4.6863      Z:     2.4950     Total:     5.4062

*** Psi4 exiting successfully. Buy a developer a beer!
