                               Psi4 1.3.2 release

  ==> Input File <==

--------------------------------------------------------------------------
#psi4
#
memory 32 gb

molecule  {
0 1
  O        1.3620710    -0.3800110    -0.9318440
  O        3.2020570     1.9012130    -0.2995130
  O        2.7994070    -2.7489470    -0.4002010
  O       -1.3621860     2.3740050     0.1547830
  N       -0.7982440     0.1994180    -0.2292560
  N       -3.0541720     0.8052390     0.2400120
  N       -4.6734100    -0.8124350     0.4126370
  C        2.7015950     0.8755540     0.5594740
  C        1.2368440     1.1072260     0.8878520
  C        2.6518190    -0.3922910    -0.2854700
  C        0.5739580     0.6830040    -0.4149160
  C        2.8020980    -1.6600160     0.5224700
  C       -1.1273370    -1.1158190    -0.3082760
  C       -1.7446880     1.2038920     0.0820450
  C       -2.4173070    -1.5045610    -0.1045420
  C       -3.3619920    -0.4731600     0.1685110
  H        3.3343810     0.7567850     1.4508530
  H        0.9047070     0.4438290     1.6934890
  H        0.9853290     2.1340670     1.1581470
  H        0.5274540     1.5132540    -1.1249130
  H        3.4174920    -0.3642830    -1.0666260
  H        1.9707490    -1.7331840     1.2432230
  H        3.7460890    -1.6095150     1.0882890
  H        3.1038510     2.7463240     0.1779830
  H       -0.3107400    -1.7892010    -0.5436980
  H        2.9100300    -3.5650720     0.1192120
  H       -2.7034680    -2.5490840    -0.1532500
  H       -5.0360888    -1.6333302    -0.0588082
  H       -5.3053270    -0.0185908     0.3814955
units angstrom
no_reorient  #important for SAPT in psi4, default
symmetry c1  #important for SAPT in psi4, default
}

set PROPERTIES_ORIGIN ["COM"]
properties('MP2/aug-cc-pvtz', properties = ['dipole'])
--------------------------------------------------------------------------

    Molecular point group: c1
  Charge       = 0
  Multiplicity = 1
  Basis Set: AUG-CC-PVTZ
    Blend: AUG-CC-PVTZ
  Basis Set: (AUG-CC-PVTZ AUX)
    Blend: AUG-CC-PVTZ-JKFIT

    Orbital Energies [Eh]
    ---------------------

    Doubly Occupied:

       1A    -20.577751     2A    -20.574345     3A    -20.572888
       4A    -20.503056     5A    -15.621756     6A    -15.588294
       7A    -15.540856     8A    -11.369900     9A    -11.345234
      10A    -11.330746    11A    -11.318275    12A    -11.300861
      13A    -11.296865    14A    -11.293079    15A    -11.237029
      16A    -11.236794    17A     -1.416667    18A     -1.382433
      19A     -1.373575    20A     -1.365713    21A     -1.292174
      22A     -1.261359    23A     -1.169157    24A     -1.078987
      25A     -1.068934    26A     -1.027994    27A     -0.926884
      28A     -0.897460    29A     -0.869150    30A     -0.830923
      31A     -0.806376    32A     -0.753760    33A     -0.738745
      34A     -0.720948    35A     -0.707345    36A     -0.692856
      37A     -0.689350    38A     -0.675192    39A     -0.656279
      40A     -0.637093    41A     -0.627608    42A     -0.618550
      43A     -0.604538    44A     -0.595132    45A     -0.588624
      46A     -0.572806    47A     -0.568755    48A     -0.544859
      49A     -0.532521    50A     -0.523734    51A     -0.510419
      52A     -0.485879    53A     -0.482081    54A     -0.468503
      55A     -0.461124    56A     -0.444469    57A     -0.437841
      58A     -0.416355    59A     -0.383870    60A     -0.334905

  @DF-RHF Final Energy:  -811.47933689546744

   => Energetics <=

    Nuclear Repulsion Energy =           1169.9105491443883693
    One-Electron Energy =               -3434.8804550583281525
    Two-Electron Energy =                1453.4905690184723426
    Total Energy =                       -811.4793368954674406
  Basis Set: (AUG-CC-PVTZ AUX)
    Blend: AUG-CC-PVTZ-RI
    Molecular point group: c1

    Geometry (in Angstrom), charge = 0, multiplicity = 1:

       Center              X                  Y                   Z               Mass
    ------------   -----------------  -----------------  -----------------  -----------------
         O            1.362129715511    -0.380009346178    -0.931814254786    15.994914619570
         O            3.202115715511     1.901214653822    -0.299483254786    15.994914619570
         O            2.799465715511    -2.748945346178    -0.400171254786    15.994914619570
         O           -1.362127284489     2.374006653822     0.154812745214    15.994914619570
         N           -0.798185284489     0.199419653822    -0.229226254786    14.003074004430
         N           -3.054113284489     0.805240653822     0.240041745214    14.003074004430
         N           -4.673351284489    -0.812433346178     0.412666745214    14.003074004430
         C            2.701653715511     0.875555653822     0.559503745214    12.000000000000
         C            1.236902715511     1.107227653822     0.887881745214    12.000000000000
         C            2.651877715511    -0.392289346178    -0.285440254786    12.000000000000
         C            0.574016715511     0.683005653822    -0.414886254786    12.000000000000
         C            2.802156715511    -1.660014346178     0.522499745214    12.000000000000
         C           -1.127278284489    -1.115817346178    -0.308246254786    12.000000000000
         C           -1.744629284489     1.203893653822     0.082074745214    12.000000000000
         C           -2.417248284489    -1.504559346178    -0.104512254786    12.000000000000
         C           -3.361933284489    -0.473158346178     0.168540745214    12.000000000000
         H            3.334439715511     0.756786653822     1.450882745214     1.007825032230
         H            0.904765715511     0.443830653822     1.693518745214     1.007825032230
         H            0.985387715511     2.134068653822     1.158176745214     1.007825032230
         H            0.527512715511     1.513255653822    -1.124883254786     1.007825032230
         H            3.417550715511    -0.364281346178    -1.066596254786     1.007825032230
         H            1.970807715511    -1.733182346178     1.243252745214     1.007825032230
         H            3.746147715511    -1.609513346178     1.088318745214     1.007825032230
         H            3.103909715511     2.746325653822     0.178012745214     1.007825032230
         H           -0.310681284489    -1.789199346178    -0.543668254786     1.007825032230
         H            2.910088715511    -3.565070346178     0.119241745214     1.007825032230
         H           -2.703409284489    -2.549082346178    -0.153220254786     1.007825032230
         H           -5.036030084489    -1.633328546178    -0.058778454786     1.007825032230
         H           -5.305268284489    -0.018589146178     0.381525245214     1.007825032230

  Basis Set: AUG-CC-PVTZ
    Blend: AUG-CC-PVTZ
  Basis Set: (AUG-CC-PVTZ AUX)
    Blend: AUG-CC-PVTZ-JKFIT
	 Reference Energy          =    -811.4793368954674406 [Eh]
	 Singles Energy            =      -0.0000000000000000 [Eh]
	 Same-Spin Energy          =      -0.8296466560880944 [Eh]
	 Opposite-Spin Energy      =      -2.5251421573206221 [Eh]
	 Correlation Energy        =      -3.3547888134087165 [Eh]
	 Total Energy              =    -814.8341257088761722 [Eh]

	 ================> DF-SCS-MP2 Energies <==================
	-----------------------------------------------------------
	 SCS Same-Spin Scale       =       0.3333333333333333 [-]
	 SCS Opposite-Spin Scale   =       1.2000000000000000 [-]
	 SCS Same-Spin Energy      =      -0.2765488853626981 [Eh]
	 SCS Opposite-Spin Energy  =      -3.0301705887847463 [Eh]
	 SCS Correlation Energy    =      -3.3067194741474446 [Eh]
	 SCS Total Energy          =    -814.7860563696149256 [Eh]
	-----------------------------------------------------------

  Dipole Moment: [D]
     X:     1.0713      Y:    -4.6756      Z:     2.4797     Total:     5.3998

*** Psi4 exiting successfully. Buy a developer a beer!
