                               Psi4 1.3.2 release

  ==> Input File <==

--------------------------------------------------------------------------
#psi4
#
memory 32 gb

molecule  {
0 1
  O        1.3620710    -0.3800110    -0.9318440
  O        3.2020570     1.9012130    -0.2995130
  O        2.7994070    -2.7489470    -0.4002010
  O       -1.3621860     2.3740050     0.1547830
  N       -0.7982440     0.1994180    -0.2292560
  N       -3.0541720     0.8052390     0.2400120
  N       -4.6734100    -0.8124350     0.4126370
  C        2.7015950     0.8755540     0.5594740
  C        1.2368440     1.1072260     0.8878520
  C        2.6518190    -0.3922910    -0.2854700
  C        0.5739580     0.6830040    -0.4149160
  C        2.8020980    -1.6600160     0.5224700
  C       -1.1273370    -1.1158190    -0.3082760
  C       -1.7446880     1.2038920     0.0820450
  C       -2.4173070    -1.5045610    -0.1045420
  C       -3.3975661    -0.5077813     0.1716787
  H        3.3343810     0.7567850     1.4508530
  H        0.9047070     0.4438290     1.6934890
  H        0.9853290     2.1340670     1.1581470
  H        0.5274540     1.5132540    -1.1249130
  H        3.4174920    -0.3642830    -1.0666260
  H        1.9707490    -1.7331840     1.2432230
  H        3.7460890    -1.6095150     1.0882890
  H        3.1038510     2.7463240     0.1779830
  H       -0.3107400    -1.7892010    -0.5436980
  H        2.9100300    -3.5650720     0.1192120
  H       -2.7391492    -2.5389739    -0.1457304
  H       -5.0287110    -1.6377420    -0.0567190
  H       -5.2994710    -0.0137980     0.3861010
units angstrom
no_reorient  #important for SAPT in psi4, default
symmetry c1  #important for SAPT in psi4, default
}

set PROPERTIES_ORIGIN ["COM"]
properties('MP2/aug-cc-pvtz', properties = ['dipole'])
--------------------------------------------------------------------------

    Molecular point group: c1
  Charge       = 0
  Multiplicity = 1
  Basis Set: AUG-CC-PVTZ
    Blend: AUG-CC-PVTZ
  Basis Set: (AUG-CC-PVTZ AUX)
    Blend: AUG-CC-PVTZ-JKFIT

    Orbital Energies [Eh]
    ---------------------

    Doubly Occupied:

       1A    -20.577220     2A    -20.573394     3A    -20.571807
       4A    -20.497890     5A    -15.619955     6A    -15.596944
       7A    -15.536207     8A    -11.365114     9A    -11.346956
      10A    -11.329196    11A    -11.319656    12A    -11.299843
      13A    -11.296207    14A    -11.292197    15A    -11.237037
      16A    -11.235456    17A     -1.415259    18A     -1.378353
      19A     -1.372875    20A     -1.364084    21A     -1.294528
      22A     -1.266510    23A     -1.163068    24A     -1.077277
      25A     -1.067372    26A     -1.027202    27A     -0.926804
      28A     -0.897081    29A     -0.865979    30A     -0.829999
      31A     -0.805797    32A     -0.757705    33A     -0.736812
      34A     -0.720888    35A     -0.715064    36A     -0.693000
      37A     -0.689477    38A     -0.676310    39A     -0.656368
      40A     -0.634670    41A     -0.625541    42A     -0.617402
      43A     -0.602997    44A     -0.597182    45A     -0.584952
      46A     -0.572277    47A     -0.568204    48A     -0.545016
      49A     -0.536217    50A     -0.522370    51A     -0.510725
      52A     -0.484855    53A     -0.479806    54A     -0.467832
      55A     -0.460143    56A     -0.441171    57A     -0.432613
      58A     -0.410710    59A     -0.377120    60A     -0.333235

  @DF-RHF Final Energy:  -811.47457749037494

   => Energetics <=

    Nuclear Repulsion Energy =           1169.2660320914185377
    One-Electron Energy =               -3433.6853581735472289
    Two-Electron Energy =                1452.9447485917535232
    Total Energy =                       -811.4745774903749407
  Basis Set: (AUG-CC-PVTZ AUX)
    Blend: AUG-CC-PVTZ-RI
    Molecular point group: c1

    Geometry (in Angstrom), charge = 0, multiplicity = 1:

       Center              X                  Y                   Z               Mass
    ------------   -----------------  -----------------  -----------------  -----------------
         O            1.364109155611    -0.378226434881    -0.932044726351    15.994914619570
         O            3.204095155611     1.902997565119    -0.299713726351    15.994914619570
         O            2.801445155611    -2.747162434881    -0.400401726351    15.994914619570
         O           -1.360147844389     2.375789565119     0.154582273649    15.994914619570
         N           -0.796205844389     0.201202565119    -0.229456726351    14.003074004430
         N           -3.052133844389     0.807023565119     0.239811273649    14.003074004430
         N           -4.671371844389    -0.810650434881     0.412436273649    14.003074004430
         C            2.703633155611     0.877338565119     0.559273273649    12.000000000000
         C            1.238882155611     1.109010565119     0.887651273649    12.000000000000
         C            2.653857155611    -0.390506434881    -0.285670726351    12.000000000000
         C            0.575996155611     0.684788565119    -0.415116726351    12.000000000000
         C            2.804136155611    -1.658231434881     0.522269273649    12.000000000000
         C           -1.125298844389    -1.114034434881    -0.308476726351    12.000000000000
         C           -1.742649844389     1.205676565119     0.081844273649    12.000000000000
         C           -2.415268844389    -1.502776434881    -0.104742726351    12.000000000000
         C           -3.395527944389    -0.505996734881     0.171477973649    12.000000000000
         H            3.336419155611     0.758569565119     1.450652273649     1.007825032230
         H            0.906745155611     0.445613565119     1.693288273649     1.007825032230
         H            0.987367155611     2.135851565119     1.157946273649     1.007825032230
         H            0.529492155611     1.515038565119    -1.125113726351     1.007825032230
         H            3.419530155611    -0.362498434881    -1.066826726351     1.007825032230
         H            1.972787155611    -1.731399434881     1.243022273649     1.007825032230
         H            3.748127155611    -1.607730434881     1.088088273649     1.007825032230
         H            3.105889155611     2.748108565119     0.177782273649     1.007825032230
         H           -0.308701844389    -1.787416434881    -0.543898726351     1.007825032230
         H            2.912068155611    -3.563287434881     0.119011273649     1.007825032230
         H           -2.737111044389    -2.537189334881    -0.145931126351     1.007825032230
         H           -5.026672844389    -1.635957434881    -0.056919726351     1.007825032230
         H           -5.297432844389    -0.012013434881     0.385900273649     1.007825032230

  Basis Set: AUG-CC-PVTZ
    Blend: AUG-CC-PVTZ
  Basis Set: (AUG-CC-PVTZ AUX)
    Blend: AUG-CC-PVTZ-JKFIT
	 Reference Energy          =    -811.4745774903749407 [Eh]
	 Singles Energy            =      -0.0000000000000000 [Eh]
	 Same-Spin Energy          =      -0.8301748335057912 [Eh]
	 Opposite-Spin Energy      =      -2.5256852990324035 [Eh]
	 Correlation Energy        =      -3.3558601325381945 [Eh]
	 Total Energy              =    -814.8304376229131094 [Eh]

	 ================> DF-SCS-MP2 Energies <==================
	-----------------------------------------------------------
	 SCS Same-Spin Scale       =       0.3333333333333333 [-]
	 SCS Opposite-Spin Scale   =       1.2000000000000000 [-]
	 SCS Same-Spin Energy      =      -0.2767249445019304 [Eh]
	 SCS Opposite-Spin Energy  =      -3.0308223588388841 [Eh]
	 SCS Correlation Energy    =      -3.3075473033408143 [Eh]
	 SCS Total Energy          =    -814.7821247937157523 [Eh]
	-----------------------------------------------------------

  Dipole Moment: [D]
     X:     0.6940      Y:    -4.9033      Z:     2.5353     Total:     5.5634

*** Psi4 exiting successfully. Buy a developer a beer!
