                               Psi4 1.3.2 release

  ==> Input File <==

--------------------------------------------------------------------------
#psi4
#
memory 32 gb

molecule  {
0 1
  O        1.3620710    -0.3800110    -0.9318440
  O        3.2020570     1.9012130    -0.2995130
  O        2.7994070    -2.7489470    -0.4002010
  O       -1.3621860     2.3740050     0.1547830
  N       -0.7982440     0.1994180    -0.2292560
  N       -3.0541720     0.8052390     0.2400120
  N       -4.6734100    -0.8124350     0.4126370
  C        2.7015950     0.8755540     0.5594740
  C        1.2368440     1.1072260     0.8878520
  C        2.6628138    -0.3952829    -0.2921020
  C        0.5739580     0.6830040    -0.4149160
  C        2.8020980    -1.6600160     0.5224700
  C       -1.1273370    -1.1158190    -0.3082760
  C       -1.7446880     1.2038920     0.0820450
  C       -2.4173070    -1.5045610    -0.1045420
  C       -3.3619920    -0.4731600     0.1685110
  H        3.3343810     0.7567850     1.4508530
  H        0.9047070     0.4438290     1.6934890
  H        0.9853290     2.1340670     1.1581470
  H        0.5274540     1.5132540    -1.1249130
  H        3.4174920    -0.3642830    -1.0666260
  H        1.9743329    -1.7415124     1.2464471
  H        3.7460890    -1.6095150     1.0882890
  H        3.1038510     2.7463240     0.1779830
  H       -0.3107400    -1.7892010    -0.5436980
  H        2.9100300    -3.5650720     0.1192120
  H       -2.7034680    -2.5490840    -0.1532500
  H       -5.0287110    -1.6377420    -0.0567190
  H       -5.2994710    -0.0137980     0.3861010
units angstrom
no_reorient  #important for SAPT in psi4, default
symmetry c1  #important for SAPT in psi4, default
}

set PROPERTIES_ORIGIN ["COM"]
properties('MP2/aug-cc-pvtz', properties = ['dipole'])
--------------------------------------------------------------------------

    Molecular point group: c1
  Charge       = 0
  Multiplicity = 1
  Basis Set: AUG-CC-PVTZ
    Blend: AUG-CC-PVTZ
  Basis Set: (AUG-CC-PVTZ AUX)
    Blend: AUG-CC-PVTZ-JKFIT

    Orbital Energies [Eh]
    ---------------------

    Doubly Occupied:

       1A    -20.577603     2A    -20.574260     3A    -20.571876
       4A    -20.502868     5A    -15.621504     6A    -15.588216
       7A    -15.540630     8A    -11.369713     9A    -11.344864
      10A    -11.330354    11A    -11.318058    12A    -11.301132
      13A    -11.297078    14A    -11.293208    15A    -11.236816
      16A    -11.236623    17A     -1.414693    18A     -1.382174
      19A     -1.373590    20A     -1.365087    21A     -1.291991
      22A     -1.261073    23A     -1.168910    24A     -1.078231
      25A     -1.068429    26A     -1.028010    27A     -0.926436
      28A     -0.897241    29A     -0.868760    30A     -0.830131
      31A     -0.807728    32A     -0.754139    33A     -0.738256
      34A     -0.720428    35A     -0.706588    36A     -0.693073
      37A     -0.689070    38A     -0.675683    39A     -0.656307
      40A     -0.636584    41A     -0.627152    42A     -0.618312
      43A     -0.604365    44A     -0.595078    45A     -0.587988
      46A     -0.572643    47A     -0.569764    48A     -0.544789
      49A     -0.532060    50A     -0.523191    51A     -0.510700
      52A     -0.485151    53A     -0.482229    54A     -0.468348
      55A     -0.461470    56A     -0.444546    57A     -0.437716
      58A     -0.416197    59A     -0.383567    60A     -0.334730

  @DF-RHF Final Energy:  -811.47925956649169

   => Energetics <=

    Nuclear Repulsion Energy =           1169.6508322020522428
    One-Electron Energy =               -3434.3853613849319117
    Two-Electron Energy =                1453.2552696163879773
    Total Energy =                       -811.4792595664916917
  Basis Set: (AUG-CC-PVTZ AUX)
    Blend: AUG-CC-PVTZ-RI
    Molecular point group: c1

    Geometry (in Angstrom), charge = 0, multiplicity = 1:

       Center              X                  Y                   Z               Mass
    ------------   -----------------  -----------------  -----------------  -----------------
         O            1.361474087779    -0.379815976715    -0.931507823858    15.994914619570
         O            3.201460087779     1.901408023285    -0.299176823858    15.994914619570
         O            2.798810087779    -2.748751976715    -0.399864823858    15.994914619570
         O           -1.362782912221     2.374200023285     0.155119176142    15.994914619570
         N           -0.798840912221     0.199613023285    -0.228919823858    14.003074004430
         N           -3.054768912221     0.805434023285     0.240348176142    14.003074004430
         N           -4.674006912221    -0.812239976715     0.412973176142    14.003074004430
         C            2.700998087779     0.875749023285     0.559810176142    12.000000000000
         C            1.236247087779     1.107421023285     0.888188176142    12.000000000000
         C            2.662216887779    -0.395087876715    -0.291765823858    12.000000000000
         C            0.573361087779     0.683199023285    -0.414579823858    12.000000000000
         C            2.801501087779    -1.659820976715     0.522806176142    12.000000000000
         C           -1.127933912221    -1.115623976715    -0.307939823858    12.000000000000
         C           -1.745284912221     1.204087023285     0.082381176142    12.000000000000
         C           -2.417903912221    -1.504365976715    -0.104205823858    12.000000000000
         C           -3.362588912221    -0.472964976715     0.168847176142    12.000000000000
         H            3.333784087779     0.756980023285     1.451189176142     1.007825032230
         H            0.904110087779     0.444024023285     1.693825176142     1.007825032230
         H            0.984732087779     2.134262023285     1.158483176142     1.007825032230
         H            0.526857087779     1.513449023285    -1.124576823858     1.007825032230
         H            3.416895087779    -0.364087976715    -1.066289823858     1.007825032230
         H            1.973735987779    -1.741317376715     1.246783276142     1.007825032230
         H            3.745492087779    -1.609319976715     1.088625176142     1.007825032230
         H            3.103254087779     2.746519023285     0.178319176142     1.007825032230
         H           -0.311336912221    -1.789005976715    -0.543361823858     1.007825032230
         H            2.909433087779    -3.564876976715     0.119548176142     1.007825032230
         H           -2.704064912221    -2.548888976715    -0.152913823858     1.007825032230
         H           -5.029307912221    -1.637546976715    -0.056382823858     1.007825032230
         H           -5.300067912221    -0.013602976715     0.386437176142     1.007825032230

  Basis Set: AUG-CC-PVTZ
    Blend: AUG-CC-PVTZ
  Basis Set: (AUG-CC-PVTZ AUX)
    Blend: AUG-CC-PVTZ-JKFIT
	 Reference Energy          =    -811.4792595664916917 [Eh]
	 Singles Energy            =      -0.0000000000000000 [Eh]
	 Same-Spin Energy          =      -0.8295512109327716 [Eh]
	 Opposite-Spin Energy      =      -2.5250979351649221 [Eh]
	 Correlation Energy        =      -3.3546491460976937 [Eh]
	 Total Energy              =    -814.8339087125893911 [Eh]

	 ================> DF-SCS-MP2 Energies <==================
	-----------------------------------------------------------
	 SCS Same-Spin Scale       =       0.3333333333333333 [-]
	 SCS Opposite-Spin Scale   =       1.2000000000000000 [-]
	 SCS Same-Spin Energy      =      -0.2765170703109239 [Eh]
	 SCS Opposite-Spin Energy  =      -3.0301175221979064 [Eh]
	 SCS Correlation Energy    =      -3.3066345925088303 [Eh]
	 SCS Total Energy          =    -814.7858941590005770 [Eh]
	-----------------------------------------------------------

  Dipole Moment: [D]
     X:     1.1081      Y:    -4.6884      Z:     2.4889     Total:     5.4225

*** Psi4 exiting successfully. Buy a developer a beer!
