                               Psi4 1.3.2 release

  ==> Input File <==

--------------------------------------------------------------------------
#psi4
#
memory 32 gb

molecule  {
0 1
  O        1.3620710    -0.3800110    -0.9318440
  O        3.2020570     1.9012130    -0.2995130
  O        2.7994070    -2.7489470    -0.4002010
  O       -1.3621860     2.3740050     0.1547830
  N       -0.7982440     0.1994180    -0.2292560
  N       -3.0541720     0.8052390     0.2400120
  N       -4.6734100    -0.8124350     0.4126370
  C        2.7015950     0.8755540     0.5594740
  C        1.2368440     1.1072260     0.8878520
  C        2.6518190    -0.3922910    -0.2854700
  C        0.5739580     0.6830040    -0.4149160
  C        2.8020980    -1.6600160     0.5224700
  C       -1.1273370    -1.1158190    -0.3082760
  C       -1.7446880     1.2038920     0.0820450
  C       -2.4173070    -1.5045610    -0.1045420
  C       -3.3619920    -0.4731600     0.1685110
  H        3.3919289     0.7459837     1.5319183
  H        0.9047070     0.4438290     1.6934890
  H        0.9853290     2.1340670     1.1581470
  H        0.5274540     1.5132540    -1.1249130
  H        3.4174920    -0.3642830    -1.0666260
  H        1.9707490    -1.7331840     1.2432230
  H        3.7460890    -1.6095150     1.0882890
  H        3.1038510     2.7463240     0.1779830
  H       -0.3107400    -1.7892010    -0.5436980
  H        2.9100300    -3.5650720     0.1192120
  H       -2.7034680    -2.5490840    -0.1532500
  H       -5.0287110    -1.6377420    -0.0567190
  H       -5.2994710    -0.0137980     0.3861010
units angstrom
no_reorient  #important for SAPT in psi4, default
symmetry c1  #important for SAPT in psi4, default
}

set PROPERTIES_ORIGIN ["COM"]
properties('MP2/aug-cc-pvtz', properties = ['dipole'])
--------------------------------------------------------------------------

    Molecular point group: c1
  Charge       = 0
  Multiplicity = 1
  Basis Set: AUG-CC-PVTZ
    Blend: AUG-CC-PVTZ
  Basis Set: (AUG-CC-PVTZ AUX)
    Blend: AUG-CC-PVTZ-JKFIT

    Orbital Energies [Eh]
    ---------------------

    Doubly Occupied:

       1A    -20.577481     2A    -20.576556     3A    -20.573866
       4A    -20.503432     5A    -15.622230     6A    -15.588608
       7A    -15.541109     8A    -11.370284     9A    -11.345347
      10A    -11.331600    11A    -11.318641    12A    -11.312638
      13A    -11.296544    14A    -11.294087    15A    -11.237921
      16A    -11.237358    17A     -1.417519    18A     -1.382916
      19A     -1.374001    20A     -1.366398    21A     -1.292583
      22A     -1.261826    23A     -1.169427    24A     -1.078741
      25A     -1.068056    26A     -1.028415    27A     -0.925764
      28A     -0.897794    29A     -0.868321    30A     -0.830765
      31A     -0.800726    32A     -0.754403    33A     -0.735538
      34A     -0.720604    35A     -0.704639    36A     -0.692766
      37A     -0.689403    38A     -0.676078    39A     -0.656868
      40A     -0.636603    41A     -0.626636    42A     -0.618032
      43A     -0.604231    44A     -0.595543    45A     -0.588069
      46A     -0.572123    47A     -0.569006    48A     -0.545058
      49A     -0.532281    50A     -0.524329    51A     -0.510527
      52A     -0.484580    53A     -0.482452    54A     -0.468134
      55A     -0.458498    56A     -0.444338    57A     -0.437966
      58A     -0.416689    59A     -0.383987    60A     -0.335281

  @DF-RHF Final Energy:  -811.47239113711396

   => Energetics <=

    Nuclear Repulsion Energy =           1169.3519564056637137
    One-Electron Energy =               -3433.7374551972407062
    Two-Electron Energy =                1452.9131076544631469
    Total Energy =                       -811.4723911371138456
  Basis Set: (AUG-CC-PVTZ AUX)
    Blend: AUG-CC-PVTZ-RI
    Molecular point group: c1

    Geometry (in Angstrom), charge = 0, multiplicity = 1:

       Center              X                  Y                   Z               Mass
    ------------   -----------------  -----------------  -----------------  -----------------
         O            1.361815587286    -0.379963101028    -0.932203732477    15.994914619570
         O            3.201801587286     1.901260898972    -0.299872732477    15.994914619570
         O            2.799151587286    -2.748899101028    -0.400560732477    15.994914619570
         O           -1.362441412714     2.374052898972     0.154423267523    15.994914619570
         N           -0.798499412714     0.199465898972    -0.229615732477    14.003074004430
         N           -3.054427412714     0.805286898972     0.239652267523    14.003074004430
         N           -4.673665412714    -0.812387101028     0.412277267523    14.003074004430
         C            2.701339587286     0.875601898972     0.559114267523    12.000000000000
         C            1.236588587286     1.107273898972     0.887492267523    12.000000000000
         C            2.651563587286    -0.392243101028    -0.285829732477    12.000000000000
         C            0.573702587286     0.683051898972    -0.415275732477    12.000000000000
         C            2.801842587286    -1.659968101028     0.522110267523    12.000000000000
         C           -1.127592412714    -1.115771101028    -0.308635732477    12.000000000000
         C           -1.744943412714     1.203939898972     0.081685267523    12.000000000000
         C           -2.417562412714    -1.504513101028    -0.104901732477    12.000000000000
         C           -3.362247412714    -0.473112101028     0.168151267523    12.000000000000
         H            3.391673487286     0.746031598972     1.531558567523     1.007825032230
         H            0.904451587286     0.443876898972     1.693129267523     1.007825032230
         H            0.985073587286     2.134114898972     1.157787267523     1.007825032230
         H            0.527198587286     1.513301898972    -1.125272732477     1.007825032230
         H            3.417236587286    -0.364235101028    -1.066985732477     1.007825032230
         H            1.970493587286    -1.733136101028     1.242863267523     1.007825032230
         H            3.745833587286    -1.609467101028     1.087929267523     1.007825032230
         H            3.103595587286     2.746371898972     0.177623267523     1.007825032230
         H           -0.310995412714    -1.789153101028    -0.544057732477     1.007825032230
         H            2.909774587286    -3.565024101028     0.118852267523     1.007825032230
         H           -2.703723412714    -2.549036101028    -0.153609732477     1.007825032230
         H           -5.028966412714    -1.637694101028    -0.057078732477     1.007825032230
         H           -5.299726412714    -0.013750101028     0.385741267523     1.007825032230

  Basis Set: AUG-CC-PVTZ
    Blend: AUG-CC-PVTZ
  Basis Set: (AUG-CC-PVTZ AUX)
    Blend: AUG-CC-PVTZ-JKFIT
	 Reference Energy          =    -811.4723911371139593 [Eh]
	 Singles Energy            =      -0.0000000000000000 [Eh]
	 Same-Spin Energy          =      -0.8298627494212852 [Eh]
	 Opposite-Spin Energy      =      -2.5261384500292734 [Eh]
	 Correlation Energy        =      -3.3560011994505587 [Eh]
	 Total Energy              =    -814.8283923365645478 [Eh]

	 ================> DF-SCS-MP2 Energies <==================
	-----------------------------------------------------------
	 SCS Same-Spin Scale       =       0.3333333333333333 [-]
	 SCS Opposite-Spin Scale   =       1.2000000000000000 [-]
	 SCS Same-Spin Energy      =      -0.2766209164737617 [Eh]
	 SCS Opposite-Spin Energy  =      -3.0313661400351282 [Eh]
	 SCS Correlation Energy    =      -3.3079870565088898 [Eh]
	 SCS Total Energy          =    -814.7803781936228233 [Eh]
	-----------------------------------------------------------

  Dipole Moment: [D]
     X:     1.0160      Y:    -4.6516      Z:     2.4186     Total:     5.3403

*** Psi4 exiting successfully. Buy a developer a beer!
