                               Psi4 1.3.2 release

  ==> Input File <==

--------------------------------------------------------------------------
#psi4
#
memory 32 gb

molecule  {
0 1
  O        1.3620710    -0.3800110    -0.9318440
  O        3.2020570     1.9012130    -0.2995130
  O        2.7994070    -2.7489470    -0.4002010
  O       -1.3621860     2.3740050     0.1547830
  N       -0.7982440     0.1994180    -0.2292560
  N       -3.0541720     0.8052390     0.2400120
  N       -4.6734100    -0.8124350     0.4126370
  C        2.7015950     0.8755540     0.5594740
  C        1.2265700     1.1098320     0.8359061
  C        2.6518190    -0.3922910    -0.2854700
  C        0.5739580     0.6830040    -0.4149160
  C        2.8020980    -1.6600160     0.5224700
  C       -1.1273370    -1.1158190    -0.3082760
  C       -1.7446880     1.2038920     0.0820450
  C       -2.4173070    -1.5045610    -0.1045420
  C       -3.3619920    -0.4731600     0.1685110
  H        3.3647719     0.7522710     1.4278509
  H        0.9047070     0.4438290     1.6934890
  H        0.9853290     2.1340670     1.1581470
  H        0.5274540     1.5132540    -1.1249130
  H        3.4174920    -0.3642830    -1.0666260
  H        1.9707490    -1.7331840     1.2432230
  H        3.7460890    -1.6095150     1.0882890
  H        3.1038510     2.7463240     0.1779830
  H       -0.3107400    -1.7892010    -0.5436980
  H        2.9100300    -3.5650720     0.1192120
  H       -2.7034680    -2.5490840    -0.1532500
  H       -5.0287110    -1.6377420    -0.0567190
  H       -5.2994710    -0.0137980     0.3861010
units angstrom
no_reorient  #important for SAPT in psi4, default
symmetry c1  #important for SAPT in psi4, default
}

set PROPERTIES_ORIGIN ["COM"]
properties('MP2/aug-cc-pvtz', properties = ['dipole'])
--------------------------------------------------------------------------

    Molecular point group: c1
  Charge       = 0
  Multiplicity = 1
  Basis Set: AUG-CC-PVTZ
    Blend: AUG-CC-PVTZ
  Basis Set: (AUG-CC-PVTZ AUX)
    Blend: AUG-CC-PVTZ-JKFIT

    Orbital Energies [Eh]
    ---------------------

    Doubly Occupied:

       1A    -20.577635     2A    -20.572821     3A    -20.572691
       4A    -20.503260     5A    -15.622059     6A    -15.588513
       7A    -15.540958     8A    -11.370174     9A    -11.345247
      10A    -11.329097    11A    -11.318593    12A    -11.301082
      13A    -11.296681    14A    -11.292631    15A    -11.238851
      16A    -11.237221    17A     -1.418078    18A     -1.382651
      19A     -1.373349    20A     -1.365645    21A     -1.292463
      22A     -1.261824    23A     -1.169469    24A     -1.082176
      25A     -1.068817    26A     -1.030932    27A     -0.927764
      28A     -0.897619    29A     -0.868973    30A     -0.829035
      31A     -0.807835    32A     -0.754533    33A     -0.740379
      34A     -0.721596    35A     -0.707087    36A     -0.693455
      37A     -0.688164    38A     -0.675449    39A     -0.657172
      40A     -0.638197    41A     -0.627612    42A     -0.617522
      43A     -0.604033    44A     -0.595473    45A     -0.590275
      46A     -0.575655    47A     -0.567928    48A     -0.543703
      49A     -0.530963    50A     -0.523679    51A     -0.507599
      52A     -0.484291    53A     -0.481237    54A     -0.467519
      55A     -0.462234    56A     -0.445621    57A     -0.438590
      58A     -0.416474    59A     -0.384445    60A     -0.335598

  @DF-RHF Final Energy:  -811.47578300767771

   => Energetics <=

    Nuclear Repulsion Energy =           1170.8803586642811752
    One-Electron Energy =               -3436.7910273107081593
    Two-Electron Energy =                1454.4348856387491651
    Total Energy =                       -811.4757830076778191
  Basis Set: (AUG-CC-PVTZ AUX)
    Blend: AUG-CC-PVTZ-RI
    Molecular point group: c1

    Geometry (in Angstrom), charge = 0, multiplicity = 1:

       Center              X                  Y                   Z               Mass
    ------------   -----------------  -----------------  -----------------  -----------------
         O            1.362479011930    -0.380128711130    -0.928996939630    15.994914619570
         O            3.202465011930     1.901095288870    -0.296665939630    15.994914619570
         O            2.799815011930    -2.749064711130    -0.397353939630    15.994914619570
         O           -1.361777988070     2.373887288870     0.157630060370    15.994914619570
         N           -0.797835988070     0.199300288870    -0.226408939630    14.003074004430
         N           -3.053763988070     0.805121288870     0.242859060370    14.003074004430
         N           -4.673001988070    -0.812552711130     0.415484060370    14.003074004430
         C            2.702003011930     0.875436288870     0.562321060370    12.000000000000
         C            1.226978011930     1.109714288870     0.838753160370    12.000000000000
         C            2.652227011930    -0.392408711130    -0.282622939630    12.000000000000
         C            0.574366011930     0.682886288870    -0.412068939630    12.000000000000
         C            2.802506011930    -1.660133711130     0.525317060370    12.000000000000
         C           -1.126928988070    -1.115936711130    -0.305428939630    12.000000000000
         C           -1.744279988070     1.203774288870     0.084892060370    12.000000000000
         C           -2.416898988070    -1.504678711130    -0.101694939630    12.000000000000
         C           -3.361583988070    -0.473277711130     0.171358060370    12.000000000000
         H            3.365179911930     0.752153288870     1.430697960370     1.007825032230
         H            0.905115011930     0.443711288870     1.696336060370     1.007825032230
         H            0.985737011930     2.133949288870     1.160994060370     1.007825032230
         H            0.527862011930     1.513136288870    -1.122065939630     1.007825032230
         H            3.417900011930    -0.364400711130    -1.063778939630     1.007825032230
         H            1.971157011930    -1.733301711130     1.246070060370     1.007825032230
         H            3.746497011930    -1.609632711130     1.091136060370     1.007825032230
         H            3.104259011930     2.746206288870     0.180830060370     1.007825032230
         H           -0.310331988070    -1.789318711130    -0.540850939630     1.007825032230
         H            2.910438011930    -3.565189711130     0.122059060370     1.007825032230
         H           -2.703059988070    -2.549201711130    -0.150402939630     1.007825032230
         H           -5.028302988070    -1.637859711130    -0.053871939630     1.007825032230
         H           -5.299062988070    -0.013915711130     0.388948060370     1.007825032230

  Basis Set: AUG-CC-PVTZ
    Blend: AUG-CC-PVTZ
  Basis Set: (AUG-CC-PVTZ AUX)
    Blend: AUG-CC-PVTZ-JKFIT
	 Reference Energy          =    -811.4757830076777054 [Eh]
	 Singles Energy            =      -0.0000000000000000 [Eh]
	 Same-Spin Energy          =      -0.8299833051800156 [Eh]
	 Opposite-Spin Energy      =      -2.5254362860927460 [Eh]
	 Correlation Energy        =      -3.3554195912727618 [Eh]
	 Total Energy              =    -814.8312025989504264 [Eh]

	 ================> DF-SCS-MP2 Energies <==================
	-----------------------------------------------------------
	 SCS Same-Spin Scale       =       0.3333333333333333 [-]
	 SCS Opposite-Spin Scale   =       1.2000000000000000 [-]
	 SCS Same-Spin Energy      =      -0.2766611017266719 [Eh]
	 SCS Opposite-Spin Energy  =      -3.0305235433112951 [Eh]
	 SCS Correlation Energy    =      -3.3071846450379669 [Eh]
	 SCS Total Energy          =    -814.7829676527156835 [Eh]
	-----------------------------------------------------------

  Dipole Moment: [D]
     X:     1.0695      Y:    -4.6776      Z:     2.5019     Total:     5.4114

*** Psi4 exiting successfully. Buy a developer a beer!
