                               Psi4 1.3.2 release

  ==> Input File <==

--------------------------------------------------------------------------
#psi4
#
memory 32 gb

molecule  {
0 1
  O        1.4012860    -0.3496604    -0.9320912
  O        3.2020570     1.9012130    -0.2995130
  O        2.7994070    -2.7489470    -0.4002010
  O       -1.3621860     2.3740050     0.1547830
  N       -0.8112802     0.2457832    -0.2118977
  N       -3.0541720     0.8052390     0.2400120
  N       -4.6734100    -0.8124350     0.4126370
  C        2.7015950     0.8755540     0.5594740
  C        1.2368440     1.1072260     0.8878520
  C        2.6518190    -0.3922910    -0.2854700
  C        0.5739580     0.6830040    -0.4149160
  C        2.8020980    -1.6600160     0.5224700
  C       -1.1273370    -1.1158190    -0.3082760
  C       -1.7446880     1.2038920     0.0820450
  C       -2.4173070    -1.5045610    -0.1045420
  C       -3.3619920    -0.4731600     0.1685110
  H        3.3343810     0.7567850     1.4508530
  H        0.9047070     0.4438290     1.6934890
  H        0.9853290     2.1340670     1.1581470
  H        0.5274540     1.5132540    -1.1249130
  H        3.4174920    -0.3642830    -1.0666260
  H        1.9707490    -1.7331840     1.2432230
  H        3.7460890    -1.6095150     1.0882890
  H        3.1038510     2.7463240     0.1779830
  H       -0.3107400    -1.7892010    -0.5436980
  H        2.9100300    -3.5650720     0.1192120
  H       -2.7034680    -2.5490840    -0.1532500
  H       -5.0287110    -1.6377420    -0.0567190
  H       -5.2994710    -0.0137980     0.3861010
units angstrom
no_reorient  #important for SAPT in psi4, default
symmetry c1  #important for SAPT in psi4, default
}

set PROPERTIES_ORIGIN ["COM"]
properties('MP2/aug-cc-pvtz', properties = ['dipole'])
--------------------------------------------------------------------------

    Molecular point group: c1
  Charge       = 0
  Multiplicity = 1
  Basis Set: AUG-CC-PVTZ
    Blend: AUG-CC-PVTZ
  Basis Set: (AUG-CC-PVTZ AUX)
    Blend: AUG-CC-PVTZ-JKFIT

    Orbital Energies [Eh]
    ---------------------

    Doubly Occupied:

       1A    -20.577407     2A    -20.572650     3A    -20.572178
       4A    -20.495859     5A    -15.622187     6A    -15.590769
       7A    -15.542302     8A    -11.364294     9A    -11.347590
      10A    -11.330675    11A    -11.324181    12A    -11.297589
      13A    -11.295417    14A    -11.289635    15A    -11.244650
      16A    -11.234432    17A     -1.422769    18A     -1.384534
      19A     -1.372564    20A     -1.365679    21A     -1.290902
      22A     -1.259551    23A     -1.170394    24A     -1.079037
      25A     -1.067834    26A     -1.031983    27A     -0.927177
      28A     -0.902270    29A     -0.869022    30A     -0.830726
      31A     -0.806216    32A     -0.757126    33A     -0.737151
      34A     -0.721509    35A     -0.708745    36A     -0.693229
      37A     -0.688617    38A     -0.677508    39A     -0.660860
      40A     -0.638609    41A     -0.629190    42A     -0.618619
      43A     -0.607935    44A     -0.598038    45A     -0.589355
      46A     -0.569761    47A     -0.566204    48A     -0.545530
      49A     -0.533430    50A     -0.523340    51A     -0.509246
      52A     -0.480351    53A     -0.476044    54A     -0.467784
      55A     -0.457573    56A     -0.441976    57A     -0.437226
      58A     -0.416985    59A     -0.384340    60A     -0.339967

  @DF-RHF Final Energy:  -811.47653622093958

   => Energetics <=

    Nuclear Repulsion Energy =           1170.3737862554798994
    One-Electron Energy =               -3435.7832045686827769
    Two-Electron Energy =                1453.9328820922632985
    Total Energy =                       -811.4765362209395789
  Basis Set: (AUG-CC-PVTZ AUX)
    Blend: AUG-CC-PVTZ-RI
    Molecular point group: c1

    Geometry (in Angstrom), charge = 0, multiplicity = 1:

       Center              X                  Y                   Z               Mass
    ------------   -----------------  -----------------  -----------------  -----------------
         O            1.399327762602    -0.354657167664    -0.933144118254    15.994914619570
         O            3.200098762602     1.896216232336    -0.300565918254    15.994914619570
         O            2.797448762602    -2.753943767664    -0.401253918254    15.994914619570
         O           -1.364144237398     2.369008232336     0.153730081746    15.994914619570
         N           -0.813238437398     0.240786432336    -0.212950618254    14.003074004430
         N           -3.056130237398     0.800242232336     0.238959081746    14.003074004430
         N           -4.675368237398    -0.817431767664     0.411584081746    14.003074004430
         C            2.699636762602     0.870557232336     0.558421081746    12.000000000000
         C            1.234885762602     1.102229232336     0.886799081746    12.000000000000
         C            2.649860762602    -0.397287767664    -0.286522918254    12.000000000000
         C            0.571999762602     0.678007232336    -0.415968918254    12.000000000000
         C            2.800139762602    -1.665012767664     0.521417081746    12.000000000000
         C           -1.129295237398    -1.120815767664    -0.309328918254    12.000000000000
         C           -1.746646237398     1.198895232336     0.080992081746    12.000000000000
         C           -2.419265237398    -1.509557767664    -0.105594918254    12.000000000000
         C           -3.363950237398    -0.478156767664     0.167458081746    12.000000000000
         H            3.332422762602     0.751788232336     1.449800081746     1.007825032230
         H            0.902748762602     0.438832232336     1.692436081746     1.007825032230
         H            0.983370762602     2.129070232336     1.157094081746     1.007825032230
         H            0.525495762602     1.508257232336    -1.125965918254     1.007825032230
         H            3.415533762602    -0.369279767664    -1.067678918254     1.007825032230
         H            1.968790762602    -1.738180767664     1.242170081746     1.007825032230
         H            3.744130762602    -1.614511767664     1.087236081746     1.007825032230
         H            3.101892762602     2.741327232336     0.176930081746     1.007825032230
         H           -0.312698237398    -1.794197767664    -0.544750918254     1.007825032230
         H            2.908071762602    -3.570068767664     0.118159081746     1.007825032230
         H           -2.705426237398    -2.554080767664    -0.154302918254     1.007825032230
         H           -5.030669237398    -1.642738767664    -0.057771918254     1.007825032230
         H           -5.301429237398    -0.018794767664     0.385048081746     1.007825032230

  Basis Set: AUG-CC-PVTZ
    Blend: AUG-CC-PVTZ
  Basis Set: (AUG-CC-PVTZ AUX)
    Blend: AUG-CC-PVTZ-JKFIT
	 Reference Energy          =    -811.4765362209395789 [Eh]
	 Singles Energy            =      -0.0000000000000000 [Eh]
	 Same-Spin Energy          =      -0.8291568964500146 [Eh]
	 Opposite-Spin Energy      =      -2.5242513639917838 [Eh]
	 Correlation Energy        =      -3.3534082604417983 [Eh]
	 Total Energy              =    -814.8299444813814034 [Eh]

	 ================> DF-SCS-MP2 Energies <==================
	-----------------------------------------------------------
	 SCS Same-Spin Scale       =       0.3333333333333333 [-]
	 SCS Opposite-Spin Scale   =       1.2000000000000000 [-]
	 SCS Same-Spin Energy      =      -0.2763856321500048 [Eh]
	 SCS Opposite-Spin Energy  =      -3.0291016367901404 [Eh]
	 SCS Correlation Energy    =      -3.3054872689401451 [Eh]
	 SCS Total Energy          =    -814.7820234898797480 [Eh]
	-----------------------------------------------------------

  Dipole Moment: [D]
     X:     0.7940      Y:    -4.9781      Z:     2.4417     Total:     5.6012

*** Psi4 exiting successfully. Buy a developer a beer!
