                               Psi4 1.3.2 release

  ==> Input File <==

--------------------------------------------------------------------------
#psi4
#
memory 32 gb

molecule  {
0 1
  O        1.3620710    -0.3800110    -0.9318440
  O        3.2465413     1.8787031    -0.2990262
  O        2.7994070    -2.7489470    -0.4002010
  O       -1.3621860     2.3740050     0.1547830
  N       -0.7982440     0.1994180    -0.2292560
  N       -3.0541720     0.8052390     0.2400120
  N       -4.6734100    -0.8124350     0.4126370
  C        2.7015950     0.8755540     0.5594740
  C        1.2374656     1.0632105     0.9173981
  C        2.6518190    -0.3922910    -0.2854700
  C        0.5739580     0.6830040    -0.4149160
  C        2.8020980    -1.6600160     0.5224700
  C       -1.1273370    -1.1158190    -0.3082760
  C       -1.7446880     1.2038920     0.0820450
  C       -2.4173070    -1.5045610    -0.1045420
  C       -3.3619920    -0.4731600     0.1685110
  H        3.3343810     0.7567850     1.4508530
  H        0.9047070     0.4438290     1.6934890
  H        0.9853290     2.1340670     1.1581470
  H        0.5274540     1.5132540    -1.1249130
  H        3.4174920    -0.3642830    -1.0666260
  H        1.9707490    -1.7331840     1.2432230
  H        3.7460890    -1.6095150     1.0882890
  H        3.1038510     2.7463240     0.1779830
  H       -0.3107400    -1.7892010    -0.5436980
  H        2.9100300    -3.5650720     0.1192120
  H       -2.7034680    -2.5490840    -0.1532500
  H       -5.0287110    -1.6377420    -0.0567190
  H       -5.2994710    -0.0137980     0.3861010
units angstrom
no_reorient  #important for SAPT in psi4, default
symmetry c1  #important for SAPT in psi4, default
}

set PROPERTIES_ORIGIN ["COM"]
properties('MP2/aug-cc-pvtz', properties = ['dipole'])
--------------------------------------------------------------------------

    Molecular point group: c1
  Charge       = 0
  Multiplicity = 1
  Basis Set: AUG-CC-PVTZ
    Blend: AUG-CC-PVTZ
  Basis Set: (AUG-CC-PVTZ AUX)
    Blend: AUG-CC-PVTZ-JKFIT

    Orbital Energies [Eh]
    ---------------------

    Doubly Occupied:

       1A    -20.579046     2A    -20.577241     3A    -20.572089
       4A    -20.503269     5A    -15.621896     6A    -15.588600
       7A    -15.541092     8A    -11.370167     9A    -11.345311
      10A    -11.332188    11A    -11.318493    12A    -11.300160
      13A    -11.296227    14A    -11.291601    15A    -11.237652
      16A    -11.237317    17A     -1.416169    18A     -1.382223
      19A     -1.371984    20A     -1.363848    21A     -1.292487
      22A     -1.261687    23A     -1.169353    24A     -1.078886
      25A     -1.068836    26A     -1.026946    27A     -0.926028
      28A     -0.897693    29A     -0.868780    30A     -0.832001
      31A     -0.805113    32A     -0.754711    33A     -0.738402
      34A     -0.719704    35A     -0.704929    36A     -0.690785
      37A     -0.688120    38A     -0.676679    39A     -0.656367
      40A     -0.638601    41A     -0.630241    42A     -0.619325
      43A     -0.604097    44A     -0.595085    45A     -0.587521
      46A     -0.572565    47A     -0.568566    48A     -0.544396
      49A     -0.535991    50A     -0.518662    51A     -0.512842
      52A     -0.484069    53A     -0.481764    54A     -0.468909
      55A     -0.460863    56A     -0.444362    57A     -0.437610
      58A     -0.416542    59A     -0.383966    60A     -0.335049

  @DF-RHF Final Energy:  -811.47306145184007

   => Energetics <=

    Nuclear Repulsion Energy =           1169.3652597243124092
    One-Electron Energy =               -3433.7864287430907098
    Two-Electron Energy =                1452.9481075669384609
    Total Energy =                       -811.4730614518400671
  Basis Set: (AUG-CC-PVTZ AUX)
    Blend: AUG-CC-PVTZ-RI
    Molecular point group: c1

    Geometry (in Angstrom), charge = 0, multiplicity = 1:

       Center              X                  Y                   Z               Mass
    ------------   -----------------  -----------------  -----------------  -----------------
         O            1.358904927184    -0.376099691071    -0.933439538268    15.994914619570
         O            3.243375227184     1.882614408929    -0.300621738268    15.994914619570
         O            2.796240927184    -2.745035691071    -0.401796538268    15.994914619570
         O           -1.365352072816     2.377916308929     0.153187461732    15.994914619570
         N           -0.801410072816     0.203329308929    -0.230851538268    14.003074004430
         N           -3.057338072816     0.809150308929     0.238416461732    14.003074004430
         N           -4.676576072816    -0.808523691071     0.411041461732    14.003074004430
         C            2.698428927184     0.879465308929     0.557878461732    12.000000000000
         C            1.234299527184     1.067121808929     0.915802561732    12.000000000000
         C            2.648652927184    -0.388379691071    -0.287065538268    12.000000000000
         C            0.570791927184     0.686915308929    -0.416511538268    12.000000000000
         C            2.798931927184    -1.656104691071     0.520874461732    12.000000000000
         C           -1.130503072816    -1.111907691071    -0.309871538268    12.000000000000
         C           -1.747854072816     1.207803308929     0.080449461732    12.000000000000
         C           -2.420473072816    -1.500649691071    -0.106137538268    12.000000000000
         C           -3.365158072816    -0.469248691071     0.166915461732    12.000000000000
         H            3.331214927184     0.760696308929     1.449257461732     1.007825032230
         H            0.901540927184     0.447740308929     1.691893461732     1.007825032230
         H            0.982162927184     2.137978308929     1.156551461732     1.007825032230
         H            0.524287927184     1.517165308929    -1.126508538268     1.007825032230
         H            3.414325927184    -0.360371691071    -1.068221538268     1.007825032230
         H            1.967582927184    -1.729272691071     1.241627461732     1.007825032230
         H            3.742922927184    -1.605603691071     1.086693461732     1.007825032230
         H            3.100684927184     2.750235308929     0.176387461732     1.007825032230
         H           -0.313906072816    -1.785289691071    -0.545293538268     1.007825032230
         H            2.906863927184    -3.561160691071     0.117616461732     1.007825032230
         H           -2.706634072816    -2.545172691071    -0.154845538268     1.007825032230
         H           -5.031877072816    -1.633830691071    -0.058314538268     1.007825032230
         H           -5.302637072816    -0.009886691071     0.384505461732     1.007825032230

  Basis Set: AUG-CC-PVTZ
    Blend: AUG-CC-PVTZ
  Basis Set: (AUG-CC-PVTZ AUX)
    Blend: AUG-CC-PVTZ-JKFIT
	 Reference Energy          =    -811.4730614518400671 [Eh]
	 Singles Energy            =      -0.0000000000000000 [Eh]
	 Same-Spin Energy          =      -0.8301553671190565 [Eh]
	 Opposite-Spin Energy      =      -2.5263884183574064 [Eh]
	 Correlation Energy        =      -3.3565437854764628 [Eh]
	 Total Energy              =    -814.8296052373165139 [Eh]

	 ================> DF-SCS-MP2 Energies <==================
	-----------------------------------------------------------
	 SCS Same-Spin Scale       =       0.3333333333333333 [-]
	 SCS Opposite-Spin Scale   =       1.2000000000000000 [-]
	 SCS Same-Spin Energy      =      -0.2767184557063521 [Eh]
	 SCS Opposite-Spin Energy  =      -3.0316661020288875 [Eh]
	 SCS Correlation Energy    =      -3.3083845577352395 [Eh]
	 SCS Total Energy          =    -814.7814460095753475 [Eh]
	-----------------------------------------------------------

  Dipole Moment: [D]
     X:     0.9558      Y:    -4.6498      Z:     2.4668     Total:     5.3496

*** Psi4 exiting successfully. Buy a developer a beer!
