                               Psi4 1.3.2 release

  ==> Input File <==

--------------------------------------------------------------------------
#psi4
#
memory 32 gb

molecule  {
0 1
  O        1.3620710    -0.3800110    -0.9318440
  O        3.2020570     1.9012130    -0.2995130
  O        2.7994070    -2.7489470    -0.4002010
  O       -1.3621860     2.3740050     0.1547830
  N       -0.7982440     0.1994180    -0.2292560
  N       -3.0541720     0.8052390     0.2400120
  N       -4.6734100    -0.8124350     0.4126370
  C        2.7015950     0.8755540     0.5594740
  C        1.2368440     1.1072260     0.8878520
  C        2.6518190    -0.3922910    -0.2854700
  C        0.5739580     0.6830040    -0.4149160
  C        2.8020980    -1.6600160     0.5224700
  C       -1.1273370    -1.1158190    -0.3082760
  C       -1.7446880     1.2038920     0.0820450
  C       -2.4173070    -1.5045610    -0.1045420
  C       -3.3619920    -0.4731600     0.1685110
  H        3.3343810     0.7567850     1.4508530
  H        0.9047070     0.4438290     1.6934890
  H        0.9853290     2.1340670     1.1581470
  H        0.5274540     1.5132540    -1.1249130
  H        3.4174920    -0.3642830    -1.0666260
  H        1.9707490    -1.7331840     1.2432230
  H        3.7460890    -1.6095150     1.0882890
  H        3.1038510     2.7463240     0.1779830
  H       -0.3860513    -1.7270978    -0.5219860
  H        2.9100300    -3.5650720     0.1192120
  H       -2.7034680    -2.5490840    -0.1532500
  H       -5.0287110    -1.6377420    -0.0567190
  H       -5.2994710    -0.0137980     0.3861010
units angstrom
no_reorient  #important for SAPT in psi4, default
symmetry c1  #important for SAPT in psi4, default
}

set PROPERTIES_ORIGIN ["COM"]
properties('MP2/aug-cc-pvtz', properties = ['dipole'])
--------------------------------------------------------------------------

    Molecular point group: c1
  Charge       = 0
  Multiplicity = 1
  Basis Set: AUG-CC-PVTZ
    Blend: AUG-CC-PVTZ
  Basis Set: (AUG-CC-PVTZ AUX)
    Blend: AUG-CC-PVTZ-JKFIT

    Orbital Energies [Eh]
    ---------------------

    Doubly Occupied:

       1A    -20.577196     2A    -20.574256     3A    -20.572805
       4A    -20.502961     5A    -15.621419     6A    -15.588543
       7A    -15.541121     8A    -11.369736     9A    -11.345203
      10A    -11.330655    11A    -11.308831    12A    -11.300745
      13A    -11.296577    14A    -11.292880    15A    -11.237472
      16A    -11.236746    17A     -1.416540    18A     -1.382367
      19A     -1.373197    20A     -1.365476    21A     -1.292575
      22A     -1.262032    23A     -1.169404    24A     -1.080503
      25A     -1.069899    26A     -1.028136    27A     -0.927777
      28A     -0.906038    29A     -0.869147    30A     -0.831289
      31A     -0.807181    32A     -0.754444    33A     -0.743701
      34A     -0.721328    35A     -0.711823    36A     -0.693353
      37A     -0.689165    38A     -0.678989    39A     -0.658837
      40A     -0.637114    41A     -0.627686    42A     -0.620296
      43A     -0.606626    44A     -0.598724    45A     -0.590022
      46A     -0.572888    47A     -0.568592    48A     -0.544734
      49A     -0.532668    50A     -0.523727    51A     -0.510438
      52A     -0.485919    53A     -0.482186    54A     -0.468130
      55A     -0.461158    56A     -0.444587    57A     -0.438183
      58A     -0.416588    59A     -0.383837    60A     -0.335153

  @DF-RHF Final Energy:  -811.47361711767348

   => Energetics <=

    Nuclear Repulsion Energy =           1170.4172689215129139
    One-Electron Energy =               -3435.8225707726364817
    Two-Electron Energy =                1453.9316847334500835
    Total Energy =                       -811.4736171176734842
  Basis Set: (AUG-CC-PVTZ AUX)
    Blend: AUG-CC-PVTZ-RI
    Molecular point group: c1

    Geometry (in Angstrom), charge = 0, multiplicity = 1:

       Center              X                  Y                   Z               Mass
    ------------   -----------------  -----------------  -----------------  -----------------
         O            1.362405214615    -0.380286650211    -0.931940323336    15.994914619570
         O            3.202391214615     1.900937349789    -0.299609323336    15.994914619570
         O            2.799741214615    -2.749222650211    -0.400297323336    15.994914619570
         O           -1.361851785385     2.373729349789     0.154686676664    15.994914619570
         N           -0.797909785385     0.199142349789    -0.229352323336    14.003074004430
         N           -3.053837785385     0.804963349789     0.239915676664    14.003074004430
         N           -4.673075785385    -0.812710650211     0.412540676664    14.003074004430
         C            2.701929214615     0.875278349789     0.559377676664    12.000000000000
         C            1.237178214615     1.106950349789     0.887755676664    12.000000000000
         C            2.652153214615    -0.392566650211    -0.285566323336    12.000000000000
         C            0.574292214615     0.682728349789    -0.415012323336    12.000000000000
         C            2.802432214615    -1.660291650211     0.522373676664    12.000000000000
         C           -1.127002785385    -1.116094650211    -0.308372323336    12.000000000000
         C           -1.744353785385     1.203616349789     0.081948676664    12.000000000000
         C           -2.416972785385    -1.504836650211    -0.104638323336    12.000000000000
         C           -3.361657785385    -0.473435650211     0.168414676664    12.000000000000
         H            3.334715214615     0.756509349789     1.450756676664     1.007825032230
         H            0.905041214615     0.443553349789     1.693392676664     1.007825032230
         H            0.985663214615     2.133791349789     1.158050676664     1.007825032230
         H            0.527788214615     1.512978349789    -1.125009323336     1.007825032230
         H            3.417826214615    -0.364558650211    -1.066722323336     1.007825032230
         H            1.971083214615    -1.733459650211     1.243126676664     1.007825032230
         H            3.746423214615    -1.609790650211     1.088192676664     1.007825032230
         H            3.104185214615     2.746048349789     0.177886676664     1.007825032230
         H           -0.385717085385    -1.727373450211    -0.522082323336     1.007825032230
         H            2.910364214615    -3.565347650211     0.119115676664     1.007825032230
         H           -2.703133785385    -2.549359650211    -0.153346323336     1.007825032230
         H           -5.028376785385    -1.638017650211    -0.056815323336     1.007825032230
         H           -5.299136785385    -0.014073650211     0.386004676664     1.007825032230

  Basis Set: AUG-CC-PVTZ
    Blend: AUG-CC-PVTZ
  Basis Set: (AUG-CC-PVTZ AUX)
    Blend: AUG-CC-PVTZ-JKFIT
	 Reference Energy          =    -811.4736171176734842 [Eh]
	 Singles Energy            =      -0.0000000000000000 [Eh]
	 Same-Spin Energy          =      -0.8292304538349664 [Eh]
	 Opposite-Spin Energy      =      -2.5244470088784476 [Eh]
	 Correlation Energy        =      -3.3536774627134140 [Eh]
	 Total Energy              =    -814.8272945803869334 [Eh]

	 ================> DF-SCS-MP2 Energies <==================
	-----------------------------------------------------------
	 SCS Same-Spin Scale       =       0.3333333333333333 [-]
	 SCS Opposite-Spin Scale   =       1.2000000000000000 [-]
	 SCS Same-Spin Energy      =      -0.2764101512783221 [Eh]
	 SCS Opposite-Spin Energy  =      -3.0293364106541372 [Eh]
	 SCS Correlation Energy    =      -3.3057465619324593 [Eh]
	 SCS Total Energy          =    -814.7793636796059218 [Eh]
	-----------------------------------------------------------

  Dipole Moment: [D]
     X:     1.0222      Y:    -4.6721      Z:     2.4983     Total:     5.3958

*** Psi4 exiting successfully. Buy a developer a beer!
