                               Psi4 1.3.2 release

  ==> Input File <==

--------------------------------------------------------------------------
#psi4
#
memory 32 gb

molecule  {
0 1
  O        1.3620710    -0.3800110    -0.9318440
  O        3.2020570     1.9012130    -0.2995130
  O        2.7994070    -2.7489470    -0.4002010
  O       -1.3621860     2.3740050     0.1547830
  N       -0.7982440     0.1994180    -0.2292560
  N       -3.0541720     0.8052390     0.2400120
  N       -4.6734100    -0.8124350     0.4126370
  C        2.7015950     0.8755540     0.5594740
  C        1.2368440     1.1072260     0.8878520
  C        2.6583526    -0.4122395    -0.2993762
  C        0.5554756     0.6763752    -0.4300576
  C        2.8020980    -1.6600160     0.5224700
  C       -1.1273370    -1.1158190    -0.3082760
  C       -1.7446880     1.2038920     0.0820450
  C       -2.4173070    -1.5045610    -0.1045420
  C       -3.3619920    -0.4731600     0.1685110
  H        3.3343810     0.7567850     1.4508530
  H        0.9047070     0.4438290     1.6934890
  H        0.9853290     2.1340670     1.1581470
  H        0.5274540     1.5132540    -1.1249130
  H        3.4174920    -0.3642830    -1.0666260
  H        1.9707490    -1.7331840     1.2432230
  H        3.7460890    -1.6095150     1.0882890
  H        3.1038510     2.7463240     0.1779830
  H       -0.3107400    -1.7892010    -0.5436980
  H        2.9100300    -3.5650720     0.1192120
  H       -2.7034680    -2.5490840    -0.1532500
  H       -5.0287110    -1.6377420    -0.0567190
  H       -5.2994710    -0.0137980     0.3861010
units angstrom
no_reorient  #important for SAPT in psi4, default
symmetry c1  #important for SAPT in psi4, default
}

set PROPERTIES_ORIGIN ["COM"]
properties('MP2/aug-cc-pvtz', properties = ['dipole'])
--------------------------------------------------------------------------

    Molecular point group: c1
  Charge       = 0
  Multiplicity = 1
  Basis Set: AUG-CC-PVTZ
    Blend: AUG-CC-PVTZ
  Basis Set: (AUG-CC-PVTZ AUX)
    Blend: AUG-CC-PVTZ-JKFIT

    Orbital Energies [Eh]
    ---------------------

    Doubly Occupied:

       1A    -20.577245     2A    -20.573098     3A    -20.571048
       4A    -20.503847     5A    -15.622898     6A    -15.588910
       7A    -15.541556     8A    -11.370870     9A    -11.345714
      10A    -11.330051    11A    -11.319036    12A    -11.300208
      13A    -11.296200    14A    -11.292609    15A    -11.237798
      16A    -11.235857    17A     -1.415004    18A     -1.383110
      19A     -1.372999    20A     -1.364691    21A     -1.293326
      22A     -1.263662    23A     -1.170196    24A     -1.076354
      25A     -1.067096    26A     -1.026865    27A     -0.927516
      28A     -0.898458    29A     -0.868465    30A     -0.830485
      31A     -0.806968    32A     -0.755507    33A     -0.738810
      34A     -0.720080    35A     -0.706603    36A     -0.692917
      37A     -0.688008    38A     -0.676826    39A     -0.657517
      40A     -0.636729    41A     -0.627617    42A     -0.618973
      43A     -0.605551    44A     -0.595638    45A     -0.588895
      46A     -0.573628    47A     -0.569980    48A     -0.544548
      49A     -0.531722    50A     -0.522847    51A     -0.508902
      52A     -0.482079    53A     -0.478878    54A     -0.468028
      55A     -0.460933    56A     -0.444423    57A     -0.437919
      58A     -0.417482    59A     -0.383819    60A     -0.335319

  @DF-RHF Final Energy:  -811.47860700183048

   => Energetics <=

    Nuclear Repulsion Energy =           1169.6102183371740466
    One-Electron Energy =               -3434.2930150428273919
    Two-Electron Energy =                1453.2041897038227489
    Total Energy =                       -811.4786070018305963
  Basis Set: (AUG-CC-PVTZ AUX)
    Blend: AUG-CC-PVTZ-RI
    Molecular point group: c1

    Geometry (in Angstrom), charge = 0, multiplicity = 1:

       Center              X                  Y                   Z               Mass
    ------------   -----------------  -----------------  -----------------  -----------------
         O            1.362702386691    -0.378606630212    -0.930309011923    15.994914619570
         O            3.202688386691     1.902617369788    -0.297978011923    15.994914619570
         O            2.800038386691    -2.747542630212    -0.398666011923    15.994914619570
         O           -1.361554613309     2.375409369788     0.156317988077    15.994914619570
         N           -0.797612613309     0.200822369788    -0.227721011923    14.003074004430
         N           -3.053540613309     0.806643369788     0.241546988077    14.003074004430
         N           -4.672778613309    -0.811030630212     0.414171988077    14.003074004430
         C            2.702226386691     0.876958369788     0.561008988077    12.000000000000
         C            1.237475386691     1.108630369788     0.889386988077    12.000000000000
         C            2.658983986691    -0.410835130212    -0.297841211923    12.000000000000
         C            0.556106986691     0.677779569788    -0.428522611923    12.000000000000
         C            2.802729386691    -1.658611630212     0.524004988077    12.000000000000
         C           -1.126705613309    -1.114414630212    -0.306741011923    12.000000000000
         C           -1.744056613309     1.205296369788     0.083579988077    12.000000000000
         C           -2.416675613309    -1.503156630212    -0.103007011923    12.000000000000
         C           -3.361360613309    -0.471755630212     0.170045988077    12.000000000000
         H            3.335012386691     0.758189369788     1.452387988077     1.007825032230
         H            0.905338386691     0.445233369788     1.695023988077     1.007825032230
         H            0.985960386691     2.135471369788     1.159681988077     1.007825032230
         H            0.528085386691     1.514658369788    -1.123378011923     1.007825032230
         H            3.418123386691    -0.362878630212    -1.065091011923     1.007825032230
         H            1.971380386691    -1.731779630212     1.244757988077     1.007825032230
         H            3.746720386691    -1.608110630212     1.089823988077     1.007825032230
         H            3.104482386691     2.747728369788     0.179517988077     1.007825032230
         H           -0.310108613309    -1.787796630212    -0.542163011923     1.007825032230
         H            2.910661386691    -3.563667630212     0.120746988077     1.007825032230
         H           -2.702836613309    -2.547679630212    -0.151715011923     1.007825032230
         H           -5.028079613309    -1.636337630212    -0.055184011923     1.007825032230
         H           -5.298839613309    -0.012393630212     0.387635988077     1.007825032230

  Basis Set: AUG-CC-PVTZ
    Blend: AUG-CC-PVTZ
  Basis Set: (AUG-CC-PVTZ AUX)
    Blend: AUG-CC-PVTZ-JKFIT
	 Reference Energy          =    -811.4786070018304827 [Eh]
	 Singles Energy            =      -0.0000000000000000 [Eh]
	 Same-Spin Energy          =      -0.8294514855066315 [Eh]
	 Opposite-Spin Energy      =      -2.5248766591785379 [Eh]
	 Correlation Energy        =      -3.3543281446851694 [Eh]
	 Total Energy              =    -814.8329351465156378 [Eh]

	 ================> DF-SCS-MP2 Energies <==================
	-----------------------------------------------------------
	 SCS Same-Spin Scale       =       0.3333333333333333 [-]
	 SCS Opposite-Spin Scale   =       1.2000000000000000 [-]
	 SCS Same-Spin Energy      =      -0.2764838285022105 [Eh]
	 SCS Opposite-Spin Energy  =      -3.0298519910142452 [Eh]
	 SCS Correlation Energy    =      -3.3063358195164558 [Eh]
	 SCS Total Energy          =    -814.7849428213469309 [Eh]
	-----------------------------------------------------------

  Dipole Moment: [D]
     X:     0.9911      Y:    -4.7196      Z:     2.4538     Total:     5.4109

*** Psi4 exiting successfully. Buy a developer a beer!
