                               Psi4 1.4a3.dev225

  ==> Input File <==

--------------------------------------------------------------------------
#psi4
#
memory 32 gb

molecule  {
0 1
  O       -1.4695130     0.3030610    -1.0874480
  O       -3.6436400    -1.4204040    -0.2669360
  O       -1.6911330     2.8536240     0.0000030
  O        1.1857770    -2.4961310     0.0874550
  N        0.6842480    -0.3150290    -0.3399290
  N        2.9133760    -0.9647370     0.2108410
  N        4.5636770     0.6178870     0.3785230
  C       -2.7686820    -0.6858470     0.5863090
  C       -1.3787780    -1.3118450     0.6568060
  C       -2.4925280     0.6283540    -0.1295840
  C       -0.6939390    -0.7805590    -0.6115670
  C       -2.0414120     1.7324860     0.8087370
  C        1.0545030     0.9838330    -0.4888120
  C        1.6080830    -1.3384950     0.0010630
  C        2.3487550     1.3478080    -0.2622830
  C        3.2578570     0.3046130     0.0876290
  H       -3.2188600    -0.5381750     1.5798200
  H       -0.8341690    -0.9801840     1.5464130
  H       -1.3950130    -2.4033150     0.6754970
  H       -0.6263030    -1.5384450    -1.3968420
  H       -3.3987757     0.9795057    -0.7321516
  H       -1.1849610     1.3939850     1.4098140
  H       -2.8667900     1.9743150     1.4948250
  H       -3.6905400    -2.3294490     0.0774600
  H        0.2668220     1.6750250    -0.7707300
  H       -1.4321050     3.5760960     0.5972330
  H        2.6621150     2.3809760    -0.3596430
  H        4.9550500     1.4416620    -0.0591730
  H        5.1797170    -0.1867780     0.4106900
units angstrom
no_reorient  #important for SAPT in psi4, default
symmetry c1  #important for SAPT in psi4, default
}

set PROPERTIES_ORIGIN ["COM"]
properties('MP2/aug-cc-pvtz', properties = ['dipole'])
--------------------------------------------------------------------------

    Molecular point group: c1
  Charge       = 0
  Multiplicity = 1
  Basis Set: AUG-CC-PVTZ
    Blend: AUG-CC-PVTZ
  Basis Set: (AUG-CC-PVTZ AUX)
    Blend: AUG-CC-PVTZ-JKFIT

    Orbital Energies [Eh]
    ---------------------

    Doubly Occupied:

       1A    -20.583517     2A    -20.574968     3A    -20.572555
       4A    -20.502008     5A    -15.619234     6A    -15.588987
       7A    -15.539926     8A    -11.368892     9A    -11.345906
      10A    -11.333444    11A    -11.314671    12A    -11.300822
      13A    -11.300231    14A    -11.299613    15A    -11.237509
      16A    -11.235414    17A     -1.419056    18A     -1.381706
      19A     -1.377534    20A     -1.366141    21A     -1.290355
      22A     -1.258725    23A     -1.168567    24A     -1.076338
      25A     -1.067228    26A     -1.023923    27A     -0.930222
      28A     -0.894837    29A     -0.867708    30A     -0.830398
      31A     -0.801351    32A     -0.753761    33A     -0.737910
      34A     -0.724676    35A     -0.707327    36A     -0.700082
      37A     -0.690409    38A     -0.673273    39A     -0.651262
      40A     -0.642193    41A     -0.622644    42A     -0.617840
      43A     -0.606833    44A     -0.595098    45A     -0.587697
      46A     -0.572633    47A     -0.562475    48A     -0.550361
      49A     -0.526638    50A     -0.520768    51A     -0.510364
      52A     -0.484097    53A     -0.480817    54A     -0.471901
      55A     -0.459296    56A     -0.447965    57A     -0.440852
      58A     -0.413690    59A     -0.382516    60A     -0.334031

  @DF-RHF Final Energy:  -811.47683727111473

   => Energetics <=

    Nuclear Repulsion Energy =           1184.8252013582477957
    One-Electron Energy =               -3464.7216967216954799
    Two-Electron Energy =                1468.4196580923330657
    Total Energy =                       -811.4768372711146185
  Basis Set: (AUG-CC-PVTZ AUX)
    Blend: AUG-CC-PVTZ-RI
    Molecular point group: c1

    Geometry (in Angstrom), charge = 0, multiplicity = 1:

       Center              X                  Y                   Z               Mass
    ------------   -----------------  -----------------  -----------------  -----------------
         O           -1.493796399547     0.326708269597    -1.067703788275    15.994914619570
         O           -3.667923399547    -1.396756730403    -0.247191788275    15.994914619570
         O           -1.715416399547     2.877271269597     0.019747211725    15.994914619570
         O            1.161493600453    -2.472483730403     0.107199211725    15.994914619570
         N            0.659964600453    -0.291381730403    -0.320184788275    14.003074004430
         N            2.889092600453    -0.941089730403     0.230585211725    14.003074004430
         N            4.539393600453     0.641534269597     0.398267211725    14.003074004430
         C           -2.792965399547    -0.662199730403     0.606053211725    12.000000000000
         C           -1.403061399547    -1.288197730403     0.676550211725    12.000000000000
         C           -2.516811399547     0.652001269597    -0.109839788275    12.000000000000
         C           -0.718222399547    -0.756911730403    -0.591822788275    12.000000000000
         C           -2.065695399547     1.756133269597     0.828481211725    12.000000000000
         C            1.030219600453     1.007480269597    -0.469067788275    12.000000000000
         C            1.583799600453    -1.314847730403     0.020807211725    12.000000000000
         C            2.324471600453     1.371455269597    -0.242538788275    12.000000000000
         C            3.233573600453     0.328260269597     0.107373211725    12.000000000000
         H           -3.243143399547    -0.514527730403     1.599564211725     1.007825032230
         H           -0.858452399547    -0.956536730403     1.566157211725     1.007825032230
         H           -1.419296399547    -2.379667730403     0.695241211725     1.007825032230
         H           -0.650586399547    -1.514797730403    -1.377097788275     1.007825032230
         H           -3.423059099547     1.003152969597    -0.712407388275     1.007825032230
         H           -1.209244399547     1.417632269597     1.429558211725     1.007825032230
         H           -2.891073399547     1.997962269597     1.514569211725     1.007825032230
         H           -3.714823399547    -2.305801730403     0.097204211725     1.007825032230
         H            0.242538600453     1.698672269597    -0.750985788275     1.007825032230
         H           -1.456388399547     3.599743269597     0.616977211725     1.007825032230
         H            2.637831600453     2.404623269597    -0.339898788275     1.007825032230
         H            4.930766600453     1.465309269597    -0.039428788275     1.007825032230
         H            5.155433600453    -0.163130730403     0.430434211725     1.007825032230

  Basis Set: AUG-CC-PVTZ
    Blend: AUG-CC-PVTZ
  Basis Set: (AUG-CC-PVTZ AUX)
    Blend: AUG-CC-PVTZ-JKFIT
	 Reference Energy          =    -811.4768372711147322 [Eh]
	 Singles Energy            =      -0.0000000000000000 [Eh]
	 Same-Spin Energy          =      -0.8309335894631116 [Eh]
	 Opposite-Spin Energy      =      -2.5275032904869583 [Eh]
	 Correlation Energy        =      -3.3584368799500699 [Eh]
	 Total Energy              =    -814.8352741510648229 [Eh]

	 ================> DF-SCS-MP2 Energies <==================
	-----------------------------------------------------------
	 SCS Same-Spin Scale       =       0.3333333333333333 [-]
	 SCS Opposite-Spin Scale   =       1.2000000000000000 [-]
	 SCS Same-Spin Energy      =      -0.2769778631543705 [Eh]
	 SCS Opposite-Spin Energy  =      -3.0330039485843501 [Eh]
	 SCS Correlation Energy    =      -3.3099818117387207 [Eh]
	 SCS Total Energy          =    -814.7868190828534125 [Eh]
	-----------------------------------------------------------

  Dipole Moment: [D]
     X:    -0.3088      Y:     4.5912      Z:     2.4082     Total:     5.1936

*** Psi4 exiting successfully. Buy a developer a beer!
