                               Psi4 1.3.2 release

  ==> Input File <==

--------------------------------------------------------------------------
#psi4
#
memory 32 gb

molecule  {
0 1
  O        1.3620710    -0.3800110    -0.9318440
  O        3.2020570     1.9012130    -0.2995130
  O        2.7994070    -2.7489470    -0.4002010
  O       -1.3621860     2.3740050     0.1547830
  N       -0.7982440     0.1994180    -0.2292560
  N       -3.0541720     0.8052390     0.2400120
  N       -4.6734100    -0.8124350     0.4126370
  C        2.7015950     0.8755540     0.5594740
  C        1.2368440     1.1072260     0.8878520
  C        2.6518190    -0.3922910    -0.2854700
  C        0.5739580     0.6830040    -0.4149160
  C        2.8020980    -1.6600160     0.5224700
  C       -1.1273370    -1.1158190    -0.3082760
  C       -1.7757052     1.1090071     0.0761466
  C       -2.4173070    -1.5045610    -0.1045420
  C       -3.3619920    -0.4731600     0.1685110
  H        3.3343810     0.7567850     1.4508530
  H        0.9047070     0.4438290     1.6934890
  H        0.9853290     2.1340670     1.1581470
  H        0.5274540     1.5132540    -1.1249130
  H        3.4174920    -0.3642830    -1.0666260
  H        1.9707490    -1.7331840     1.2432230
  H        3.7460890    -1.6095150     1.0882890
  H        3.1038510     2.7463240     0.1779830
  H       -0.3107400    -1.7892010    -0.5436980
  H        2.9100300    -3.5650720     0.1192120
  H       -2.7034680    -2.5490840    -0.1532500
  H       -5.0287110    -1.6377420    -0.0567190
  H       -5.2994710    -0.0137980     0.3861010
units angstrom
no_reorient  #important for SAPT in psi4, default
symmetry c1  #important for SAPT in psi4, default
}

set PROPERTIES_ORIGIN ["COM"]
properties('MP2/aug-cc-pvtz', properties = ['dipole'])
--------------------------------------------------------------------------

    Molecular point group: c1
  Charge       = 0
  Multiplicity = 1
  Basis Set: AUG-CC-PVTZ
    Blend: AUG-CC-PVTZ
  Basis Set: (AUG-CC-PVTZ AUX)
    Blend: AUG-CC-PVTZ-JKFIT

    Orbital Energies [Eh]
    ---------------------

    Doubly Occupied:

       1A    -20.578765     2A    -20.574624     3A    -20.573314
       4A    -20.475514     5A    -15.632094     6A    -15.595953
       7A    -15.549938     8A    -11.364176     9A    -11.353923
      10A    -11.333430    11A    -11.324726    12A    -11.300224
      13A    -11.297724    14A    -11.293810    15A    -11.246333
      16A    -11.235589    17A     -1.418241    18A     -1.374872
      19A     -1.373295    20A     -1.359136    21A     -1.281376
      22A     -1.247560    23A     -1.185431    24A     -1.080997
      25A     -1.071594    26A     -1.032414    27A     -0.930961
      28A     -0.908289    29A     -0.875723    30A     -0.836681
      31A     -0.807936    32A     -0.764569    33A     -0.743158
      34A     -0.722122    35A     -0.710235    36A     -0.694047
      37A     -0.689676    38A     -0.678835    39A     -0.661013
      40A     -0.640962    41A     -0.631952    42A     -0.618525
      43A     -0.602752    44A     -0.597921    45A     -0.582487
      46A     -0.570892    47A     -0.552559    48A     -0.542578
      49A     -0.533970    50A     -0.522676    51A     -0.507164
      52A     -0.485802    53A     -0.469690    54A     -0.465931
      55A     -0.458721    56A     -0.442459    57A     -0.441518
      58A     -0.402828    59A     -0.386103    60A     -0.336275

  @DF-RHF Final Energy:  -811.46043704326905

   => Energetics <=

    Nuclear Repulsion Energy =           1170.4994979430589410
    One-Electron Energy =               -3435.9757331303080718
    Two-Electron Energy =                1454.0157981439801915
    Total Energy =                       -811.4604370432689393
  Basis Set: (AUG-CC-PVTZ AUX)
    Blend: AUG-CC-PVTZ-RI
    Molecular point group: c1

    Geometry (in Angstrom), charge = 0, multiplicity = 1:

       Center              X                  Y                   Z               Mass
    ------------   -----------------  -----------------  -----------------  -----------------
         O            1.363710005650    -0.374997096490    -0.931532280490    15.994914619570
         O            3.203696005650     1.906226903510    -0.299201280490    15.994914619570
         O            2.801046005650    -2.743933096490    -0.399889280490    15.994914619570
         O           -1.360546994350     2.379018903510     0.155094719510    15.994914619570
         N           -0.796604994350     0.204431903510    -0.228944280490    14.003074004430
         N           -3.052532994350     0.810252903510     0.240323719510    14.003074004430
         N           -4.671770994350    -0.807421096490     0.412948719510    14.003074004430
         C            2.703234005650     0.880567903510     0.559785719510    12.000000000000
         C            1.238483005650     1.112239903510     0.888163719510    12.000000000000
         C            2.653458005650    -0.387277096490    -0.285158280490    12.000000000000
         C            0.575597005650     0.688017903510    -0.414604280490    12.000000000000
         C            2.803737005650    -1.655002096490     0.522781719510    12.000000000000
         C           -1.125697994350    -1.110805096490    -0.307964280490    12.000000000000
         C           -1.774066194350     1.114021003510     0.076458319510    12.000000000000
         C           -2.415667994350    -1.499547096490    -0.104230280490    12.000000000000
         C           -3.360352994350    -0.468146096490     0.168822719510    12.000000000000
         H            3.336020005650     0.761798903510     1.451164719510     1.007825032230
         H            0.906346005650     0.448842903510     1.693800719510     1.007825032230
         H            0.986968005650     2.139080903510     1.158458719510     1.007825032230
         H            0.529093005650     1.518267903510    -1.124601280490     1.007825032230
         H            3.419131005650    -0.359269096490    -1.066314280490     1.007825032230
         H            1.972388005650    -1.728170096490     1.243534719510     1.007825032230
         H            3.747728005650    -1.604501096490     1.088600719510     1.007825032230
         H            3.105490005650     2.751337903510     0.178294719510     1.007825032230
         H           -0.309100994350    -1.784187096490    -0.543386280490     1.007825032230
         H            2.911669005650    -3.560058096490     0.119523719510     1.007825032230
         H           -2.701828994350    -2.544070096490    -0.152938280490     1.007825032230
         H           -5.027071994350    -1.632728096490    -0.056407280490     1.007825032230
         H           -5.297831994350    -0.008784096490     0.386412719510     1.007825032230

  Basis Set: AUG-CC-PVTZ
    Blend: AUG-CC-PVTZ
  Basis Set: (AUG-CC-PVTZ AUX)
    Blend: AUG-CC-PVTZ-JKFIT
	 Reference Energy          =    -811.4604370432690530 [Eh]
	 Singles Energy            =      -0.0000000000000000 [Eh]
	 Same-Spin Energy          =      -0.8312270310508956 [Eh]
	 Opposite-Spin Energy      =      -2.5275874061714978 [Eh]
	 Correlation Energy        =      -3.3588144372223931 [Eh]
	 Total Energy              =    -814.8192514804914026 [Eh]

	 ================> DF-SCS-MP2 Energies <==================
	-----------------------------------------------------------
	 SCS Same-Spin Scale       =       0.3333333333333333 [-]
	 SCS Opposite-Spin Scale   =       1.2000000000000000 [-]
	 SCS Same-Spin Energy      =      -0.2770756770169652 [Eh]
	 SCS Opposite-Spin Energy  =      -3.0331048874057971 [Eh]
	 SCS Correlation Energy    =      -3.3101805644227622 [Eh]
	 SCS Total Energy          =    -814.7706176076918609 [Eh]
	-----------------------------------------------------------

  Dipole Moment: [D]
     X:     0.7428      Y:    -5.6008      Z:     2.4426     Total:     6.1552

*** Psi4 exiting successfully. Buy a developer a beer!
