                               Psi4 1.3.2 release

  ==> Input File <==

--------------------------------------------------------------------------
#psi4
#
memory 32 gb

molecule  {
0 1
  O        1.3620710    -0.3800110    -0.9318440
  O        3.2020570     1.9012130    -0.2995130
  O        2.7994070    -2.7489470    -0.4002010
  O       -1.3621860     2.3740050     0.1547830
  N       -0.7982440     0.1994180    -0.2292560
  N       -3.0541720     0.8052390     0.2400120
  N       -4.6760934    -0.8008157     0.4140746
  C        2.7015950     0.8755540     0.5594740
  C        1.2368440     1.1072260     0.8878520
  C        2.6518190    -0.3922910    -0.2854700
  C        0.5739580     0.6830040    -0.4149160
  C        2.8020980    -1.6600160     0.5224700
  C       -1.1273370    -1.1158190    -0.3082760
  C       -1.7446880     1.2038920     0.0820450
  C       -2.4083744    -1.4959905    -0.1057280
  C       -3.3619920    -0.4731600     0.1685110
  H        3.3343810     0.7567850     1.4508530
  H        0.9047070     0.4438290     1.6934890
  H        0.9853290     2.1340670     1.1581470
  H        0.5274540     1.5132540    -1.1249130
  H        3.4174920    -0.3642830    -1.0666260
  H        1.9707490    -1.7331840     1.2432230
  H        3.7460890    -1.6095150     1.0882890
  H        3.1038510     2.7463240     0.1779830
  H       -0.3107400    -1.7892010    -0.5436980
  H        2.9100300    -3.5650720     0.1192120
  H       -2.7034680    -2.5490840    -0.1532500
  H       -5.0287110    -1.6377420    -0.0567190
  H       -5.2994710    -0.0137980     0.3861010
units angstrom
no_reorient  #important for SAPT in psi4, default
symmetry c1  #important for SAPT in psi4, default
}

set PROPERTIES_ORIGIN ["COM"]
properties('MP2/aug-cc-pvtz', properties = ['dipole'])
--------------------------------------------------------------------------

    Molecular point group: c1
  Charge       = 0
  Multiplicity = 1
  Basis Set: AUG-CC-PVTZ
    Blend: AUG-CC-PVTZ
  Basis Set: (AUG-CC-PVTZ AUX)
    Blend: AUG-CC-PVTZ-JKFIT

    Orbital Energies [Eh]
    ---------------------

    Doubly Occupied:

       1A    -20.577646     2A    -20.574152     3A    -20.572623
       4A    -20.502656     5A    -15.620664     6A    -15.588977
       7A    -15.540535     8A    -11.369428     9A    -11.345328
      10A    -11.330299    11A    -11.316494    12A    -11.300640
      13A    -11.296732    14A    -11.292884    15A    -11.237353
      16A    -11.236485    17A     -1.416381    18A     -1.382167
      19A     -1.373433    20A     -1.365510    21A     -1.292585
      22A     -1.261524    23A     -1.168917    24A     -1.079616
      25A     -1.069701    26A     -1.028047    27A     -0.926646
      28A     -0.897187    29A     -0.868798    30A     -0.830541
      31A     -0.806417    32A     -0.755430    33A     -0.738300
      34A     -0.720660    35A     -0.707079    36A     -0.692898
      37A     -0.688821    38A     -0.675136    39A     -0.656304
      40A     -0.635614    41A     -0.627707    42A     -0.618539
      43A     -0.604892    44A     -0.596664    45A     -0.588194
      46A     -0.572386    47A     -0.568596    48A     -0.544707
      49A     -0.532483    50A     -0.523326    51A     -0.510225
      52A     -0.485718    53A     -0.482357    54A     -0.468395
      55A     -0.461031    56A     -0.444223    57A     -0.437661
      58A     -0.415968    59A     -0.383543    60A     -0.335869

  @DF-RHF Final Energy:  -811.47923983423993

   => Energetics <=

    Nuclear Repulsion Energy =           1170.2140528918678228
    One-Electron Energy =               -3435.5004132128374295
    Two-Electron Energy =                1453.8071204867299002
    Total Energy =                       -811.4792398342399338
  Basis Set: (AUG-CC-PVTZ AUX)
    Blend: AUG-CC-PVTZ-RI
    Molecular point group: c1

    Geometry (in Angstrom), charge = 0, multiplicity = 1:

       Center              X                  Y                   Z               Mass
    ------------   -----------------  -----------------  -----------------  -----------------
         O            1.361764430890    -0.381180402542    -0.931869941394    15.994914619570
         O            3.201750430890     1.900043597458    -0.299538941394    15.994914619570
         O            2.799100430890    -2.750116402542    -0.400226941394    15.994914619570
         O           -1.362492569110     2.372835597458     0.154757058606    15.994914619570
         N           -0.798550569110     0.198248597458    -0.229281941394    14.003074004430
         N           -3.054478569110     0.804069597458     0.239986058606    14.003074004430
         N           -4.676399969110    -0.801985102542     0.414048658606    14.003074004430
         C            2.701288430890     0.874384597458     0.559448058606    12.000000000000
         C            1.236537430890     1.106056597458     0.887826058606    12.000000000000
         C            2.651512430890    -0.393460402542    -0.285495941394    12.000000000000
         C            0.573651430890     0.681834597458    -0.414941941394    12.000000000000
         C            2.801791430890    -1.661185402542     0.522444058606    12.000000000000
         C           -1.127643569110    -1.116988402542    -0.308301941394    12.000000000000
         C           -1.744994569110     1.202722597458     0.082019058606    12.000000000000
         C           -2.408680969110    -1.497159902542    -0.105753941394    12.000000000000
         C           -3.362298569110    -0.474329402542     0.168485058606    12.000000000000
         H            3.334074430890     0.755615597458     1.450827058606     1.007825032230
         H            0.904400430890     0.442659597458     1.693463058606     1.007825032230
         H            0.985022430890     2.132897597458     1.158121058606     1.007825032230
         H            0.527147430890     1.512084597458    -1.124938941394     1.007825032230
         H            3.417185430890    -0.365452402542    -1.066651941394     1.007825032230
         H            1.970442430890    -1.734353402542     1.243197058606     1.007825032230
         H            3.745782430890    -1.610684402542     1.088263058606     1.007825032230
         H            3.103544430890     2.745154597458     0.177957058606     1.007825032230
         H           -0.311046569110    -1.790370402542    -0.543723941394     1.007825032230
         H            2.909723430890    -3.566241402542     0.119186058606     1.007825032230
         H           -2.703774569110    -2.550253402542    -0.153275941394     1.007825032230
         H           -5.029017569110    -1.638911402542    -0.056744941394     1.007825032230
         H           -5.299777569110    -0.014967402542     0.386075058606     1.007825032230

  Basis Set: AUG-CC-PVTZ
    Blend: AUG-CC-PVTZ
  Basis Set: (AUG-CC-PVTZ AUX)
    Blend: AUG-CC-PVTZ-JKFIT
	 Reference Energy          =    -811.4792398342399338 [Eh]
	 Singles Energy            =      -0.0000000000000000 [Eh]
	 Same-Spin Energy          =      -0.8295885594130784 [Eh]
	 Opposite-Spin Energy      =      -2.5250172590831026 [Eh]
	 Correlation Energy        =      -3.3546058184961809 [Eh]
	 Total Energy              =    -814.8338456527361586 [Eh]

	 ================> DF-SCS-MP2 Energies <==================
	-----------------------------------------------------------
	 SCS Same-Spin Scale       =       0.3333333333333333 [-]
	 SCS Opposite-Spin Scale   =       1.2000000000000000 [-]
	 SCS Same-Spin Energy      =      -0.2765295198043595 [Eh]
	 SCS Opposite-Spin Energy  =      -3.0300207108997230 [Eh]
	 SCS Correlation Energy    =      -3.3065502307040826 [Eh]
	 SCS Total Energy          =    -814.7857900649439671 [Eh]
	-----------------------------------------------------------

  Dipole Moment: [D]
     X:     1.0477      Y:    -4.6997      Z:     2.4927     Total:     5.4220

*** Psi4 exiting successfully. Buy a developer a beer!
