                               Psi4 1.3.2 release

  ==> Input File <==

--------------------------------------------------------------------------
#psi4
#
memory 32 gb

molecule  {
0 1
  O        1.3620710    -0.3800110    -0.9318440
  O        3.2020570     1.9012130    -0.2995130
  O        2.7994070    -2.7489470    -0.4002010
  O       -1.3621860     2.3740050     0.1547830
  N       -0.7982440     0.1994180    -0.2292560
  N       -3.0541720     0.8052390     0.2400120
  N       -4.6734100    -0.8124350     0.4126370
  C        2.7015950     0.8755540     0.5594740
  C        1.2368440     1.1072260     0.8878520
  C        2.6518190    -0.3922910    -0.2854700
  C        0.5739580     0.6830040    -0.4149160
  C        2.8020980    -1.6600160     0.5224700
  C       -1.1242376    -1.1271731    -0.3099696
  C       -1.7446880     1.2038920     0.0820450
  C       -2.4173070    -1.5045610    -0.1045420
  C       -3.3619920    -0.4731600     0.1685110
  H        3.3343810     0.7567850     1.4508530
  H        0.9047070     0.4438290     1.6934890
  H        0.9853290     2.1340670     1.1581470
  H        0.5274540     1.5132540    -1.1249130
  H        3.4174920    -0.3642830    -1.0666260
  H        1.9707490    -1.7331840     1.2432230
  H        3.7460890    -1.6095150     1.0882890
  H        3.1038510     2.7463240     0.1779830
  H       -0.3107400    -1.7892010    -0.5436980
  H        2.9100300    -3.5650720     0.1192120
  H       -2.6944986    -2.5514094    -0.1551593
  H       -5.0287110    -1.6377420    -0.0567190
  H       -5.2994710    -0.0137980     0.3861010
units angstrom
no_reorient  #important for SAPT in psi4, default
symmetry c1  #important for SAPT in psi4, default
}

set PROPERTIES_ORIGIN ["COM"]
properties('MP2/aug-cc-pvtz', properties = ['dipole'])
--------------------------------------------------------------------------

    Molecular point group: c1
  Charge       = 0
  Multiplicity = 1
  Basis Set: AUG-CC-PVTZ
    Blend: AUG-CC-PVTZ
  Basis Set: (AUG-CC-PVTZ AUX)
    Blend: AUG-CC-PVTZ-JKFIT

    Orbital Energies [Eh]
    ---------------------

    Doubly Occupied:

       1A    -20.577695     2A    -20.574052     3A    -20.572533
       4A    -20.502781     5A    -15.620818     6A    -15.588864
       7A    -15.541246     8A    -11.369732     9A    -11.345888
      10A    -11.329947    11A    -11.318544    12A    -11.300524
      13A    -11.296740    14A    -11.292822    15A    -11.238091
      16A    -11.236272    17A     -1.416066    18A     -1.381741
      19A     -1.373425    20A     -1.365462    21A     -1.291499
      22A     -1.259674    23A     -1.169192    24A     -1.078813
      25A     -1.068945    26A     -1.027613    27A     -0.926245
      28A     -0.897579    29A     -0.868634    30A     -0.830288
      31A     -0.806207    32A     -0.753804    33A     -0.738060
      34A     -0.720697    35A     -0.707571    36A     -0.692674
      37A     -0.688951    38A     -0.676279    39A     -0.656400
      40A     -0.636876    41A     -0.626796    42A     -0.618967
      43A     -0.605059    44A     -0.596104    45A     -0.588914
      46A     -0.571558    47A     -0.568475    48A     -0.544682
      49A     -0.532420    50A     -0.523168    51A     -0.510203
      52A     -0.485526    53A     -0.481111    54A     -0.468338
      55A     -0.460681    56A     -0.444371    57A     -0.437772
      58A     -0.416488    59A     -0.383686    60A     -0.335495

  @DF-RHF Final Energy:  -811.47888121954747

   => Energetics <=

    Nuclear Repulsion Energy =           1169.7055510861812309
    One-Electron Energy =               -3434.4907464836765030
    Two-Electron Energy =                1453.3063141779475700
    Total Energy =                       -811.4788812195474748
  Basis Set: (AUG-CC-PVTZ AUX)
    Blend: AUG-CC-PVTZ-RI
    Molecular point group: c1

    Geometry (in Angstrom), charge = 0, multiplicity = 1:

       Center              X                  Y                   Z               Mass
    ------------   -----------------  -----------------  -----------------  -----------------
         O            1.361867398449    -0.379400739695    -0.931745998532    15.994914619570
         O            3.201853398449     1.901823260305    -0.299414998532    15.994914619570
         O            2.799203398449    -2.748336739695    -0.400102998532    15.994914619570
         O           -1.362389601551     2.374615260305     0.154881001468    15.994914619570
         N           -0.798447601551     0.200028260305    -0.229157998532    14.003074004430
         N           -3.054375601551     0.805849260305     0.240110001468    14.003074004430
         N           -4.673613601551    -0.811824739695     0.412735001468    14.003074004430
         C            2.701391398449     0.876164260305     0.559572001468    12.000000000000
         C            1.236640398449     1.107836260305     0.887950001468    12.000000000000
         C            2.651615398449    -0.391680739695    -0.285371998532    12.000000000000
         C            0.573754398449     0.683614260305    -0.414817998532    12.000000000000
         C            2.801894398449    -1.659405739695     0.522568001468    12.000000000000
         C           -1.124441201551    -1.126562839695    -0.309871598532    12.000000000000
         C           -1.744891601551     1.204502260305     0.082143001468    12.000000000000
         C           -2.417510601551    -1.503950739695    -0.104443998532    12.000000000000
         C           -3.362195601551    -0.472549739695     0.168609001468    12.000000000000
         H            3.334177398449     0.757395260305     1.450951001468     1.007825032230
         H            0.904503398449     0.444439260305     1.693587001468     1.007825032230
         H            0.985125398449     2.134677260305     1.158245001468     1.007825032230
         H            0.527250398449     1.513864260305    -1.124814998532     1.007825032230
         H            3.417288398449    -0.363672739695    -1.066527998532     1.007825032230
         H            1.970545398449    -1.732573739695     1.243321001468     1.007825032230
         H            3.745885398449    -1.608904739695     1.088387001468     1.007825032230
         H            3.103647398449     2.746934260305     0.178081001468     1.007825032230
         H           -0.310943601551    -1.788590739695    -0.543599998532     1.007825032230
         H            2.909826398449    -3.564461739695     0.119310001468     1.007825032230
         H           -2.694702201551    -2.550799139695    -0.155061298532     1.007825032230
         H           -5.028914601551    -1.637131739695    -0.056620998532     1.007825032230
         H           -5.299674601551    -0.013187739695     0.386199001468     1.007825032230

  Basis Set: AUG-CC-PVTZ
    Blend: AUG-CC-PVTZ
  Basis Set: (AUG-CC-PVTZ AUX)
    Blend: AUG-CC-PVTZ-JKFIT
	 Reference Energy          =    -811.4788812195474748 [Eh]
	 Singles Energy            =      -0.0000000000000000 [Eh]
	 Same-Spin Energy          =      -0.8296455322111707 [Eh]
	 Opposite-Spin Energy      =      -2.5253330139903292 [Eh]
	 Correlation Energy        =      -3.3549785462015000 [Eh]
	 Total Energy              =    -814.8338597657490254 [Eh]

	 ================> DF-SCS-MP2 Energies <==================
	-----------------------------------------------------------
	 SCS Same-Spin Scale       =       0.3333333333333333 [-]
	 SCS Opposite-Spin Scale   =       1.2000000000000000 [-]
	 SCS Same-Spin Energy      =      -0.2765485107370569 [Eh]
	 SCS Opposite-Spin Energy  =      -3.0303996167883951 [Eh]
	 SCS Correlation Energy    =      -3.3069481275254518 [Eh]
	 SCS Total Energy          =    -814.7858293470728768 [Eh]
	-----------------------------------------------------------

  Dipole Moment: [D]
     X:     1.0353      Y:    -4.7039      Z:     2.4902     Total:     5.4222

*** Psi4 exiting successfully. Buy a developer a beer!
