                               Psi4 1.3.2 release

  ==> Input File <==

--------------------------------------------------------------------------
#psi4
#
memory 32 gb

molecule  {
0 1
  O        1.3620710    -0.3800110    -0.9318440
  O        3.2020570     1.9012130    -0.2995130
  O        2.8095260    -2.7442254    -0.4057188
  O       -1.3621860     2.3740050     0.1547830
  N       -0.7982440     0.1994180    -0.2292560
  N       -3.0541720     0.8052390     0.2400120
  N       -4.6734100    -0.8124350     0.4126370
  C        2.7015950     0.8755540     0.5594740
  C        1.2368440     1.1072260     0.8878520
  C        2.6518190    -0.3922910    -0.2854700
  C        0.5739580     0.6830040    -0.4149160
  C        2.8020980    -1.6600160     0.5224700
  C       -1.1273370    -1.1158190    -0.3082760
  C       -1.7446880     1.2038920     0.0820450
  C       -2.4173070    -1.5045610    -0.1045420
  C       -3.3619920    -0.4731600     0.1685110
  H        3.3343810     0.7567850     1.4508530
  H        0.9047070     0.4438290     1.6934890
  H        0.9853290     2.1340670     1.1581470
  H        0.5274540     1.5132540    -1.1249130
  H        3.4174920    -0.3642830    -1.0666260
  H        1.9736940    -1.7250223     1.2473842
  H        3.7460890    -1.6095150     1.0882890
  H        3.1038510     2.7463240     0.1779830
  H       -0.3107400    -1.7892010    -0.5436980
  H        2.9100300    -3.5650720     0.1192120
  H       -2.7034680    -2.5490840    -0.1532500
  H       -5.0287110    -1.6377420    -0.0567190
  H       -5.2994710    -0.0137980     0.3861010
units angstrom
no_reorient  #important for SAPT in psi4, default
symmetry c1  #important for SAPT in psi4, default
}

set PROPERTIES_ORIGIN ["COM"]
properties('MP2/aug-cc-pvtz', properties = ['dipole'])
--------------------------------------------------------------------------

    Molecular point group: c1
  Charge       = 0
  Multiplicity = 1
  Basis Set: AUG-CC-PVTZ
    Blend: AUG-CC-PVTZ
  Basis Set: (AUG-CC-PVTZ AUX)
    Blend: AUG-CC-PVTZ-JKFIT

    Orbital Energies [Eh]
    ---------------------

    Doubly Occupied:

       1A    -20.578815     2A    -20.574245     3A    -20.572844
       4A    -20.503066     5A    -15.621756     6A    -15.588386
       7A    -15.540830     8A    -11.369917     9A    -11.345070
      10A    -11.330728    11A    -11.318347    12A    -11.300706
      13A    -11.296784    14A    -11.292804    15A    -11.237073
      16A    -11.236780    17A     -1.416612    18A     -1.382378
      19A     -1.373042    20A     -1.365418    21A     -1.292252
      22A     -1.261445    23A     -1.169135    24A     -1.078978
      25A     -1.068852    26A     -1.027832    27A     -0.926585
      28A     -0.897447    29A     -0.868916    30A     -0.830789
      31A     -0.806362    32A     -0.754256    33A     -0.738737
      34A     -0.720763    35A     -0.706663    36A     -0.691862
      37A     -0.689165    38A     -0.675798    39A     -0.656666
      40A     -0.637218    41A     -0.627594    42A     -0.618414
      43A     -0.604382    44A     -0.594773    45A     -0.588803
      46A     -0.572751    47A     -0.568658    48A     -0.545296
      49A     -0.532539    50A     -0.523680    51A     -0.510278
      52A     -0.485721    53A     -0.482082    54A     -0.468625
      55A     -0.461118    56A     -0.444434    57A     -0.437764
      58A     -0.416359    59A     -0.383760    60A     -0.334965

  @DF-RHF Final Energy:  -811.47873491433154

   => Energetics <=

    Nuclear Repulsion Energy =           1169.8964694201767998
    One-Electron Energy =               -3434.8557732051849598
    Two-Electron Energy =                1453.4805688706765068
    Total Energy =                       -811.4787349143316533
  Basis Set: (AUG-CC-PVTZ AUX)
    Blend: AUG-CC-PVTZ-RI
    Molecular point group: c1

    Geometry (in Angstrom), charge = 0, multiplicity = 1:

       Center              X                  Y                   Z               Mass
    ------------   -----------------  -----------------  -----------------  -----------------
         O            1.361345191907    -0.380379820049    -0.931473792037    15.994914619570
         O            3.201331191907     1.900844179951    -0.299142792037    15.994914619570
         O            2.808800191907    -2.744594220049    -0.405348592037    15.994914619570
         O           -1.362911808093     2.373636179951     0.155153207963    15.994914619570
         N           -0.798969808093     0.199049179951    -0.228885792037    14.003074004430
         N           -3.054897808093     0.804870179951     0.240382207963    14.003074004430
         N           -4.674135808093    -0.812803820049     0.413007207963    14.003074004430
         C            2.700869191907     0.875185179951     0.559844207963    12.000000000000
         C            1.236118191907     1.106857179951     0.888222207963    12.000000000000
         C            2.651093191907    -0.392659820049    -0.285099792037    12.000000000000
         C            0.573232191907     0.682635179951    -0.414545792037    12.000000000000
         C            2.801372191907    -1.660384820049     0.522840207963    12.000000000000
         C           -1.128062808093    -1.116187820049    -0.307905792037    12.000000000000
         C           -1.745413808093     1.203523179951     0.082415207963    12.000000000000
         C           -2.418032808093    -1.504929820049    -0.104171792037    12.000000000000
         C           -3.362717808093    -0.473528820049     0.168881207963    12.000000000000
         H            3.333655191907     0.756416179951     1.451223207963     1.007825032230
         H            0.903981191907     0.443460179951     1.693859207963     1.007825032230
         H            0.984603191907     2.133698179951     1.158517207963     1.007825032230
         H            0.526728191907     1.512885179951    -1.124542792037     1.007825032230
         H            3.416766191907    -0.364651820049    -1.066255792037     1.007825032230
         H            1.972968191907    -1.725391120049     1.247754407963     1.007825032230
         H            3.745363191907    -1.609883820049     1.088659207963     1.007825032230
         H            3.103125191907     2.745955179951     0.178353207963     1.007825032230
         H           -0.311465808093    -1.789569820049    -0.543327792037     1.007825032230
         H            2.909304191907    -3.565440820049     0.119582207963     1.007825032230
         H           -2.704193808093    -2.549452820049    -0.152879792037     1.007825032230
         H           -5.029436808093    -1.638110820049    -0.056348792037     1.007825032230
         H           -5.300196808093    -0.014166820049     0.386471207963     1.007825032230

  Basis Set: AUG-CC-PVTZ
    Blend: AUG-CC-PVTZ
  Basis Set: (AUG-CC-PVTZ AUX)
    Blend: AUG-CC-PVTZ-JKFIT
	 Reference Energy          =    -811.4787349143315396 [Eh]
	 Singles Energy            =      -0.0000000000000000 [Eh]
	 Same-Spin Energy          =      -0.8297646281219717 [Eh]
	 Opposite-Spin Energy      =      -2.5253948466216962 [Eh]
	 Correlation Energy        =      -3.3551594747436679 [Eh]
	 Total Energy              =    -814.8338943890752262 [Eh]

	 ================> DF-SCS-MP2 Energies <==================
	-----------------------------------------------------------
	 SCS Same-Spin Scale       =       0.3333333333333333 [-]
	 SCS Opposite-Spin Scale   =       1.2000000000000000 [-]
	 SCS Same-Spin Energy      =      -0.2765882093739905 [Eh]
	 SCS Opposite-Spin Energy  =      -3.0304738159460354 [Eh]
	 SCS Correlation Energy    =      -3.3070620253200258 [Eh]
	 SCS Total Energy          =    -814.7857969396516182 [Eh]
	-----------------------------------------------------------

  Dipole Moment: [D]
     X:     1.0525      Y:    -4.6895      Z:     2.4951     Total:     5.4153

*** Psi4 exiting successfully. Buy a developer a beer!
