                               Psi4 1.3.2 release

  ==> Input File <==

--------------------------------------------------------------------------
#psi4
#
memory 32 gb

molecule  {
0 1
  O        1.3620710    -0.3800110    -0.9318440
  O        3.2020570     1.9012130    -0.2995130
  O        2.7994070    -2.7489470    -0.4002010
  O       -1.3621860     2.3740050     0.1547830
  N       -0.8162948     0.1825750    -0.2288091
  N       -3.0475966     0.7825600     0.2354549
  N       -4.6734100    -0.8124350     0.4126370
  C        2.7015950     0.8755540     0.5594740
  C        1.2368440     1.1072260     0.8878520
  C        2.6518190    -0.3922910    -0.2854700
  C        0.5739580     0.6830040    -0.4149160
  C        2.8020980    -1.6600160     0.5224700
  C       -1.1273370    -1.1158190    -0.3082760
  C       -1.7446880     1.2038920     0.0820450
  C       -2.4173070    -1.5045610    -0.1045420
  C       -3.3619920    -0.4731600     0.1685110
  H        3.3343810     0.7567850     1.4508530
  H        0.9047070     0.4438290     1.6934890
  H        0.9853290     2.1340670     1.1581470
  H        0.5274540     1.5132540    -1.1249130
  H        3.4174920    -0.3642830    -1.0666260
  H        1.9707490    -1.7331840     1.2432230
  H        3.7460890    -1.6095150     1.0882890
  H        3.1038510     2.7463240     0.1779830
  H       -0.3107400    -1.7892010    -0.5436980
  H        2.9100300    -3.5650720     0.1192120
  H       -2.7034680    -2.5490840    -0.1532500
  H       -5.0287110    -1.6377420    -0.0567190
  H       -5.2994710    -0.0137980     0.3861010
units angstrom
no_reorient  #important for SAPT in psi4, default
symmetry c1  #important for SAPT in psi4, default
}

set PROPERTIES_ORIGIN ["COM"]
properties('MP2/aug-cc-pvtz', properties = ['dipole'])
--------------------------------------------------------------------------

    Molecular point group: c1
  Charge       = 0
  Multiplicity = 1
  Basis Set: AUG-CC-PVTZ
    Blend: AUG-CC-PVTZ
  Basis Set: (AUG-CC-PVTZ AUX)
    Blend: AUG-CC-PVTZ-JKFIT

    Orbital Energies [Eh]
    ---------------------

    Doubly Occupied:

       1A    -20.577950     2A    -20.575223     3A    -20.573605
       4A    -20.506928     5A    -15.621861     6A    -15.585198
       7A    -15.537453     8A    -11.372580     9A    -11.340244
      10A    -11.333256    11A    -11.314482    12A    -11.301843
      13A    -11.297211    14A    -11.293681    15A    -11.238305
      16A    -11.233057    17A     -1.416986    18A     -1.384304
      19A     -1.374047    20A     -1.366499    21A     -1.296692
      22A     -1.262948    23A     -1.170373    24A     -1.078952
      25A     -1.068009    26A     -1.028284    27A     -0.926407
      28A     -0.898570    29A     -0.871343    30A     -0.831225
      31A     -0.806464    32A     -0.753840    33A     -0.739772
      34A     -0.721540    35A     -0.706304    36A     -0.693006
      37A     -0.689610    38A     -0.675695    39A     -0.656274
      40A     -0.636833    41A     -0.629294    42A     -0.618909
      43A     -0.605848    44A     -0.594939    45A     -0.590332
      46A     -0.572407    47A     -0.569070    48A     -0.545303
      49A     -0.532766    50A     -0.524186    51A     -0.511145
      52A     -0.487086    53A     -0.484550    54A     -0.469002
      55A     -0.462401    56A     -0.446102    57A     -0.438058
      58A     -0.413705    59A     -0.385374    60A     -0.333028

  @DF-RHF Final Energy:  -811.47872418745987

   => Energetics <=

    Nuclear Repulsion Energy =           1170.4508766057895173
    One-Electron Energy =               -3435.9184801971050547
    Two-Electron Energy =                1453.9888794038554352
    Total Energy =                       -811.4787241874598749
  Basis Set: (AUG-CC-PVTZ AUX)
    Blend: AUG-CC-PVTZ-RI
    Molecular point group: c1

    Geometry (in Angstrom), charge = 0, multiplicity = 1:

       Center              X                  Y                   Z               Mass
    ------------   -----------------  -----------------  -----------------  -----------------
         O            1.362778590968    -0.377573994406    -0.931590518765    15.994914619570
         O            3.202764590968     1.903650005594    -0.299259518765    15.994914619570
         O            2.800114590968    -2.746509994406    -0.399947518765    15.994914619570
         O           -1.361478409032     2.376442005594     0.155036481235    15.994914619570
         N           -0.815587209032     0.185012005594    -0.228555618765    14.003074004430
         N           -3.046889009032     0.784997005594     0.235708381235    14.003074004430
         N           -4.672702409032    -0.809997994406     0.412890481235    14.003074004430
         C            2.702302590968     0.877991005594     0.559727481235    12.000000000000
         C            1.237551590968     1.109663005594     0.888105481235    12.000000000000
         C            2.652526590968    -0.389853994406    -0.285216518765    12.000000000000
         C            0.574665590968     0.685441005594    -0.414662518765    12.000000000000
         C            2.802805590968    -1.657578994406     0.522723481235    12.000000000000
         C           -1.126629409032    -1.113381994406    -0.308022518765    12.000000000000
         C           -1.743980409032     1.206329005594     0.082298481235    12.000000000000
         C           -2.416599409032    -1.502123994406    -0.104288518765    12.000000000000
         C           -3.361284409032    -0.470722994406     0.168764481235    12.000000000000
         H            3.335088590968     0.759222005594     1.451106481235     1.007825032230
         H            0.905414590968     0.446266005594     1.693742481235     1.007825032230
         H            0.986036590968     2.136504005594     1.158400481235     1.007825032230
         H            0.528161590968     1.515691005594    -1.124659518765     1.007825032230
         H            3.418199590968    -0.361845994406    -1.066372518765     1.007825032230
         H            1.971456590968    -1.730746994406     1.243476481235     1.007825032230
         H            3.746796590968    -1.607077994406     1.088542481235     1.007825032230
         H            3.104558590968     2.748761005594     0.178236481235     1.007825032230
         H           -0.310032409032    -1.786763994406    -0.543444518765     1.007825032230
         H            2.910737590968    -3.562634994406     0.119465481235     1.007825032230
         H           -2.702760409032    -2.546646994406    -0.152996518765     1.007825032230
         H           -5.028003409032    -1.635304994406    -0.056465518765     1.007825032230
         H           -5.298763409032    -0.011360994406     0.386354481235     1.007825032230

  Basis Set: AUG-CC-PVTZ
    Blend: AUG-CC-PVTZ
  Basis Set: (AUG-CC-PVTZ AUX)
    Blend: AUG-CC-PVTZ-JKFIT
	 Reference Energy          =    -811.4787241874598749 [Eh]
	 Singles Energy            =      -0.0000000000000000 [Eh]
	 Same-Spin Energy          =      -0.8297301391300149 [Eh]
	 Opposite-Spin Energy      =      -2.5248303378011352 [Eh]
	 Correlation Energy        =      -3.3545604769311499 [Eh]
	 Total Energy              =    -814.8332846643910443 [Eh]

	 ================> DF-SCS-MP2 Energies <==================
	-----------------------------------------------------------
	 SCS Same-Spin Scale       =       0.3333333333333333 [-]
	 SCS Opposite-Spin Scale   =       1.2000000000000000 [-]
	 SCS Same-Spin Energy      =      -0.2765767130433383 [Eh]
	 SCS Opposite-Spin Energy  =      -3.0297964053613620 [Eh]
	 SCS Correlation Energy    =      -3.3063731184047001 [Eh]
	 SCS Total Energy          =    -814.7850973058646105 [Eh]
	-----------------------------------------------------------

  Dipole Moment: [D]
     X:     1.2285      Y:    -4.5227      Z:     2.4884     Total:     5.3063

*** Psi4 exiting successfully. Buy a developer a beer!
