                               Psi4 1.3.2 release

  ==> Input File <==

--------------------------------------------------------------------------
#psi4
#
memory 32 gb

molecule  {
0 1
  O        1.3620710    -0.3800110    -0.9318440
  O        3.2020570     1.9012130    -0.2995130
  O        2.7994070    -2.7489470    -0.4002010
  O       -1.3621860     2.3740050     0.1547830
  N       -0.7982440     0.1994180    -0.2292560
  N       -3.0541720     0.8052390     0.2400120
  N       -4.6734100    -0.8124350     0.4126370
  C        2.7015950     0.8755540     0.5594740
  C        1.2368440     1.1072260     0.8878520
  C        2.6518190    -0.3922910    -0.2854700
  C        0.4868527     0.6272599    -0.5861038
  C        2.8020980    -1.6600160     0.5224700
  C       -1.1273370    -1.1158190    -0.3082760
  C       -1.7446880     1.2038920     0.0820450
  C       -2.4173070    -1.5045610    -0.1045420
  C       -3.3619920    -0.4731600     0.1685110
  H        3.3343810     0.7567850     1.4508530
  H        0.9047070     0.4438290     1.6934890
  H        0.9853290     2.1340670     1.1581470
  H        0.5274540     1.5132540    -1.1249130
  H        3.4174920    -0.3642830    -1.0666260
  H        1.9707490    -1.7331840     1.2432230
  H        3.7460890    -1.6095150     1.0882890
  H        3.1038510     2.7463240     0.1779830
  H       -0.3107400    -1.7892010    -0.5436980
  H        2.9100300    -3.5650720     0.1192120
  H       -2.7034680    -2.5490840    -0.1532500
  H       -5.0287110    -1.6377420    -0.0567190
  H       -5.2994710    -0.0137980     0.3861010
units angstrom
no_reorient  #important for SAPT in psi4, default
symmetry c1  #important for SAPT in psi4, default
}

set PROPERTIES_ORIGIN ["COM"]
properties('MP2/aug-cc-pvtz', properties = ['dipole'])
--------------------------------------------------------------------------

    Molecular point group: c1
  Charge       = 0
  Multiplicity = 1
  Basis Set: AUG-CC-PVTZ
    Blend: AUG-CC-PVTZ
  Basis Set: (AUG-CC-PVTZ AUX)
    Blend: AUG-CC-PVTZ-JKFIT

    Orbital Energies [Eh]
    ---------------------

    Doubly Occupied:

       1A    -20.577542     2A    -20.572500     3A    -20.569549
       4A    -20.506046     5A    -15.627177     6A    -15.590503
       7A    -15.544130     8A    -11.373978     9A    -11.347566
      10A    -11.331796    11A    -11.320571    12A    -11.297051
      13A    -11.295761    14A    -11.294306    15A    -11.240106
      16A    -11.230980    17A     -1.423817    18A     -1.385943
      19A     -1.372006    20A     -1.365350    21A     -1.297500
      22A     -1.270869    23A     -1.173353    24A     -1.075881
      25A     -1.066543    26A     -1.010296    27A     -0.931296
      28A     -0.903060    29A     -0.869477    30A     -0.836393
      31A     -0.803960    32A     -0.761008    33A     -0.741591
      34A     -0.719119    35A     -0.708476    36A     -0.693738
      37A     -0.684506    38A     -0.682150    39A     -0.663671
      40A     -0.637255    41A     -0.629642    42A     -0.622294
      43A     -0.606539    44A     -0.597891    45A     -0.591761
      46A     -0.578889    47A     -0.569757    48A     -0.542814
      49A     -0.530810    50A     -0.523982    51A     -0.499673
      52A     -0.480219    53A     -0.472640    54A     -0.466190
      55A     -0.459117    56A     -0.443736    57A     -0.423574
      58A     -0.419630    59A     -0.378138    60A     -0.331291

  @DF-RHF Final Energy:  -811.44905336467855

   => Energetics <=

    Nuclear Repulsion Energy =           1169.0449637206202169
    One-Electron Energy =               -3433.0572259367336301
    Two-Electron Energy =                1452.5632088514348652
    Total Energy =                       -811.4490533646785480
  Basis Set: (AUG-CC-PVTZ AUX)
    Blend: AUG-CC-PVTZ-RI
    Molecular point group: c1

    Geometry (in Angstrom), charge = 0, multiplicity = 1:

       Center              X                  Y                   Z               Mass
    ------------   -----------------  -----------------  -----------------  -----------------
         O            1.366673832345    -0.377065388122    -0.922798001095    15.994914619570
         O            3.206659832345     1.904158611878    -0.290467001095    15.994914619570
         O            2.804009832345    -2.746001388122    -0.391155001095    15.994914619570
         O           -1.357583167655     2.376950611878     0.163828998905    15.994914619570
         N           -0.793641167655     0.202363611878    -0.220210001095    14.003074004430
         N           -3.049569167655     0.808184611878     0.249057998905    14.003074004430
         N           -4.668807167655    -0.809489388122     0.421682998905    14.003074004430
         C            2.706197832345     0.878499611878     0.568519998905    12.000000000000
         C            1.241446832345     1.110171611878     0.896897998905    12.000000000000
         C            2.656421832345    -0.389345388122    -0.276424001095    12.000000000000
         C            0.491455532345     0.630205511878    -0.577057801095    12.000000000000
         C            2.806700832345    -1.657070388122     0.531515998905    12.000000000000
         C           -1.122734167655    -1.112873388122    -0.299230001095    12.000000000000
         C           -1.740085167655     1.206837611878     0.091090998905    12.000000000000
         C           -2.412704167655    -1.501615388122    -0.095496001095    12.000000000000
         C           -3.357389167655    -0.470214388122     0.177556998905    12.000000000000
         H            3.338983832345     0.759730611878     1.459898998905     1.007825032230
         H            0.909309832345     0.446774611878     1.702534998905     1.007825032230
         H            0.989931832345     2.137012611878     1.167192998905     1.007825032230
         H            0.532056832345     1.516199611878    -1.115867001095     1.007825032230
         H            3.422094832345    -0.361337388122    -1.057580001095     1.007825032230
         H            1.975351832345    -1.730238388122     1.252268998905     1.007825032230
         H            3.750691832345    -1.606569388122     1.097334998905     1.007825032230
         H            3.108453832345     2.749269611878     0.187028998905     1.007825032230
         H           -0.306137167655    -1.786255388122    -0.534652001095     1.007825032230
         H            2.914632832345    -3.562126388122     0.128257998905     1.007825032230
         H           -2.698865167655    -2.546138388122    -0.144204001095     1.007825032230
         H           -5.024108167655    -1.634796388122    -0.047673001095     1.007825032230
         H           -5.294868167655    -0.010852388122     0.395146998905     1.007825032230

  Basis Set: AUG-CC-PVTZ
    Blend: AUG-CC-PVTZ
  Basis Set: (AUG-CC-PVTZ AUX)
    Blend: AUG-CC-PVTZ-JKFIT
	 Reference Energy          =    -811.4490533646785480 [Eh]
	 Singles Energy            =      -0.0000000000000000 [Eh]
	 Same-Spin Energy          =      -0.8305042624664791 [Eh]
	 Opposite-Spin Energy      =      -2.5263238117337599 [Eh]
	 Correlation Energy        =      -3.3568280742002390 [Eh]
	 Total Energy              =    -814.8058814388788278 [Eh]

	 ================> DF-SCS-MP2 Energies <==================
	-----------------------------------------------------------
	 SCS Same-Spin Scale       =       0.3333333333333333 [-]
	 SCS Opposite-Spin Scale   =       1.2000000000000000 [-]
	 SCS Same-Spin Energy      =      -0.2768347541554930 [Eh]
	 SCS Opposite-Spin Energy  =      -3.0315885740805117 [Eh]
	 SCS Correlation Energy    =      -3.3084233282360049 [Eh]
	 SCS Total Energy          =    -814.7574766929145653 [Eh]
	-----------------------------------------------------------

  Dipole Moment: [D]
     X:     0.7673      Y:    -4.8652      Z:     2.1819     Total:     5.3870

*** Psi4 exiting successfully. Buy a developer a beer!
