                               Psi4 1.3.2 release

  ==> Input File <==

--------------------------------------------------------------------------
#psi4
#
memory 32 gb

molecule  {
0 1
  O        1.3620710    -0.3800110    -0.9318440
  O        3.2020570     1.9012130    -0.2995130
  O        2.7994070    -2.7489470    -0.4002010
  O       -1.3621860     2.3740050     0.1547830
  N       -0.7982440     0.1994180    -0.2292560
  N       -3.0541720     0.8052390     0.2400120
  N       -4.6734100    -0.8124350     0.4126370
  C        2.7015950     0.8755540     0.5594740
  C        1.2368440     1.1072260     0.8878520
  C        2.6518190    -0.3922910    -0.2854700
  C        0.5739580     0.6830040    -0.4149160
  C        2.8020980    -1.6600160     0.5224700
  C       -1.1273370    -1.1158190    -0.3082760
  C       -1.7446880     1.2038920     0.0820450
  C       -2.4173070    -1.5045610    -0.1045420
  C       -3.3386170    -0.3760820     0.1739406
  H        3.3343810     0.7567850     1.4508530
  H        0.9047070     0.4438290     1.6934890
  H        0.9853290     2.1340670     1.1581470
  H        0.5274540     1.5132540    -1.1249130
  H        3.4174920    -0.3642830    -1.0666260
  H        1.9707490    -1.7331840     1.2432230
  H        3.7460890    -1.6095150     1.0882890
  H        3.1038510     2.7463240     0.1779830
  H       -0.3107400    -1.7892010    -0.5436980
  H        2.9100300    -3.5650720     0.1192120
  H       -2.7034680    -2.5490840    -0.1532500
  H       -5.0287110    -1.6377420    -0.0567190
  H       -5.2994710    -0.0137980     0.3861010
units angstrom
no_reorient  #important for SAPT in psi4, default
symmetry c1  #important for SAPT in psi4, default
}

set PROPERTIES_ORIGIN ["COM"]
properties('MP2/aug-cc-pvtz', properties = ['dipole'])
--------------------------------------------------------------------------

    Molecular point group: c1
  Charge       = 0
  Multiplicity = 1
  Basis Set: AUG-CC-PVTZ
    Blend: AUG-CC-PVTZ
  Basis Set: (AUG-CC-PVTZ AUX)
    Blend: AUG-CC-PVTZ-JKFIT

    Orbital Energies [Eh]
    ---------------------

    Doubly Occupied:

       1A    -20.577352     2A    -20.575092     3A    -20.573085
       4A    -20.514949     5A    -15.620582     6A    -15.577297
       7A    -15.546194     8A    -11.381411     9A    -11.339586
      10A    -11.331775    11A    -11.309878    12A    -11.301508
      13A    -11.296688    14A    -11.293305    15A    -11.238088
      16A    -11.237818    17A     -1.418043    18A     -1.391894
      19A     -1.373636    20A     -1.367061    21A     -1.305762
      22A     -1.263335    23A     -1.176671    24A     -1.078370
      25A     -1.065885    26A     -1.024452    27A     -0.926479
      28A     -0.893170    29A     -0.877567    30A     -0.833283
      31A     -0.805323    32A     -0.750755    33A     -0.738658
      34A     -0.720989    35A     -0.701890    36A     -0.691670
      37A     -0.689594    38A     -0.674602    39A     -0.656388
      40A     -0.640251    41A     -0.632868    42A     -0.615673
      43A     -0.607678    44A     -0.595671    45A     -0.588858
      46A     -0.572692    47A     -0.568676    48A     -0.545494
      49A     -0.532561    50A     -0.524443    51A     -0.509487
      52A     -0.486586    53A     -0.484906    54A     -0.468422
      55A     -0.462125    56A     -0.453416    57A     -0.437555
      58A     -0.421847    59A     -0.397373    60A     -0.333434

  @DF-RHF Final Energy:  -811.46725830406376

   => Energetics <=

    Nuclear Repulsion Energy =           1170.9730082907583437
    One-Electron Energy =               -3436.8403292717225668
    Two-Electron Energy =                1454.4000626769002338
    Total Energy =                       -811.4672583040637619
  Basis Set: (AUG-CC-PVTZ AUX)
    Blend: AUG-CC-PVTZ-RI
    Molecular point group: c1

    Geometry (in Angstrom), charge = 0, multiplicity = 1:

       Center              X                  Y                   Z               Mass
    ------------   -----------------  -----------------  -----------------  -----------------
         O            1.360835794287    -0.385140866157    -0.932130878567    15.994914619570
         O            3.200821794287     1.896083133843    -0.299799878567    15.994914619570
         O            2.798171794287    -2.754076866157    -0.400487878567    15.994914619570
         O           -1.363421205713     2.368875133843     0.154496121433    15.994914619570
         N           -0.799479205713     0.194288133843    -0.229542878567    14.003074004430
         N           -3.055407205713     0.800109133843     0.239725121433    14.003074004430
         N           -4.674645205713    -0.817564866157     0.412350121433    14.003074004430
         C            2.700359794287     0.870424133843     0.559187121433    12.000000000000
         C            1.235608794287     1.102096133843     0.887565121433    12.000000000000
         C            2.650583794287    -0.397420866157    -0.285756878567    12.000000000000
         C            0.572722794287     0.677874133843    -0.415202878567    12.000000000000
         C            2.800862794287    -1.665145866157     0.522183121433    12.000000000000
         C           -1.128572205713    -1.120948866157    -0.308562878567    12.000000000000
         C           -1.745923205713     1.198762133843     0.081758121433    12.000000000000
         C           -2.418542205713    -1.509690866157    -0.104828878567    12.000000000000
         C           -3.339852205713    -0.381211866157     0.173653721433    12.000000000000
         H            3.333145794287     0.751655133843     1.450566121433     1.007825032230
         H            0.903471794287     0.438699133843     1.693202121433     1.007825032230
         H            0.984093794287     2.128937133843     1.157860121433     1.007825032230
         H            0.526218794287     1.508124133843    -1.125199878567     1.007825032230
         H            3.416256794287    -0.369412866157    -1.066912878567     1.007825032230
         H            1.969513794287    -1.738313866157     1.242936121433     1.007825032230
         H            3.744853794287    -1.614644866157     1.088002121433     1.007825032230
         H            3.102615794287     2.741194133843     0.177696121433     1.007825032230
         H           -0.311975205713    -1.794330866157    -0.543984878567     1.007825032230
         H            2.908794794287    -3.570201866157     0.118925121433     1.007825032230
         H           -2.704703205713    -2.554213866157    -0.153536878567     1.007825032230
         H           -5.029946205713    -1.642871866157    -0.057005878567     1.007825032230
         H           -5.300706205713    -0.018927866157     0.385814121433     1.007825032230

  Basis Set: AUG-CC-PVTZ
    Blend: AUG-CC-PVTZ
  Basis Set: (AUG-CC-PVTZ AUX)
    Blend: AUG-CC-PVTZ-JKFIT
	 Reference Energy          =    -811.4672583040637619 [Eh]
	 Singles Energy            =      -0.0000000000000000 [Eh]
	 Same-Spin Energy          =      -0.8281154537245280 [Eh]
	 Opposite-Spin Energy      =      -2.5238881021269020 [Eh]
	 Correlation Energy        =      -3.3520035558514301 [Eh]
	 Total Energy              =    -814.8192618599151729 [Eh]

	 ================> DF-SCS-MP2 Energies <==================
	-----------------------------------------------------------
	 SCS Same-Spin Scale       =       0.3333333333333333 [-]
	 SCS Opposite-Spin Scale   =       1.2000000000000000 [-]
	 SCS Same-Spin Energy      =      -0.2760384845748426 [Eh]
	 SCS Opposite-Spin Energy  =      -3.0286657225522822 [Eh]
	 SCS Correlation Energy    =      -3.3047042071271249 [Eh]
	 SCS Total Energy          =    -814.7719625111908499 [Eh]
	-----------------------------------------------------------

  Dipole Moment: [D]
     X:     1.3713      Y:    -4.1439      Z:     2.4812     Total:     5.0209

*** Psi4 exiting successfully. Buy a developer a beer!
