                               Psi4 1.4a3.dev225

  ==> Input File <==

--------------------------------------------------------------------------
#psi4
#
memory 32 gb

molecule  {
0 1
  O       -1.4695130     0.3030610    -1.0874480
  O       -3.6436400    -1.4204040    -0.2669360
  O       -1.6911330     2.8536240     0.0000030
  O        1.1857770    -2.4961310     0.0874550
  N        0.6842480    -0.3150290    -0.3399290
  N        2.9133760    -0.9647370     0.2108410
  N        4.5636770     0.6178870     0.3785230
  C       -2.7686820    -0.6858470     0.5863090
  C       -1.3787780    -1.3118450     0.6568060
  C       -2.4925280     0.6283540    -0.1295840
  C       -0.6939390    -0.7805590    -0.6115670
  C       -2.0414120     1.7324860     0.8087370
  C        1.0545030     0.9838330    -0.4888120
  C        1.6080830    -1.3384950     0.0010630
  C        2.3487550     1.3478080    -0.2622830
  C        3.2451182     0.3192308     0.0827258
  H       -3.2188600    -0.5381750     1.5798200
  H       -0.8341690    -0.9801840     1.5464130
  H       -1.3950130    -2.4033150     0.6754970
  H       -0.6263030    -1.5384450    -1.3968420
  H       -3.3591510     0.9641520    -0.7058050
  H       -1.1849610     1.3939850     1.4098140
  H       -2.8667900     1.9743150     1.4948250
  H       -3.6905400    -2.3294490     0.0774600
  H        0.2668220     1.6750250    -0.7707300
  H       -1.4321050     3.5760960     0.5972330
  H        2.6621150     2.3809760    -0.3596430
  H        4.9550500     1.4416620    -0.0591730
  H        5.1797170    -0.1867780     0.4106900
units angstrom
no_reorient  #important for SAPT in psi4, default
symmetry c1  #important for SAPT in psi4, default
}

set PROPERTIES_ORIGIN ["COM"]
properties('MP2/aug-cc-pvtz', properties = ['dipole'])
--------------------------------------------------------------------------

    Molecular point group: c1
  Charge       = 0
  Multiplicity = 1
  Basis Set: AUG-CC-PVTZ
    Blend: AUG-CC-PVTZ
  Basis Set: (AUG-CC-PVTZ AUX)
    Blend: AUG-CC-PVTZ-JKFIT

    Orbital Energies [Eh]
    ---------------------

    Doubly Occupied:

       1A    -20.584232     2A    -20.575099     3A    -20.573024
       4A    -20.500783     5A    -15.620931     6A    -15.587352
       7A    -15.539977     8A    -11.367566     9A    -11.345374
      10A    -11.333896    11A    -11.317260    12A    -11.300847
      13A    -11.299962    14A    -11.295307    15A    -11.237757
      16A    -11.234982    17A     -1.419522    18A     -1.381863
      19A     -1.377728    20A     -1.366355    21A     -1.288603
      22A     -1.256899    23A     -1.164611    24A     -1.077624
      25A     -1.069988    26A     -1.026522    27A     -0.931055
      28A     -0.897807    29A     -0.866077    30A     -0.830137
      31A     -0.805847    32A     -0.753278    33A     -0.738872
      34A     -0.725953    35A     -0.706372    36A     -0.702397
      37A     -0.688944    38A     -0.672223    39A     -0.651738
      40A     -0.642523    41A     -0.623077    42A     -0.619122
      43A     -0.607049    44A     -0.596187    45A     -0.587546
      46A     -0.572451    47A     -0.566337    48A     -0.551039
      49A     -0.525613    50A     -0.521176    51A     -0.511010
      52A     -0.485554    53A     -0.481169    54A     -0.472984
      55A     -0.459895    56A     -0.448724    57A     -0.441197
      58A     -0.413741    59A     -0.381051    60A     -0.335126

  @DF-RHF Final Energy:  -811.47795985686662

   => Energetics <=

    Nuclear Repulsion Energy =           1185.2336983620987212
    One-Electron Energy =               -3465.5086490687285732
    Two-Electron Energy =                1468.7969908497634606
    Total Energy =                       -811.4779598568666188
  Basis Set: (AUG-CC-PVTZ AUX)
    Blend: AUG-CC-PVTZ-RI
    Molecular point group: c1

    Geometry (in Angstrom), charge = 0, multiplicity = 1:

       Center              X                  Y                   Z               Mass
    ------------   -----------------  -----------------  -----------------  -----------------
         O           -1.493299105373     0.326003970288    -1.067561617546    15.994914619570
         O           -3.667426105373    -1.397461029712    -0.247049617546    15.994914619570
         O           -1.714919105373     2.876566970288     0.019889382454    15.994914619570
         O            1.161990894627    -2.473188029712     0.107341382454    15.994914619570
         N            0.660461894627    -0.292086029712    -0.320042617546    14.003074004430
         N            2.889589894627    -0.941794029712     0.230727382454    14.003074004430
         N            4.539890894627     0.640829970288     0.398409382454    14.003074004430
         C           -2.792468105373    -0.662904029712     0.606195382454    12.000000000000
         C           -1.402564105373    -1.288902029712     0.676692382454    12.000000000000
         C           -2.516314105373     0.651296970288    -0.109697617546    12.000000000000
         C           -0.717725105373    -0.757616029712    -0.591680617546    12.000000000000
         C           -2.065198105373     1.755428970288     0.828623382454    12.000000000000
         C            1.030716894627     1.006775970288    -0.468925617546    12.000000000000
         C            1.584296894627    -1.315552029712     0.020949382454    12.000000000000
         C            2.324968894627     1.370750970288    -0.242396617546    12.000000000000
         C            3.221332094627     0.342173770288     0.102612182454    12.000000000000
         H           -3.242646105373    -0.515232029712     1.599706382454     1.007825032230
         H           -0.857955105373    -0.957241029712     1.566299382454     1.007825032230
         H           -1.418799105373    -2.380372029712     0.695383382454     1.007825032230
         H           -0.650089105373    -1.515502029712    -1.376955617546     1.007825032230
         H           -3.382937105373     0.987094970288    -0.685918617546     1.007825032230
         H           -1.208747105373     1.416927970288     1.429700382454     1.007825032230
         H           -2.890576105373     1.997257970288     1.514711382454     1.007825032230
         H           -3.714326105373    -2.306506029712     0.097346382454     1.007825032230
         H            0.243035894627     1.697967970288    -0.750843617546     1.007825032230
         H           -1.455891105373     3.599038970288     0.617119382454     1.007825032230
         H            2.638328894627     2.403918970288    -0.339756617546     1.007825032230
         H            4.931263894627     1.464604970288    -0.039286617546     1.007825032230
         H            5.155930894627    -0.163835029712     0.430576382454     1.007825032230

  Basis Set: AUG-CC-PVTZ
    Blend: AUG-CC-PVTZ
  Basis Set: (AUG-CC-PVTZ AUX)
    Blend: AUG-CC-PVTZ-JKFIT
	 Reference Energy          =    -811.4779598568666188 [Eh]
	 Singles Energy            =      -0.0000000000000000 [Eh]
	 Same-Spin Energy          =      -0.8311188693473778 [Eh]
	 Opposite-Spin Energy      =      -2.5274172779423525 [Eh]
	 Correlation Energy        =      -3.3585361472897302 [Eh]
	 Total Energy              =    -814.8364960041564018 [Eh]

	 ================> DF-SCS-MP2 Energies <==================
	-----------------------------------------------------------
	 SCS Same-Spin Scale       =       0.3333333333333333 [-]
	 SCS Opposite-Spin Scale   =       1.2000000000000000 [-]
	 SCS Same-Spin Energy      =      -0.2770396231157926 [Eh]
	 SCS Opposite-Spin Energy  =      -3.0329007335308229 [Eh]
	 SCS Correlation Energy    =      -3.3099403566466155 [Eh]
	 SCS Total Energy          =    -814.7879002135132396 [Eh]
	-----------------------------------------------------------

  Dipole Moment: [D]
     X:    -0.4639      Y:     4.6434      Z:     2.3791     Total:     5.2380

*** Psi4 exiting successfully. Buy a developer a beer!
