                               Psi4 1.3.2 release

  ==> Input File <==

--------------------------------------------------------------------------
#psi4
#
memory 32 gb

molecule  {
0 1
  O        1.3620710    -0.3800110    -0.9318440
  O        3.2020570     1.9012130    -0.2995130
  O        2.7994070    -2.7489470    -0.4002010
  O       -1.3621860     2.3740050     0.1547830
  N       -0.7982440     0.1994180    -0.2292560
  N       -3.0541720     0.8052390     0.2400120
  N       -4.6734100    -0.8124350     0.4126370
  C        2.6950414     0.9042400     0.5151411
  C        1.2368440     1.1072260     0.8878520
  C        2.6518190    -0.3922910    -0.2854700
  C        0.5739580     0.6830040    -0.4149160
  C        2.7978527    -1.6878422     0.4778771
  C       -1.1273370    -1.1158190    -0.3082760
  C       -1.7446880     1.2038920     0.0820450
  C       -2.4173070    -1.5045610    -0.1045420
  C       -3.3619920    -0.4731600     0.1685110
  H        3.3343810     0.7567850     1.4508530
  H        0.9047070     0.4438290     1.6934890
  H        0.9853290     2.1340670     1.1581470
  H        0.5274540     1.5132540    -1.1249130
  H        3.4174920    -0.3642830    -1.0666260
  H        1.9707490    -1.7331840     1.2432230
  H        3.7460890    -1.6095150     1.0882890
  H        3.1038510     2.7463240     0.1779830
  H       -0.3107400    -1.7892010    -0.5436980
  H        2.9100300    -3.5650720     0.1192120
  H       -2.7034680    -2.5490840    -0.1532500
  H       -5.0287110    -1.6377420    -0.0567190
  H       -5.2994710    -0.0137980     0.3861010
units angstrom
no_reorient  #important for SAPT in psi4, default
symmetry c1  #important for SAPT in psi4, default
}

set PROPERTIES_ORIGIN ["COM"]
properties('MP2/aug-cc-pvtz', properties = ['dipole'])
--------------------------------------------------------------------------

    Molecular point group: c1
  Charge       = 0
  Multiplicity = 1
  Basis Set: AUG-CC-PVTZ
    Blend: AUG-CC-PVTZ
  Basis Set: (AUG-CC-PVTZ AUX)
    Blend: AUG-CC-PVTZ-JKFIT

    Orbital Energies [Eh]
    ---------------------

    Doubly Occupied:

       1A    -20.582496     2A    -20.579085     3A    -20.570654
       4A    -20.502473     5A    -15.620993     6A    -15.587942
       7A    -15.540301     8A    -11.369302     9A    -11.344527
      10A    -11.329448    11A    -11.317755    12A    -11.302447
      13A    -11.299071    14A    -11.290920    15A    -11.236471
      16A    -11.234902    17A     -1.419760    18A     -1.394137
      19A     -1.389272    20A     -1.373612    21A     -1.291697
      22A     -1.260842    23A     -1.168612    24A     -1.077469
      25A     -1.065578    26A     -1.026839    27A     -0.924770
      28A     -0.896644    29A     -0.869068    30A     -0.830828
      31A     -0.800994    32A     -0.753702    33A     -0.736967
      34A     -0.731345    35A     -0.708968    36A     -0.696763
      37A     -0.694961    38A     -0.675604    39A     -0.657042
      40A     -0.639024    41A     -0.628095    42A     -0.619995
      43A     -0.610997    44A     -0.598327    45A     -0.590376
      46A     -0.573470    47A     -0.570645    48A     -0.545964
      49A     -0.534466    50A     -0.523043    51A     -0.510676
      52A     -0.481392    53A     -0.480820    54A     -0.460916
      55A     -0.454437    56A     -0.442083    57A     -0.434693
      58A     -0.415579    59A     -0.382902    60A     -0.334224

  @DF-RHF Final Energy:  -811.47478663754509

   => Energetics <=

    Nuclear Repulsion Energy =           1170.9171977369751403
    One-Electron Energy =               -3436.8112092577930525
    Two-Electron Energy =                1454.4192248832728183
    Total Energy =                       -811.4747866375450940
  Basis Set: (AUG-CC-PVTZ AUX)
    Blend: AUG-CC-PVTZ-RI
    Molecular point group: c1

    Geometry (in Angstrom), charge = 0, multiplicity = 1:

       Center              X                  Y                   Z               Mass
    ------------   -----------------  -----------------  -----------------  -----------------
         O            1.362641623279    -0.380056470899    -0.927144918027    15.994914619570
         O            3.202627623279     1.901167529101    -0.294813918027    15.994914619570
         O            2.799977623279    -2.748992470899    -0.395501918027    15.994914619570
         O           -1.361615376721     2.373959529101     0.159482081973    15.994914619570
         N           -0.797673376721     0.199372529101    -0.224556918027    14.003074004430
         N           -3.053601376721     0.805193529101     0.244711081973    14.003074004430
         N           -4.672839376721    -0.812480470899     0.417336081973    14.003074004430
         C            2.695612023279     0.904194529101     0.519840181973    12.000000000000
         C            1.237414623279     1.107180529101     0.892551081973    12.000000000000
         C            2.652389623279    -0.392336470899    -0.280770918027    12.000000000000
         C            0.574528623279     0.682958529101    -0.410216918027    12.000000000000
         C            2.798423323279    -1.687887670899     0.482576181973    12.000000000000
         C           -1.126766376721    -1.115864470899    -0.303576918027    12.000000000000
         C           -1.744117376721     1.203846529101     0.086744081973    12.000000000000
         C           -2.416736376721    -1.504606470899    -0.099842918027    12.000000000000
         C           -3.361421376721    -0.473205470899     0.173210081973    12.000000000000
         H            3.334951623279     0.756739529101     1.455552081973     1.007825032230
         H            0.905277623279     0.443783529101     1.698188081973     1.007825032230
         H            0.985899623279     2.134021529101     1.162846081973     1.007825032230
         H            0.528024623279     1.513208529101    -1.120213918027     1.007825032230
         H            3.418062623279    -0.364328470899    -1.061926918027     1.007825032230
         H            1.971319623279    -1.733229470899     1.247922081973     1.007825032230
         H            3.746659623279    -1.609560470899     1.092988081973     1.007825032230
         H            3.104421623279     2.746278529101     0.182682081973     1.007825032230
         H           -0.310169376721    -1.789246470899    -0.538998918027     1.007825032230
         H            2.910600623279    -3.565117470899     0.123911081973     1.007825032230
         H           -2.702897376721    -2.549129470899    -0.148550918027     1.007825032230
         H           -5.028140376721    -1.637787470899    -0.052019918027     1.007825032230
         H           -5.298900376721    -0.013843470899     0.390800081973     1.007825032230

  Basis Set: AUG-CC-PVTZ
    Blend: AUG-CC-PVTZ
  Basis Set: (AUG-CC-PVTZ AUX)
    Blend: AUG-CC-PVTZ-JKFIT
	 Reference Energy          =    -811.4747866375450940 [Eh]
	 Singles Energy            =      -0.0000000000000000 [Eh]
	 Same-Spin Energy          =      -0.8297559898830407 [Eh]
	 Opposite-Spin Energy      =      -2.5239290959019121 [Eh]
	 Correlation Energy        =      -3.3536850857849529 [Eh]
	 Total Energy              =    -814.8284717233300398 [Eh]

	 ================> DF-SCS-MP2 Energies <==================
	-----------------------------------------------------------
	 SCS Same-Spin Scale       =       0.3333333333333333 [-]
	 SCS Opposite-Spin Scale   =       1.2000000000000000 [-]
	 SCS Same-Spin Energy      =      -0.2765853299610135 [Eh]
	 SCS Opposite-Spin Energy  =      -3.0287149150822943 [Eh]
	 SCS Correlation Energy    =      -3.3053002450433078 [Eh]
	 SCS Total Energy          =    -814.7800868825884208 [Eh]
	-----------------------------------------------------------

  Dipole Moment: [D]
     X:     1.1399      Y:    -4.7041      Z:     2.2670     Total:     5.3449

*** Psi4 exiting successfully. Buy a developer a beer!
