                               Psi4 1.3.2 release

  ==> Input File <==

--------------------------------------------------------------------------
#psi4
#
memory 32 gb

molecule  {
0 1
  O        1.3620710    -0.3800110    -0.9318440
  O        3.2020570     1.9012130    -0.2995130
  O        2.7994070    -2.7489470    -0.4002010
  O       -1.3621860     2.3740050     0.1547830
  N       -0.7982440     0.1994180    -0.2292560
  N       -3.0541720     0.8052390     0.2400120
  N       -4.6734100    -0.8124350     0.4126370
  C        2.7015950     0.8755540     0.5594740
  C        1.2368440     1.1072260     0.8878520
  C        2.6518190    -0.3922910    -0.2854700
  C        0.5739580     0.6830040    -0.4149160
  C        2.8020980    -1.6600160     0.5224700
  C       -1.1273370    -1.1158190    -0.3082760
  C       -1.7446880     1.2038920     0.0820450
  C       -2.4173070    -1.5045610    -0.1045420
  C       -3.3619920    -0.4731600     0.1685110
  H        3.3343810     0.7567850     1.4508530
  H        0.9047070     0.4438290     1.6934890
  H        0.9853290     2.1340670     1.1581470
  H        0.5274540     1.5132540    -1.1249130
  H        3.4174920    -0.3642830    -1.0666260
  H        1.9707490    -1.7331840     1.2432230
  H        3.7460890    -1.6095150     1.0882890
  H        3.1038510     2.7463240     0.1779830
  H       -0.3107400    -1.7892010    -0.5436980
  H        2.9100300    -3.5650720     0.1192120
  H       -2.7034680    -2.5490840    -0.1532500
  H       -5.0580543    -1.6197212    -0.0648599
  H       -5.3226046    -0.0333303     0.3676945
units angstrom
no_reorient  #important for SAPT in psi4, default
symmetry c1  #important for SAPT in psi4, default
}

set PROPERTIES_ORIGIN ["COM"]
properties('MP2/aug-cc-pvtz', properties = ['dipole'])
--------------------------------------------------------------------------

    Molecular point group: c1
  Charge       = 0
  Multiplicity = 1
  Basis Set: AUG-CC-PVTZ
    Blend: AUG-CC-PVTZ
  Basis Set: (AUG-CC-PVTZ AUX)
    Blend: AUG-CC-PVTZ-JKFIT

    Orbital Energies [Eh]
    ---------------------

    Doubly Occupied:

       1A    -20.577747     2A    -20.574357     3A    -20.572909
       4A    -20.503112     5A    -15.621866     6A    -15.588116
       7A    -15.541064     8A    -11.369947     9A    -11.345862
      10A    -11.330779    11A    -11.318276    12A    -11.300874
      13A    -11.296866    14A    -11.293089    15A    -11.237085
      16A    -11.236817    17A     -1.416693    18A     -1.382475
      19A     -1.373577    20A     -1.365728    21A     -1.292063
      22A     -1.261209    23A     -1.169354    24A     -1.079011
      25A     -1.068960    26A     -1.028107    27A     -0.927191
      28A     -0.897499    29A     -0.869690    30A     -0.831311
      31A     -0.806402    32A     -0.752460    33A     -0.738807
      34A     -0.720952    35A     -0.709048    36A     -0.692969
      37A     -0.689559    38A     -0.673432    39A     -0.655117
      40A     -0.636949    41A     -0.627658    42A     -0.618629
      43A     -0.604379    44A     -0.595201    45A     -0.588409
      46A     -0.572919    47A     -0.568763    48A     -0.544867
      49A     -0.532527    50A     -0.523747    51A     -0.510462
      52A     -0.485897    53A     -0.482096    54A     -0.468505
      55A     -0.461160    56A     -0.444503    57A     -0.437858
      58A     -0.416433    59A     -0.384292    60A     -0.334858

  @DF-RHF Final Energy:  -811.47886480414331

   => Energetics <=

    Nuclear Repulsion Energy =           1169.8270988191645756
    One-Electron Energy =               -3434.7109428433445828
    Two-Electron Energy =                1453.4049792200364664
    Total Energy =                       -811.4788648041433134
  Basis Set: (AUG-CC-PVTZ AUX)
    Blend: AUG-CC-PVTZ-RI
    Molecular point group: c1

    Geometry (in Angstrom), charge = 0, multiplicity = 1:

       Center              X                  Y                   Z               Mass
    ------------   -----------------  -----------------  -----------------  -----------------
         O            1.362303875858    -0.380004329035    -0.931726148773    15.994914619570
         O            3.202289875858     1.901219670965    -0.299395148773    15.994914619570
         O            2.799639875858    -2.748940329035    -0.400083148773    15.994914619570
         O           -1.361953124142     2.374011670965     0.154900851227    15.994914619570
         N           -0.798011124142     0.199424670965    -0.229138148773    14.003074004430
         N           -3.053939124142     0.805245670965     0.240129851227    14.003074004430
         N           -4.673177124142    -0.812428329035     0.412754851227    14.003074004430
         C            2.701827875858     0.875560670965     0.559591851227    12.000000000000
         C            1.237076875858     1.107232670965     0.887969851227    12.000000000000
         C            2.652051875858    -0.392284329035    -0.285352148773    12.000000000000
         C            0.574190875858     0.683010670965    -0.414798148773    12.000000000000
         C            2.802330875858    -1.660009329035     0.522587851227    12.000000000000
         C           -1.127104124142    -1.115812329035    -0.308158148773    12.000000000000
         C           -1.744455124142     1.203898670965     0.082162851227    12.000000000000
         C           -2.417074124142    -1.504554329035    -0.104424148773    12.000000000000
         C           -3.361759124142    -0.473153329035     0.168628851227    12.000000000000
         H            3.334613875858     0.756791670965     1.450970851227     1.007825032230
         H            0.904939875858     0.443835670965     1.693606851227     1.007825032230
         H            0.985561875858     2.134073670965     1.158264851227     1.007825032230
         H            0.527686875858     1.513260670965    -1.124795148773     1.007825032230
         H            3.417724875858    -0.364276329035    -1.066508148773     1.007825032230
         H            1.970981875858    -1.733177329035     1.243340851227     1.007825032230
         H            3.746321875858    -1.609508329035     1.088406851227     1.007825032230
         H            3.104083875858     2.746330670965     0.178100851227     1.007825032230
         H           -0.310507124142    -1.789194329035    -0.543580148773     1.007825032230
         H            2.910262875858    -3.565065329035     0.119329851227     1.007825032230
         H           -2.703235124142    -2.549077329035    -0.153132148773     1.007825032230
         H           -5.057821424142    -1.619714529035    -0.064742048773     1.007825032230
         H           -5.322371724142    -0.033323629035     0.367812351227     1.007825032230

  Basis Set: AUG-CC-PVTZ
    Blend: AUG-CC-PVTZ
  Basis Set: (AUG-CC-PVTZ AUX)
    Blend: AUG-CC-PVTZ-JKFIT
	 Reference Energy          =    -811.4788648041433134 [Eh]
	 Singles Energy            =      -0.0000000000000000 [Eh]
	 Same-Spin Energy          =      -0.8296367356229729 [Eh]
	 Opposite-Spin Energy      =      -2.5251619041386846 [Eh]
	 Correlation Energy        =      -3.3547986397616576 [Eh]
	 Total Energy              =    -814.8336634439049249 [Eh]

	 ================> DF-SCS-MP2 Energies <==================
	-----------------------------------------------------------
	 SCS Same-Spin Scale       =       0.3333333333333333 [-]
	 SCS Opposite-Spin Scale   =       1.2000000000000000 [-]
	 SCS Same-Spin Energy      =      -0.2765455785409909 [Eh]
	 SCS Opposite-Spin Energy  =      -3.0301942849664214 [Eh]
	 SCS Correlation Energy    =      -3.3067398635074126 [Eh]
	 SCS Total Energy          =    -814.7856046676507731 [Eh]
	-----------------------------------------------------------

  Dipole Moment: [D]
     X:     1.0612      Y:    -4.6665      Z:     2.4508     Total:     5.3766

*** Psi4 exiting successfully. Buy a developer a beer!
