                               Psi4 1.3.2 release

  ==> Input File <==

--------------------------------------------------------------------------
#psi4
#
memory 32 gb

molecule  {
0 1
  O        1.3620710    -0.3800110    -0.9318440
  O        3.2020570     1.9012130    -0.2995130
  O        2.7994070    -2.7489470    -0.4002010
  O       -1.3621860     2.3740050     0.1547830
  N       -0.7982440     0.1994180    -0.2292560
  N       -3.0761923     0.8100853     0.2444688
  N       -4.6734100    -0.8124350     0.4126370
  C        2.7015950     0.8755540     0.5594740
  C        1.2368440     1.1072260     0.8878520
  C        2.6518190    -0.3922910    -0.2854700
  C        0.5739580     0.6830040    -0.4149160
  C        2.8020980    -1.6600160     0.5224700
  C       -1.1273370    -1.1158190    -0.3082760
  C       -1.7446880     1.2038920     0.0820450
  C       -2.4355448    -1.5213942    -0.1029229
  C       -3.3619920    -0.4731600     0.1685110
  H        3.3343810     0.7567850     1.4508530
  H        0.9047070     0.4438290     1.6934890
  H        0.9853290     2.1340670     1.1581470
  H        0.5274540     1.5132540    -1.1249130
  H        3.4174920    -0.3642830    -1.0666260
  H        1.9707490    -1.7331840     1.2432230
  H        3.7460890    -1.6095150     1.0882890
  H        3.1038510     2.7463240     0.1779830
  H       -0.3107400    -1.7892010    -0.5436980
  H        2.9100300    -3.5650720     0.1192120
  H       -2.7034680    -2.5490840    -0.1532500
  H       -5.0287110    -1.6377420    -0.0567190
  H       -5.2994710    -0.0137980     0.3861010
units angstrom
no_reorient  #important for SAPT in psi4, default
symmetry c1  #important for SAPT in psi4, default
}

set PROPERTIES_ORIGIN ["COM"]
properties('MP2/aug-cc-pvtz', properties = ['dipole'])
--------------------------------------------------------------------------

    Molecular point group: c1
  Charge       = 0
  Multiplicity = 1
  Basis Set: AUG-CC-PVTZ
    Blend: AUG-CC-PVTZ
  Basis Set: (AUG-CC-PVTZ AUX)
    Blend: AUG-CC-PVTZ-JKFIT

    Orbital Energies [Eh]
    ---------------------

    Doubly Occupied:

       1A    -20.578271     2A    -20.575102     3A    -20.574006
       4A    -20.505832     5A    -15.624932     6A    -15.584760
       7A    -15.542797     8A    -11.372592     9A    -11.342592
      10A    -11.332384    11A    -11.322619    12A    -11.301719
      13A    -11.297485    14A    -11.293899    15A    -11.237910
      16A    -11.237457    17A     -1.417726    18A     -1.382923
      19A     -1.374197    20A     -1.366467    21A     -1.291422
      22A     -1.261866    23A     -1.164473    24A     -1.078772
      25A     -1.067527    26A     -1.027996    27A     -0.926979
      28A     -0.899358    29A     -0.866932    30A     -0.829858
      31A     -0.806932    32A     -0.751573    33A     -0.740142
      34A     -0.721707    35A     -0.705260    36A     -0.693355
      37A     -0.689519    38A     -0.674967    39A     -0.657817
      40A     -0.640277    41A     -0.627279    42A     -0.619984
      43A     -0.604391    44A     -0.592527    45A     -0.588810
      46A     -0.573031    47A     -0.569294    48A     -0.545455
      49A     -0.532571    50A     -0.524993    51A     -0.510889
      52A     -0.486718    53A     -0.481853    54A     -0.469067
      55A     -0.461730    56A     -0.447392    57A     -0.439310
      58A     -0.417097    59A     -0.382617    60A     -0.333378

  @DF-RHF Final Energy:  -811.47669656081177

   => Energetics <=

    Nuclear Repulsion Energy =           1168.7992459581009825
    One-Electron Energy =               -3432.6103082304070995
    Two-Electron Energy =                1452.3343657114942289
    Total Energy =                       -811.4766965608118880
  Basis Set: (AUG-CC-PVTZ AUX)
    Blend: AUG-CC-PVTZ-RI
    Molecular point group: c1

    Geometry (in Angstrom), charge = 0, multiplicity = 1:

       Center              X                  Y                   Z               Mass
    ------------   -----------------  -----------------  -----------------  -----------------
         O            1.364392548593    -0.379420368397    -0.932204342197    15.994914619570
         O            3.204378548593     1.901803631603    -0.299873342197    15.994914619570
         O            2.801728548593    -2.748356368397    -0.400561342197    15.994914619570
         O           -1.359864451407     2.374595631603     0.154422657803    15.994914619570
         N           -0.795922451407     0.200008631603    -0.229616342197    14.003074004430
         N           -3.073870751407     0.810675931603     0.244108457803    14.003074004430
         N           -4.671088451407    -0.811844368397     0.412276657803    14.003074004430
         C            2.703916548593     0.876144631603     0.559113657803    12.000000000000
         C            1.239165548593     1.107816631603     0.887491657803    12.000000000000
         C            2.654140548593    -0.391700368397    -0.285830342197    12.000000000000
         C            0.576279548593     0.683594631603    -0.415276342197    12.000000000000
         C            2.804419548593    -1.659425368397     0.522109657803    12.000000000000
         C           -1.125015451407    -1.115228368397    -0.308636342197    12.000000000000
         C           -1.742366451407     1.204482631603     0.081684657803    12.000000000000
         C           -2.433223251407    -1.520803568397    -0.103283242197    12.000000000000
         C           -3.359670451407    -0.472569368397     0.168150657803    12.000000000000
         H            3.336702548593     0.757375631603     1.450492657803     1.007825032230
         H            0.907028548593     0.444419631603     1.693128657803     1.007825032230
         H            0.987650548593     2.134657631603     1.157786657803     1.007825032230
         H            0.529775548593     1.513844631603    -1.125273342197     1.007825032230
         H            3.419813548593    -0.363692368397    -1.066986342197     1.007825032230
         H            1.973070548593    -1.732593368397     1.242862657803     1.007825032230
         H            3.748410548593    -1.608924368397     1.087928657803     1.007825032230
         H            3.106172548593     2.746914631603     0.177622657803     1.007825032230
         H           -0.308418451407    -1.788610368397    -0.544058342197     1.007825032230
         H            2.912351548593    -3.564481368397     0.118851657803     1.007825032230
         H           -2.701146451407    -2.548493368397    -0.153610342197     1.007825032230
         H           -5.026389451407    -1.637151368397    -0.057079342197     1.007825032230
         H           -5.297149451407    -0.013207368397     0.385740657803     1.007825032230

  Basis Set: AUG-CC-PVTZ
    Blend: AUG-CC-PVTZ
  Basis Set: (AUG-CC-PVTZ AUX)
    Blend: AUG-CC-PVTZ-JKFIT
	 Reference Energy          =    -811.4766965608117744 [Eh]
	 Singles Energy            =      -0.0000000000000000 [Eh]
	 Same-Spin Energy          =      -0.8297333900730340 [Eh]
	 Opposite-Spin Energy      =      -2.5258444267599658 [Eh]
	 Correlation Energy        =      -3.3555778168329997 [Eh]
	 Total Energy              =    -814.8322743776448078 [Eh]

	 ================> DF-SCS-MP2 Energies <==================
	-----------------------------------------------------------
	 SCS Same-Spin Scale       =       0.3333333333333333 [-]
	 SCS Opposite-Spin Scale   =       1.2000000000000000 [-]
	 SCS Same-Spin Energy      =      -0.2765777966910113 [Eh]
	 SCS Opposite-Spin Energy  =      -3.0310133121119587 [Eh]
	 SCS Correlation Energy    =      -3.3075911088029701 [Eh]
	 SCS Total Energy          =    -814.7842876696147414 [Eh]
	-----------------------------------------------------------

  Dipole Moment: [D]
     X:     1.2402      Y:    -4.6178      Z:     2.4753     Total:     5.3842

*** Psi4 exiting successfully. Buy a developer a beer!
