                               Psi4 1.3.2 release

  ==> Input File <==

--------------------------------------------------------------------------
#psi4
#
memory 32 gb

molecule  {
0 1
  O        1.3620710    -0.3800110    -0.9318440
  O        3.2020570     1.9012130    -0.2995130
  O        2.7994070    -2.7489470    -0.4002010
  O       -1.3621860     2.3740050     0.1547830
  N       -0.7982440     0.1994180    -0.2292560
  N       -3.0541720     0.8052390     0.2400120
  N       -4.6734100    -0.8124350     0.4126370
  C        2.7015950     0.8755540     0.5594740
  C        1.2400331     1.1316861     0.8779935
  C        2.6518190    -0.3922910    -0.2854700
  C        0.5739580     0.6830040    -0.4149160
  C        2.8020980    -1.6600160     0.5224700
  C       -1.1273370    -1.1158190    -0.3082760
  C       -1.7446880     1.2038920     0.0820450
  C       -2.4173070    -1.5045610    -0.1045420
  C       -3.3619920    -0.4731600     0.1685110
  H        3.3343810     0.7567850     1.4508530
  H        0.9047070     0.4438290     1.6934890
  H        0.9853290     2.1340670     1.1581470
  H        0.5360635     1.5244740    -1.1121001
  H        3.4174920    -0.3642830    -1.0666260
  H        1.9707490    -1.7331840     1.2432230
  H        3.7460890    -1.6095150     1.0882890
  H        3.1038510     2.7463240     0.1779830
  H       -0.3107400    -1.7892010    -0.5436980
  H        2.9100300    -3.5650720     0.1192120
  H       -2.7034680    -2.5490840    -0.1532500
  H       -5.0287110    -1.6377420    -0.0567190
  H       -5.2994710    -0.0137980     0.3861010
units angstrom
no_reorient  #important for SAPT in psi4, default
symmetry c1  #important for SAPT in psi4, default
}

set PROPERTIES_ORIGIN ["COM"]
properties('MP2/aug-cc-pvtz', properties = ['dipole'])
--------------------------------------------------------------------------

    Molecular point group: c1
  Charge       = 0
  Multiplicity = 1
  Basis Set: AUG-CC-PVTZ
    Blend: AUG-CC-PVTZ
  Basis Set: (AUG-CC-PVTZ AUX)
    Blend: AUG-CC-PVTZ-JKFIT

    Orbital Energies [Eh]
    ---------------------

    Doubly Occupied:

       1A    -20.577851     2A    -20.573601     3A    -20.573585
       4A    -20.503231     5A    -15.622166     6A    -15.588413
       7A    -15.540870     8A    -11.370037     9A    -11.345117
      10A    -11.330700    11A    -11.318431    12A    -11.300970
      13A    -11.296944    14A    -11.293552    15A    -11.237119
      16A    -11.236924    17A     -1.416735    18A     -1.382541
      19A     -1.373625    20A     -1.365743    21A     -1.292336
      22A     -1.261493    23A     -1.169168    24A     -1.078885
      25A     -1.068789    26A     -1.028421    27A     -0.926825
      28A     -0.897504    29A     -0.869143    30A     -0.830441
      31A     -0.806985    32A     -0.754179    33A     -0.738928
      34A     -0.721460    35A     -0.706940    36A     -0.693554
      37A     -0.688879    38A     -0.675463    39A     -0.656666
      40A     -0.637244    41A     -0.626680    42A     -0.618163
      43A     -0.604701    44A     -0.594956    45A     -0.589219
      46A     -0.573516    47A     -0.568608    48A     -0.546231
      49A     -0.531209    50A     -0.527258    51A     -0.507281
      52A     -0.486231    53A     -0.482249    54A     -0.468041
      55A     -0.461095    56A     -0.444490    57A     -0.437519
      58A     -0.416507    59A     -0.383698    60A     -0.335070

  @DF-RHF Final Energy:  -811.47845991848567

   => Energetics <=

    Nuclear Repulsion Energy =           1169.8333153896699059
    One-Electron Energy =               -3434.7151830729094399
    Two-Electron Energy =                1453.4034077647540926
    Total Energy =                       -811.4784599184856688
  Basis Set: (AUG-CC-PVTZ AUX)
    Blend: AUG-CC-PVTZ-RI
    Molecular point group: c1

    Geometry (in Angstrom), charge = 0, multiplicity = 1:

       Center              X                  Y                   Z               Mass
    ------------   -----------------  -----------------  -----------------  -----------------
         O            1.361864255722    -0.381353360286    -0.931379882999    15.994914619570
         O            3.201850255722     1.899870639714    -0.299048882999    15.994914619570
         O            2.799200255722    -2.750289360286    -0.399736882999    15.994914619570
         O           -1.362392744278     2.372662639714     0.155247117001    15.994914619570
         N           -0.798450744278     0.198075639714    -0.228791882999    14.003074004430
         N           -3.054378744278     0.803896639714     0.240476117001    14.003074004430
         N           -4.673616744278    -0.813777360286     0.413101117001    14.003074004430
         C            2.701388255722     0.874211639714     0.559938117001    12.000000000000
         C            1.239826355722     1.130343739714     0.878457617001    12.000000000000
         C            2.651612255722    -0.393633360286    -0.285005882999    12.000000000000
         C            0.573751255722     0.681661639714    -0.414451882999    12.000000000000
         C            2.801891255722    -1.661358360286     0.522934117001    12.000000000000
         C           -1.127543744278    -1.117161360286    -0.307811882999    12.000000000000
         C           -1.744894744278     1.202549639714     0.082509117001    12.000000000000
         C           -2.417513744278    -1.505903360286    -0.104077882999    12.000000000000
         C           -3.362198744278    -0.474502360286     0.168975117001    12.000000000000
         H            3.334174255722     0.755442639714     1.451317117001     1.007825032230
         H            0.904500255722     0.442486639714     1.693953117001     1.007825032230
         H            0.985122255722     2.132724639714     1.158611117001     1.007825032230
         H            0.535856755722     1.523131639714    -1.111635982999     1.007825032230
         H            3.417285255722    -0.365625360286    -1.066161882999     1.007825032230
         H            1.970542255722    -1.734526360286     1.243687117001     1.007825032230
         H            3.745882255722    -1.610857360286     1.088753117001     1.007825032230
         H            3.103644255722     2.744981639714     0.178447117001     1.007825032230
         H           -0.310946744278    -1.790543360286    -0.543233882999     1.007825032230
         H            2.909823255722    -3.566414360286     0.119676117001     1.007825032230
         H           -2.703674744278    -2.550426360286    -0.152785882999     1.007825032230
         H           -5.028917744278    -1.639084360286    -0.056254882999     1.007825032230
         H           -5.299677744278    -0.015140360286     0.386565117001     1.007825032230

  Basis Set: AUG-CC-PVTZ
    Blend: AUG-CC-PVTZ
  Basis Set: (AUG-CC-PVTZ AUX)
    Blend: AUG-CC-PVTZ-JKFIT
	 Reference Energy          =    -811.4784599184856688 [Eh]
	 Singles Energy            =      -0.0000000000000000 [Eh]
	 Same-Spin Energy          =      -0.8296159133028396 [Eh]
	 Opposite-Spin Energy      =      -2.5251207176290000 [Eh]
	 Correlation Energy        =      -3.3547366309318396 [Eh]
	 Total Energy              =    -814.8331965494174938 [Eh]

	 ================> DF-SCS-MP2 Energies <==================
	-----------------------------------------------------------
	 SCS Same-Spin Scale       =       0.3333333333333333 [-]
	 SCS Opposite-Spin Scale   =       1.2000000000000000 [-]
	 SCS Same-Spin Energy      =      -0.2765386377676132 [Eh]
	 SCS Opposite-Spin Energy  =      -3.0301448611547999 [Eh]
	 SCS Correlation Energy    =      -3.3066834989224132 [Eh]
	 SCS Total Energy          =    -814.7851434174081078 [Eh]
	-----------------------------------------------------------

  Dipole Moment: [D]
     X:     1.0723      Y:    -4.6795      Z:     2.4853     Total:     5.4059

*** Psi4 exiting successfully. Buy a developer a beer!
