                               Psi4 1.3.2 release

  ==> Input File <==

--------------------------------------------------------------------------
#psi4
#
memory 32 gb

molecule  {
0 1
  O        1.3620710    -0.3800110    -0.9318440
  O        3.2020570     1.9012130    -0.2995130
  O        2.7994070    -2.7489470    -0.4002010
  O       -1.3621860     2.3740050     0.1547830
  N       -0.7982440     0.1994180    -0.2292560
  N       -3.0541720     0.8052390     0.2400120
  N       -4.6734100    -0.8124350     0.4126370
  C        2.7716686     1.0191645     0.4392005
  C        1.2368440     1.1072260     0.8878520
  C        2.6518190    -0.3922910    -0.2854700
  C        0.5739580     0.6830040    -0.4149160
  C        2.8020980    -1.6600160     0.5224700
  C       -1.1273370    -1.1158190    -0.3082760
  C       -1.7446880     1.2038920     0.0820450
  C       -2.4173070    -1.5045610    -0.1045420
  C       -3.3619920    -0.4731600     0.1685110
  H        3.3343810     0.7567850     1.4508530
  H        0.9047070     0.4438290     1.6934890
  H        0.9853290     2.1340670     1.1581470
  H        0.5274540     1.5132540    -1.1249130
  H        3.4174920    -0.3642830    -1.0666260
  H        1.9707490    -1.7331840     1.2432230
  H        3.7460890    -1.6095150     1.0882890
  H        3.1038510     2.7463240     0.1779830
  H       -0.3107400    -1.7892010    -0.5436980
  H        2.9100300    -3.5650720     0.1192120
  H       -2.7034680    -2.5490840    -0.1532500
  H       -5.0287110    -1.6377420    -0.0567190
  H       -5.2994710    -0.0137980     0.3861010
units angstrom
no_reorient  #important for SAPT in psi4, default
symmetry c1  #important for SAPT in psi4, default
}

set PROPERTIES_ORIGIN ["COM"]
properties('MP2/aug-cc-pvtz', properties = ['dipole'])
--------------------------------------------------------------------------

    Molecular point group: c1
  Charge       = 0
  Multiplicity = 1
  Basis Set: AUG-CC-PVTZ
    Blend: AUG-CC-PVTZ
  Basis Set: (AUG-CC-PVTZ AUX)
    Blend: AUG-CC-PVTZ-JKFIT

    Orbital Energies [Eh]
    ---------------------

    Doubly Occupied:

       1A    -20.599215     2A    -20.575440     3A    -20.568652
       4A    -20.500870     5A    -15.619427     6A    -15.586844
       7A    -15.539011     8A    -11.367778     9A    -11.343206
      10A    -11.326765    11A    -11.316157    12A    -11.309864
      13A    -11.294479    14A    -11.289221    15A    -11.234985
      16A    -11.231529    17A     -1.482608    18A     -1.406443
      19A     -1.378023    20A     -1.366603    21A     -1.290245
      22A     -1.259221    23A     -1.167260    24A     -1.071509
      25A     -1.048650    26A     -1.020739    27A     -0.923866
      28A     -0.896269    29A     -0.872852    30A     -0.835385
      31A     -0.801329    32A     -0.754386    33A     -0.742059
      34A     -0.735616    35A     -0.717870    36A     -0.702577
      37A     -0.685811    38A     -0.678330    39A     -0.661995
      40A     -0.644286    41A     -0.640446    42A     -0.623387
      43A     -0.605082    44A     -0.603847    45A     -0.591913
      46A     -0.577715    47A     -0.574776    48A     -0.546721
      49A     -0.536879    50A     -0.519342    51A     -0.510251
      52A     -0.477957    53A     -0.464858    54A     -0.450595
      55A     -0.443281    56A     -0.434034    57A     -0.423895
      58A     -0.410628    59A     -0.380258    60A     -0.332388

  @DF-RHF Final Energy:  -811.43492649225152

   => Energetics <=

    Nuclear Repulsion Energy =           1169.9606947711492921
    One-Electron Energy =               -3434.7999836095236788
    Two-Electron Energy =                1453.4043623461227526
    Total Energy =                       -811.4349264922514067
  Basis Set: (AUG-CC-PVTZ AUX)
    Blend: AUG-CC-PVTZ-RI
    Molecular point group: c1

    Geometry (in Angstrom), charge = 0, multiplicity = 1:

       Center              X                  Y                   Z               Mass
    ------------   -----------------  -----------------  -----------------  -----------------
         O            1.358368130784    -0.387599752547    -0.925488432069    15.994914619570
         O            3.198354130784     1.893624247453    -0.293157432069    15.994914619570
         O            2.795704130784    -2.756535752547    -0.393845432069    15.994914619570
         O           -1.365888869216     2.366416247453     0.161138567931    15.994914619570
         N           -0.801946869216     0.191829247453    -0.222900432069    14.003074004430
         N           -3.057874869216     0.797650247453     0.246367567931    14.003074004430
         N           -4.677112869216    -0.820023752547     0.418992567931    14.003074004430
         C            2.767965730784     1.011575747453     0.445556067931    12.000000000000
         C            1.233141130784     1.099637247453     0.894207567931    12.000000000000
         C            2.648116130784    -0.399879752547    -0.279114432069    12.000000000000
         C            0.570255130784     0.675415247453    -0.408560432069    12.000000000000
         C            2.798395130784    -1.667604752547     0.528825567931    12.000000000000
         C           -1.131039869216    -1.123407752547    -0.301920432069    12.000000000000
         C           -1.748390869216     1.196303247453     0.088400567931    12.000000000000
         C           -2.421009869216    -1.512149752547    -0.098186432069    12.000000000000
         C           -3.365694869216    -0.480748752547     0.174866567931    12.000000000000
         H            3.330678130784     0.749196247453     1.457208567931     1.007825032230
         H            0.901004130784     0.436240247453     1.699844567931     1.007825032230
         H            0.981626130784     2.126478247453     1.164502567931     1.007825032230
         H            0.523751130784     1.505665247453    -1.118557432069     1.007825032230
         H            3.413789130784    -0.371871752547    -1.060270432069     1.007825032230
         H            1.967046130784    -1.740772752547     1.249578567931     1.007825032230
         H            3.742386130784    -1.617103752547     1.094644567931     1.007825032230
         H            3.100148130784     2.738735247453     0.184338567931     1.007825032230
         H           -0.314442869216    -1.796789752547    -0.537342432069     1.007825032230
         H            2.906327130784    -3.572660752547     0.125567567931     1.007825032230
         H           -2.707170869216    -2.556672752547    -0.146894432069     1.007825032230
         H           -5.032413869216    -1.645330752547    -0.050363432069     1.007825032230
         H           -5.303173869216    -0.021386752547     0.392456567931     1.007825032230

  Basis Set: AUG-CC-PVTZ
    Blend: AUG-CC-PVTZ
  Basis Set: (AUG-CC-PVTZ AUX)
    Blend: AUG-CC-PVTZ-JKFIT
	 Reference Energy          =    -811.4349264922515204 [Eh]
	 Singles Energy            =      -0.0000000000000000 [Eh]
	 Same-Spin Energy          =      -0.8306577940828317 [Eh]
	 Opposite-Spin Energy      =      -2.5246560075705800 [Eh]
	 Correlation Energy        =      -3.3553138016534119 [Eh]
	 Total Energy              =    -814.7902402939049580 [Eh]

	 ================> DF-SCS-MP2 Energies <==================
	-----------------------------------------------------------
	 SCS Same-Spin Scale       =       0.3333333333333333 [-]
	 SCS Opposite-Spin Scale   =       1.2000000000000000 [-]
	 SCS Same-Spin Energy      =      -0.2768859313609439 [Eh]
	 SCS Opposite-Spin Energy  =      -3.0295872090846960 [Eh]
	 SCS Correlation Energy    =      -3.3064731404456400 [Eh]
	 SCS Total Energy          =    -814.7413996326971528 [Eh]
	-----------------------------------------------------------

  Dipole Moment: [D]
     X:     1.5136      Y:    -3.9750      Z:     2.0295     Total:     4.7128

*** Psi4 exiting successfully. Buy a developer a beer!
