                               Psi4 1.4a3.dev225

  ==> Input File <==

--------------------------------------------------------------------------
#psi4
#
memory 32 gb

molecule  {
0 1
  O       -1.4695130     0.3030610    -1.0874480
  O       -3.6436400    -1.4204040    -0.2669360
  O       -1.6911330     2.8536240     0.0000030
  O        1.1857770    -2.4961310     0.0874550
  N        0.6842480    -0.3150290    -0.3399290
  N        2.9133760    -0.9647370     0.2108410
  N        4.5636770     0.6178870     0.3785230
  C       -2.7686820    -0.6858470     0.5863090
  C       -1.3787780    -1.3118450     0.6568060
  C       -2.4925280     0.6283540    -0.1295840
  C       -0.6939390    -0.7805590    -0.6115670
  C       -2.0414120     1.7324860     0.8087370
  C        1.0545030     0.9838330    -0.4888120
  C        1.6080830    -1.3384950     0.0010630
  C        2.3487550     1.3478080    -0.2622830
  C        3.2897041     0.2680684     0.0998869
  H       -3.2188600    -0.5381750     1.5798200
  H       -0.8341690    -0.9801840     1.5464130
  H       -1.3950130    -2.4033150     0.6754970
  H       -0.6263030    -1.5384450    -1.3968420
  H       -3.3591510     0.9641520    -0.7058050
  H       -1.1849610     1.3939850     1.4098140
  H       -2.8667900     1.9743150     1.4948250
  H       -3.6905400    -2.3294490     0.0774600
  H        0.2668220     1.6750250    -0.7707300
  H       -1.4321050     3.5760960     0.5972330
  H        2.6621150     2.3809760    -0.3596430
  H        4.9550500     1.4416620    -0.0591730
  H        5.1797170    -0.1867780     0.4106900
units angstrom
no_reorient  #important for SAPT in psi4, default
symmetry c1  #important for SAPT in psi4, default
}

set PROPERTIES_ORIGIN ["COM"]
properties('MP2/aug-cc-pvtz', properties = ['dipole'])
--------------------------------------------------------------------------

    Molecular point group: c1
  Charge       = 0
  Multiplicity = 1
  Basis Set: AUG-CC-PVTZ
    Blend: AUG-CC-PVTZ
  Basis Set: (AUG-CC-PVTZ AUX)
    Blend: AUG-CC-PVTZ-JKFIT

    Orbital Energies [Eh]
    ---------------------

    Doubly Occupied:

       1A    -20.582012     2A    -20.572798     3A    -20.571754
       4A    -20.504531     5A    -15.614780     6A    -15.592448
       7A    -15.539182     8A    -11.371688     9A    -11.346304
      10A    -11.331400    11A    -11.308129    12A    -11.298816
      13A    -11.298438    14A    -11.293451    15A    -11.236040
      16A    -11.235647    17A     -1.417301    18A     -1.381773
      19A     -1.376789    20A     -1.365421    21A     -1.296072
      22A     -1.261146    23A     -1.178101    24A     -1.073919
      25A     -1.062334    26A     -1.020392    27A     -0.928314
      28A     -0.888159    29A     -0.872383    30A     -0.830301
      31A     -0.803474    32A     -0.754762    33A     -0.735200
      34A     -0.724236    35A     -0.713168    36A     -0.700956
      37A     -0.692797    38A     -0.674269    39A     -0.649672
      40A     -0.640928    41A     -0.621883    42A     -0.614202
      43A     -0.605923    44A     -0.595764    45A     -0.586064
      46A     -0.572269    47A     -0.564593    48A     -0.552181
      49A     -0.529441    50A     -0.519184    51A     -0.510283
      52A     -0.483994    53A     -0.479622    54A     -0.470998
      55A     -0.458494    56A     -0.447166    57A     -0.439225
      58A     -0.412303    59A     -0.386205    60A     -0.330576

  @DF-RHF Final Energy:  -811.47782065013701

   => Energetics <=

    Nuclear Repulsion Energy =           1184.9383999365763884
    One-Electron Energy =               -3464.9931288772190783
    Two-Electron Energy =                1468.5769082905055711
    Total Energy =                       -811.4778206501371187
  Basis Set: (AUG-CC-PVTZ AUX)
    Blend: AUG-CC-PVTZ-RI
    Molecular point group: c1

    Geometry (in Angstrom), charge = 0, multiplicity = 1:

       Center              X                  Y                   Z               Mass
    ------------   -----------------  -----------------  -----------------  -----------------
         O           -1.495655128854     0.328707511447    -1.068468450302    15.994914619570
         O           -3.669782128854    -1.394757488553    -0.247956450302    15.994914619570
         O           -1.717275128854     2.879270511447     0.018982549698    15.994914619570
         O            1.159634871146    -2.470484488553     0.106434549698    15.994914619570
         N            0.658105871146    -0.289382488553    -0.320949450302    14.003074004430
         N            2.887233871146    -0.939090488553     0.229820549698    14.003074004430
         N            4.537534871146     0.643533511447     0.397502549698    14.003074004430
         C           -2.794824128854    -0.660200488553     0.605288549698    12.000000000000
         C           -1.404920128854    -1.286198488553     0.675785549698    12.000000000000
         C           -2.518670128854     0.654000511447    -0.110604450302    12.000000000000
         C           -0.720081128854    -0.754912488553    -0.592587450302    12.000000000000
         C           -2.067554128854     1.758132511447     0.827716549698    12.000000000000
         C            1.028360871146     1.009479511447    -0.469832450302    12.000000000000
         C            1.581940871146    -1.312848488553     0.020042549698    12.000000000000
         C            2.322612871146     1.373454511447    -0.243303450302    12.000000000000
         C            3.263561971146     0.293714911447     0.118866449698    12.000000000000
         H           -3.245002128854    -0.512528488553     1.598799549698     1.007825032230
         H           -0.860311128854    -0.954537488553     1.565392549698     1.007825032230
         H           -1.421155128854    -2.377668488553     0.694476549698     1.007825032230
         H           -0.652445128854    -1.512798488553    -1.377862450302     1.007825032230
         H           -3.385293128854     0.989798511447    -0.686825450302     1.007825032230
         H           -1.211103128854     1.419631511447     1.428793549698     1.007825032230
         H           -2.892932128854     1.999961511447     1.513804549698     1.007825032230
         H           -3.716682128854    -2.303802488553     0.096439549698     1.007825032230
         H            0.240679871146     1.700671511447    -0.751750450302     1.007825032230
         H           -1.458247128854     3.601742511447     0.616212549698     1.007825032230
         H            2.635972871146     2.406622511447    -0.340663450302     1.007825032230
         H            4.928907871146     1.467308511447    -0.040193450302     1.007825032230
         H            5.153574871146    -0.161131488553     0.429669549698     1.007825032230

  Basis Set: AUG-CC-PVTZ
    Blend: AUG-CC-PVTZ
  Basis Set: (AUG-CC-PVTZ AUX)
    Blend: AUG-CC-PVTZ-JKFIT
	 Reference Energy          =    -811.4778206501370050 [Eh]
	 Singles Energy            =      -0.0000000000000000 [Eh]
	 Same-Spin Energy          =      -0.8301055737659843 [Eh]
	 Opposite-Spin Energy      =      -2.5262621268037271 [Eh]
	 Correlation Energy        =      -3.3563677005697112 [Eh]
	 Total Energy              =    -814.8341883507067678 [Eh]

	 ================> DF-SCS-MP2 Energies <==================
	-----------------------------------------------------------
	 SCS Same-Spin Scale       =       0.3333333333333333 [-]
	 SCS Opposite-Spin Scale   =       1.2000000000000000 [-]
	 SCS Same-Spin Energy      =      -0.2767018579219948 [Eh]
	 SCS Opposite-Spin Energy  =      -3.0315145521644724 [Eh]
	 SCS Correlation Energy    =      -3.3082164100864673 [Eh]
	 SCS Total Energy          =    -814.7860370602235207 [Eh]
	-----------------------------------------------------------

  Dipole Moment: [D]
     X:    -0.0084      Y:     4.4844      Z:     2.4774     Total:     5.1233

*** Psi4 exiting successfully. Buy a developer a beer!
