                               Psi4 1.3.2 release

  ==> Input File <==

--------------------------------------------------------------------------
#psi4
#
memory 32 gb

molecule  {
0 1
  O        1.3620710    -0.3800110    -0.9318440
  O        3.2020570     1.9012130    -0.2995130
  O        2.7994070    -2.7489470    -0.4002010
  O       -1.3621860     2.3740050     0.1547830
  N       -0.7982440     0.1994180    -0.2292560
  N       -3.0541720     0.8052390     0.2400120
  N       -4.6734100    -0.8124350     0.4126370
  C        2.7015950     0.8755540     0.5594740
  C        1.2368440     1.1072260     0.8878520
  C        2.6518190    -0.3922910    -0.2854700
  C        0.5739580     0.6830040    -0.4149160
  C        2.8020980    -1.6600160     0.5224700
  C       -1.1273370    -1.1158190    -0.3082760
  C       -1.7322782     1.1578229     0.0759771
  C       -2.4173070    -1.5045610    -0.1045420
  C       -3.3176283    -0.4825988     0.1610553
  H        3.3343810     0.7567850     1.4508530
  H        0.9047070     0.4438290     1.6934890
  H        0.9853290     2.1340670     1.1581470
  H        0.5274540     1.5132540    -1.1249130
  H        3.4174920    -0.3642830    -1.0666260
  H        1.9707490    -1.7331840     1.2432230
  H        3.7460890    -1.6095150     1.0882890
  H        3.1038510     2.7463240     0.1779830
  H       -0.3107400    -1.7892010    -0.5436980
  H        2.9100300    -3.5650720     0.1192120
  H       -2.7034680    -2.5490840    -0.1532500
  H       -5.0287110    -1.6377420    -0.0567190
  H       -5.2994710    -0.0137980     0.3861010
units angstrom
no_reorient  #important for SAPT in psi4, default
symmetry c1  #important for SAPT in psi4, default
}

set PROPERTIES_ORIGIN ["COM"]
properties('MP2/aug-cc-pvtz', properties = ['dipole'])
--------------------------------------------------------------------------

    Molecular point group: c1
  Charge       = 0
  Multiplicity = 1
  Basis Set: AUG-CC-PVTZ
    Blend: AUG-CC-PVTZ
  Basis Set: (AUG-CC-PVTZ AUX)
    Blend: AUG-CC-PVTZ-JKFIT

    Orbital Energies [Eh]
    ---------------------

    Doubly Occupied:

       1A    -20.579788     2A    -20.576320     3A    -20.575688
       4A    -20.492548     5A    -15.632333     6A    -15.582716
       7A    -15.547415     8A    -11.367596     9A    -11.343993
      10A    -11.335296    11A    -11.326004    12A    -11.302681
      13A    -11.299017    14A    -11.295463    15A    -11.241717
      16A    -11.238925    17A     -1.420447    18A     -1.378624
      19A     -1.375372    20A     -1.363837    21A     -1.281073
      22A     -1.260447    23A     -1.164442    24A     -1.085643
      25A     -1.074254    26A     -1.034892    27A     -0.931410
      28A     -0.911689    29A     -0.869873    30A     -0.831763
      31A     -0.809472    32A     -0.756289    33A     -0.745281
      34A     -0.723577    35A     -0.703423    36A     -0.694512
      37A     -0.687876    38A     -0.672565    39A     -0.658935
      40A     -0.640962    41A     -0.632221    42A     -0.620789
      43A     -0.603864    44A     -0.596708    45A     -0.585591
      46A     -0.571206    47A     -0.565690    48A     -0.546056
      49A     -0.530710    50A     -0.525829    51A     -0.507445
      52A     -0.488000    53A     -0.475563    54A     -0.470344
      55A     -0.462613    56A     -0.444382    57A     -0.442123
      58A     -0.416883    59A     -0.384994    60A     -0.339536

  @DF-RHF Final Energy:  -811.46976595946444

   => Energetics <=

    Nuclear Repulsion Energy =           1170.9817693233185310
    One-Electron Energy =               -3436.8536568035092387
    Two-Electron Energy =                1454.4021215207262685
    Total Energy =                       -811.4697659594644392
  Basis Set: (AUG-CC-PVTZ AUX)
    Blend: AUG-CC-PVTZ-RI
    Molecular point group: c1

    Geometry (in Angstrom), charge = 0, multiplicity = 1:

       Center              X                  Y                   Z               Mass
    ------------   -----------------  -----------------  -----------------  -----------------
         O            1.359070939248    -0.377077869484    -0.931129347046    15.994914619570
         O            3.199056939248     1.904146130516    -0.298798347046    15.994914619570
         O            2.796406939248    -2.746013869484    -0.399486347046    15.994914619570
         O           -1.365186060752     2.376938130516     0.155497652954    15.994914619570
         N           -0.801244060752     0.202351130516    -0.228541347046    14.003074004430
         N           -3.057172060752     0.808172130516     0.240726652954    14.003074004430
         N           -4.676410060752    -0.809501869484     0.413351652954    14.003074004430
         C            2.698594939248     0.878487130516     0.560188652954    12.000000000000
         C            1.233843939248     1.110159130516     0.888566652954    12.000000000000
         C            2.648818939248    -0.389357869484    -0.284755347046    12.000000000000
         C            0.570957939248     0.685937130516    -0.414201347046    12.000000000000
         C            2.799097939248    -1.657082869484     0.523184652954    12.000000000000
         C           -1.130337060752    -1.112885869484    -0.307561347046    12.000000000000
         C           -1.735278260752     1.160756030516     0.076691752954    12.000000000000
         C           -2.420307060752    -1.501627869484    -0.103827347046    12.000000000000
         C           -3.320628360752    -0.479665669484     0.161769952954    12.000000000000
         H            3.331380939248     0.759718130516     1.451567652954     1.007825032230
         H            0.901706939248     0.446762130516     1.694203652954     1.007825032230
         H            0.982328939248     2.137000130516     1.158861652954     1.007825032230
         H            0.524453939248     1.516187130516    -1.124198347046     1.007825032230
         H            3.414491939248    -0.361349869484    -1.065911347046     1.007825032230
         H            1.967748939248    -1.730250869484     1.243937652954     1.007825032230
         H            3.743088939248    -1.606581869484     1.089003652954     1.007825032230
         H            3.100850939248     2.749257130516     0.178697652954     1.007825032230
         H           -0.313740060752    -1.786267869484    -0.542983347046     1.007825032230
         H            2.907029939248    -3.562138869484     0.119926652954     1.007825032230
         H           -2.706468060752    -2.546150869484    -0.152535347046     1.007825032230
         H           -5.031711060752    -1.634808869484    -0.056004347046     1.007825032230
         H           -5.302471060752    -0.010864869484     0.386815652954     1.007825032230

  Basis Set: AUG-CC-PVTZ
    Blend: AUG-CC-PVTZ
  Basis Set: (AUG-CC-PVTZ AUX)
    Blend: AUG-CC-PVTZ-JKFIT
	 Reference Energy          =    -811.4697659594644392 [Eh]
	 Singles Energy            =      -0.0000000000000000 [Eh]
	 Same-Spin Energy          =      -0.8307236001983928 [Eh]
	 Opposite-Spin Energy      =      -2.5271079371402378 [Eh]
	 Correlation Energy        =      -3.3578315373386305 [Eh]
	 Total Energy              =    -814.8275974968030368 [Eh]

	 ================> DF-SCS-MP2 Energies <==================
	-----------------------------------------------------------
	 SCS Same-Spin Scale       =       0.3333333333333333 [-]
	 SCS Opposite-Spin Scale   =       1.2000000000000000 [-]
	 SCS Same-Spin Energy      =      -0.2769078667327975 [Eh]
	 SCS Opposite-Spin Energy  =      -3.0325295245682855 [Eh]
	 SCS Correlation Energy    =      -3.3094373913010831 [Eh]
	 SCS Total Energy          =    -814.7792033507655560 [Eh]
	-----------------------------------------------------------

  Dipole Moment: [D]
     X:     1.5053      Y:    -5.0400      Z:     2.3879     Total:     5.7766

*** Psi4 exiting successfully. Buy a developer a beer!
