                               Psi4 1.3.2 release

  ==> Input File <==

--------------------------------------------------------------------------
#psi4
#
memory 32 gb

molecule  {
0 1
  O        1.3620710    -0.3800110    -0.9318440
  O        3.2020570     1.9012130    -0.2995130
  O        2.8007107    -2.7569149    -0.3907170
  O       -1.3621860     2.3740050     0.1547830
  N       -0.7982440     0.1994180    -0.2292560
  N       -3.0541720     0.8052390     0.2400120
  N       -4.6734100    -0.8124350     0.4126370
  C        2.7015950     0.8755540     0.5594740
  C        1.2368440     1.1072260     0.8878520
  C        2.6522546    -0.3852212    -0.2743503
  C        0.5739580     0.6830040    -0.4149160
  C        2.8020980    -1.6600160     0.5224700
  C       -1.1273370    -1.1158190    -0.3082760
  C       -1.7446880     1.2038920     0.0820450
  C       -2.4173070    -1.5045610    -0.1045420
  C       -3.3619920    -0.4731600     0.1685110
  H        3.3343810     0.7567850     1.4508530
  H        0.9047070     0.4438290     1.6934890
  H        0.9853290     2.1340670     1.1581470
  H        0.5274540     1.5132540    -1.1249130
  H        3.4174920    -0.3642830    -1.0666260
  H        1.9707490    -1.7331840     1.2432230
  H        3.7460890    -1.6095150     1.0882890
  H        3.1038510     2.7463240     0.1779830
  H       -0.3107400    -1.7892010    -0.5436980
  H        2.9100300    -3.5650720     0.1192120
  H       -2.7034680    -2.5490840    -0.1532500
  H       -5.0287110    -1.6377420    -0.0567190
  H       -5.2994710    -0.0137980     0.3861010
units angstrom
no_reorient  #important for SAPT in psi4, default
symmetry c1  #important for SAPT in psi4, default
}

set PROPERTIES_ORIGIN ["COM"]
properties('MP2/aug-cc-pvtz', properties = ['dipole'])
--------------------------------------------------------------------------

    Molecular point group: c1
  Charge       = 0
  Multiplicity = 1
  Basis Set: AUG-CC-PVTZ
    Blend: AUG-CC-PVTZ
  Basis Set: (AUG-CC-PVTZ AUX)
    Blend: AUG-CC-PVTZ-JKFIT

    Orbital Energies [Eh]
    ---------------------

    Doubly Occupied:

       1A    -20.576570     2A    -20.574830     3A    -20.572792
       4A    -20.503014     5A    -15.621634     6A    -15.588316
       7A    -15.540746     8A    -11.369831     9A    -11.344987
      10A    -11.330499    11A    -11.318219    12A    -11.301074
      13A    -11.297439    14A    -11.293786    15A    -11.237130
      16A    -11.236964    17A     -1.416086    18A     -1.382615
      19A     -1.375172    20A     -1.366235    21A     -1.292152
      22A     -1.261281    23A     -1.169036    24A     -1.079927
      25A     -1.070165    26A     -1.028225    27A     -0.927788
      28A     -0.897551    29A     -0.869725    30A     -0.830889
      31A     -0.805540    32A     -0.754153    33A     -0.738727
      34A     -0.722535    35A     -0.707362    36A     -0.693730
      37A     -0.689760    38A     -0.675535    39A     -0.656503
      40A     -0.637472    41A     -0.627668    42A     -0.618684
      43A     -0.604603    44A     -0.595189    45A     -0.588574
      46A     -0.572847    47A     -0.567950    48A     -0.544306
      49A     -0.532882    50A     -0.523851    51A     -0.510188
      52A     -0.488716    53A     -0.482162    54A     -0.468455
      55A     -0.461346    56A     -0.444359    57A     -0.437882
      58A     -0.416286    59A     -0.383702    60A     -0.334889

  @DF-RHF Final Energy:  -811.47972412921888

   => Energetics <=

    Nuclear Repulsion Energy =           1169.9230904733356056
    One-Electron Energy =               -3434.8845687551915944
    Two-Electron Energy =                1453.4817541526372224
    Total Energy =                       -811.4797241292189938
  Basis Set: (AUG-CC-PVTZ AUX)
    Blend: AUG-CC-PVTZ-RI
    Molecular point group: c1

    Geometry (in Angstrom), charge = 0, multiplicity = 1:

       Center              X                  Y                   Z               Mass
    ------------   -----------------  -----------------  -----------------  -----------------
         O            1.361956141070    -0.379823410266    -0.933099553468    15.994914619570
         O            3.201942141070     1.901400589734    -0.300768553468    15.994914619570
         O            2.800595841070    -2.756727310266    -0.391972553468    15.994914619570
         O           -1.362300858930     2.374192589734     0.153527446532    15.994914619570
         N           -0.798358858930     0.199605589734    -0.230511553468    14.003074004430
         N           -3.054286858930     0.805426589734     0.238756446532    14.003074004430
         N           -4.673524858930    -0.812247410266     0.411381446532    14.003074004430
         C            2.701480141070     0.875741589734     0.558218446532    12.000000000000
         C            1.236729141070     1.107413589734     0.886596446532    12.000000000000
         C            2.652139741070    -0.385033610266    -0.275605853468    12.000000000000
         C            0.573843141070     0.683191589734    -0.416171553468    12.000000000000
         C            2.801983141070    -1.659828410266     0.521214446532    12.000000000000
         C           -1.127451858930    -1.115631410266    -0.309531553468    12.000000000000
         C           -1.744802858930     1.204079589734     0.080789446532    12.000000000000
         C           -2.417421858930    -1.504373410266    -0.105797553468    12.000000000000
         C           -3.362106858930    -0.472972410266     0.167255446532    12.000000000000
         H            3.334266141070     0.756972589734     1.449597446532     1.007825032230
         H            0.904592141070     0.444016589734     1.692233446532     1.007825032230
         H            0.985214141070     2.134254589734     1.156891446532     1.007825032230
         H            0.527339141070     1.513441589734    -1.126168553468     1.007825032230
         H            3.417377141070    -0.364095410266    -1.067881553468     1.007825032230
         H            1.970634141070    -1.732996410266     1.241967446532     1.007825032230
         H            3.745974141070    -1.609327410266     1.087033446532     1.007825032230
         H            3.103736141070     2.746511589734     0.176727446532     1.007825032230
         H           -0.310854858930    -1.789013410266    -0.544953553468     1.007825032230
         H            2.909915141070    -3.564884410266     0.117956446532     1.007825032230
         H           -2.703582858930    -2.548896410266    -0.154505553468     1.007825032230
         H           -5.028825858930    -1.637554410266    -0.057974553468     1.007825032230
         H           -5.299585858930    -0.013610410266     0.384845446532     1.007825032230

  Basis Set: AUG-CC-PVTZ
    Blend: AUG-CC-PVTZ
  Basis Set: (AUG-CC-PVTZ AUX)
    Blend: AUG-CC-PVTZ-JKFIT
	 Reference Energy          =    -811.4797241292188801 [Eh]
	 Singles Energy            =      -0.0000000000000000 [Eh]
	 Same-Spin Energy          =      -0.8295886385864103 [Eh]
	 Opposite-Spin Energy      =      -2.5248727734494318 [Eh]
	 Correlation Energy        =      -3.3544614120358420 [Eh]
	 Total Energy              =    -814.8341855412546693 [Eh]

	 ================> DF-SCS-MP2 Energies <==================
	-----------------------------------------------------------
	 SCS Same-Spin Scale       =       0.3333333333333333 [-]
	 SCS Opposite-Spin Scale   =       1.2000000000000000 [-]
	 SCS Same-Spin Energy      =      -0.2765295461954701 [Eh]
	 SCS Opposite-Spin Energy  =      -3.0298473281393181 [Eh]
	 SCS Correlation Energy    =      -3.3063768743347883 [Eh]
	 SCS Total Energy          =    -814.7861010035536538 [Eh]
	-----------------------------------------------------------

  Dipole Moment: [D]
     X:     1.0825      Y:    -4.6567      Z:     2.4934     Total:     5.3920

*** Psi4 exiting successfully. Buy a developer a beer!
