                               Psi4 1.3.2 release

  ==> Input File <==

--------------------------------------------------------------------------
#psi4
#
memory 32 gb

molecule  {
0 1
  O        1.3620710    -0.3800110    -0.9318440
  O        3.2020570     1.9012130    -0.2995130
  O        2.8196444    -2.7394213    -0.4111660
  O       -1.3621860     2.3740050     0.1547830
  N       -0.7982440     0.1994180    -0.2292560
  N       -3.0541720     0.8052390     0.2400120
  N       -4.6734100    -0.8124350     0.4126370
  C        2.7015950     0.8755540     0.5594740
  C        1.2368440     1.1072260     0.8878520
  C        2.6518190    -0.3922910    -0.2854700
  C        0.5739580     0.6830040    -0.4149160
  C        2.8020980    -1.6600160     0.5224700
  C       -1.1273370    -1.1158190    -0.3082760
  C       -1.7446880     1.2038920     0.0820450
  C       -2.4173070    -1.5045610    -0.1045420
  C       -3.3619920    -0.4731600     0.1685110
  H        3.3343810     0.7567850     1.4508530
  H        0.9047070     0.4438290     1.6934890
  H        0.9853290     2.1340670     1.1581470
  H        0.5274540     1.5132540    -1.1249130
  H        3.4174920    -0.3642830    -1.0666260
  H        1.9767020    -1.7168556     1.2514901
  H        3.7460890    -1.6095150     1.0882890
  H        3.1038510     2.7463240     0.1779830
  H       -0.3107400    -1.7892010    -0.5436980
  H        2.9100300    -3.5650720     0.1192120
  H       -2.7034680    -2.5490840    -0.1532500
  H       -5.0287110    -1.6377420    -0.0567190
  H       -5.2994710    -0.0137980     0.3861010
units angstrom
no_reorient  #important for SAPT in psi4, default
symmetry c1  #important for SAPT in psi4, default
}

set PROPERTIES_ORIGIN ["COM"]
properties('MP2/aug-cc-pvtz', properties = ['dipole'])
--------------------------------------------------------------------------

    Molecular point group: c1
  Charge       = 0
  Multiplicity = 1
  Basis Set: AUG-CC-PVTZ
    Blend: AUG-CC-PVTZ
  Basis Set: (AUG-CC-PVTZ AUX)
    Blend: AUG-CC-PVTZ-JKFIT

    Orbital Energies [Eh]
    ---------------------

    Doubly Occupied:

       1A    -20.579888     2A    -20.574147     3A    -20.572807
       4A    -20.503093     5A    -15.621790     6A    -15.588425
       7A    -15.540869     8A    -11.369947     9A    -11.345112
      10A    -11.330720    11A    -11.318416    12A    -11.300554
      13A    -11.296700    14A    -11.292531    15A    -11.237133
      16A    -11.236772    17A     -1.416566    18A     -1.382341
      19A     -1.372533    20A     -1.365098    21A     -1.292286
      22A     -1.261475    23A     -1.169170    24A     -1.078974
      25A     -1.068776    26A     -1.027702    27A     -0.926385
      28A     -0.897441    29A     -0.868855    30A     -0.830779
      31A     -0.806360    32A     -0.754288    33A     -0.738746
      34A     -0.720572    35A     -0.706548    36A     -0.690927
      37A     -0.689014    38A     -0.675784    39A     -0.656723
      40A     -0.637296    41A     -0.627596    42A     -0.618325
      43A     -0.604193    44A     -0.594423    45A     -0.588924
      46A     -0.572733    47A     -0.568563    48A     -0.545739
      49A     -0.532561    50A     -0.523616    51A     -0.510151
      52A     -0.485560    53A     -0.482086    54A     -0.468727
      55A     -0.461105    56A     -0.444409    57A     -0.437684
      58A     -0.416386    59A     -0.383790    60A     -0.335006

  @DF-RHF Final Energy:  -811.47792765155418

   => Energetics <=

    Nuclear Repulsion Energy =           1169.8548119492766091
    One-Electron Energy =               -3434.7752324854814105
    Two-Electron Energy =                1453.4424928846506191
    Total Energy =                       -811.4779276515541824
  Basis Set: (AUG-CC-PVTZ AUX)
    Blend: AUG-CC-PVTZ-RI
    Molecular point group: c1

    Geometry (in Angstrom), charge = 0, multiplicity = 1:

       Center              X                  Y                   Z               Mass
    ------------   -----------------  -----------------  -----------------  -----------------
         O            1.360619162395    -0.380754436047    -0.931108345523    15.994914619570
         O            3.200605162395     1.900469563953    -0.298777345523    15.994914619570
         O            2.818192562395    -2.740164736047    -0.410430345523    15.994914619570
         O           -1.363637837605     2.373261563953     0.155518654477    15.994914619570
         N           -0.799695837605     0.198674563953    -0.228520345523    14.003074004430
         N           -3.055623837605     0.804495563953     0.240747654477    14.003074004430
         N           -4.674861837605    -0.813178436047     0.413372654477    14.003074004430
         C            2.700143162395     0.874810563953     0.560209654477    12.000000000000
         C            1.235392162395     1.106482563953     0.888587654477    12.000000000000
         C            2.650367162395    -0.393034436047    -0.284734345523    12.000000000000
         C            0.572506162395     0.682260563953    -0.414180345523    12.000000000000
         C            2.800646162395    -1.660759436047     0.523205654477    12.000000000000
         C           -1.128788837605    -1.116562436047    -0.307540345523    12.000000000000
         C           -1.746139837605     1.203148563953     0.082780654477    12.000000000000
         C           -2.418758837605    -1.505304436047    -0.103806345523    12.000000000000
         C           -3.363443837605    -0.473903436047     0.169246654477    12.000000000000
         H            3.332929162395     0.756041563953     1.451588654477     1.007825032230
         H            0.903255162395     0.443085563953     1.694224654477     1.007825032230
         H            0.983877162395     2.133323563953     1.158882654477     1.007825032230
         H            0.526002162395     1.512510563953    -1.124177345523     1.007825032230
         H            3.416040162395    -0.365026436047    -1.065890345523     1.007825032230
         H            1.975250162395    -1.717599036047     1.252225754477     1.007825032230
         H            3.744637162395    -1.610258436047     1.089024654477     1.007825032230
         H            3.102399162395     2.745580563953     0.178718654477     1.007825032230
         H           -0.312191837605    -1.789944436047    -0.542962345523     1.007825032230
         H            2.908578162395    -3.565815436047     0.119947654477     1.007825032230
         H           -2.704919837605    -2.549827436047    -0.152514345523     1.007825032230
         H           -5.030162837605    -1.638485436047    -0.055983345523     1.007825032230
         H           -5.300922837605    -0.014541436047     0.386836654477     1.007825032230

  Basis Set: AUG-CC-PVTZ
    Blend: AUG-CC-PVTZ
  Basis Set: (AUG-CC-PVTZ AUX)
    Blend: AUG-CC-PVTZ-JKFIT
	 Reference Energy          =    -811.4779276515541824 [Eh]
	 Singles Energy            =      -0.0000000000000000 [Eh]
	 Same-Spin Energy          =      -0.8298796972246720 [Eh]
	 Opposite-Spin Energy      =      -2.5256595438121057 [Eh]
	 Correlation Energy        =      -3.3555392410367775 [Eh]
	 Total Energy              =    -814.8334668925909909 [Eh]

	 ================> DF-SCS-MP2 Energies <==================
	-----------------------------------------------------------
	 SCS Same-Spin Scale       =       0.3333333333333333 [-]
	 SCS Opposite-Spin Scale   =       1.2000000000000000 [-]
	 SCS Same-Spin Energy      =      -0.2766265657415573 [Eh]
	 SCS Opposite-Spin Energy  =      -3.0307914525745265 [Eh]
	 SCS Correlation Energy    =      -3.3074180183160840 [Eh]
	 SCS Total Energy          =    -814.7853456698702530 [Eh]
	-----------------------------------------------------------

  Dipole Moment: [D]
     X:     1.0303      Y:    -4.7005      Z:     2.5005     Total:     5.4230

*** Psi4 exiting successfully. Buy a developer a beer!
