                               Psi4 1.3.2 release

  ==> Input File <==

--------------------------------------------------------------------------
#psi4
#
memory 32 gb

molecule  {
0 1
  O        1.3620710    -0.3800110    -0.9318440
  O        3.2020570     1.9012130    -0.2995130
  O        2.7994070    -2.7489470    -0.4002010
  O       -1.3621860     2.3740050     0.1547830
  N       -0.7982440     0.1994180    -0.2292560
  N       -3.0541720     0.8052390     0.2400120
  N       -4.6734100    -0.8124350     0.4126370
  C        2.7015950     0.8755540     0.5594740
  C        1.2368440     1.1072260     0.8878520
  C        2.5624211    -0.3914398    -0.3302729
  C        0.5739580     0.6830040    -0.4149160
  C        2.8020980    -1.6600160     0.5224700
  C       -1.1273370    -1.1158190    -0.3082760
  C       -1.7446880     1.2038920     0.0820450
  C       -2.4173070    -1.5045610    -0.1045420
  C       -3.3619920    -0.4731600     0.1685110
  H        3.3343810     0.7567850     1.4508530
  H        0.9047070     0.4438290     1.6934890
  H        0.9853290     2.1340670     1.1581470
  H        0.5274540     1.5132540    -1.1249130
  H        3.4174920    -0.3642830    -1.0666260
  H        1.9707490    -1.7331840     1.2432230
  H        3.7460890    -1.6095150     1.0882890
  H        3.1038510     2.7463240     0.1779830
  H       -0.3107400    -1.7892010    -0.5436980
  H        2.9100300    -3.5650720     0.1192120
  H       -2.7034680    -2.5490840    -0.1532500
  H       -5.0287110    -1.6377420    -0.0567190
  H       -5.2994710    -0.0137980     0.3861010
units angstrom
no_reorient  #important for SAPT in psi4, default
symmetry c1  #important for SAPT in psi4, default
}

set PROPERTIES_ORIGIN ["COM"]
properties('MP2/aug-cc-pvtz', properties = ['dipole'])
--------------------------------------------------------------------------

    Molecular point group: c1
  Charge       = 0
  Multiplicity = 1
  Basis Set: AUG-CC-PVTZ
    Blend: AUG-CC-PVTZ
  Basis Set: (AUG-CC-PVTZ AUX)
    Blend: AUG-CC-PVTZ-JKFIT

    Orbital Energies [Eh]
    ---------------------

    Doubly Occupied:

       1A    -20.582969     2A    -20.573983     3A    -20.572323
       4A    -20.505207     5A    -15.624919     6A    -15.590007
       7A    -15.542864     8A    -11.372298     9A    -11.347074
      10A    -11.336948    11A    -11.321007    12A    -11.298303
      13A    -11.292522    14A    -11.291886    15A    -11.239398
      16A    -11.236816    17A     -1.446969    18A     -1.385524
      19A     -1.370781    20A     -1.367677    21A     -1.295139
      22A     -1.265776    23A     -1.171640    24A     -1.082581
      25A     -1.063330    26A     -1.024964    27A     -0.924947
      28A     -0.900791    29A     -0.867302    30A     -0.837777
      31A     -0.805296    32A     -0.756246    33A     -0.744446
      34A     -0.723511    35A     -0.707553    36A     -0.692985
      37A     -0.688411    38A     -0.677999    39A     -0.661014
      40A     -0.639032    41A     -0.632553    42A     -0.619941
      43A     -0.609873    44A     -0.600101    45A     -0.592983
      46A     -0.575194    47A     -0.566982    48A     -0.547155
      49A     -0.538278    50A     -0.527902    51A     -0.509718
      52A     -0.484689    53A     -0.470783    54A     -0.465997
      55A     -0.456287    56A     -0.443520    57A     -0.431973
      58A     -0.417822    59A     -0.385628    60A     -0.337285

  @DF-RHF Final Energy:  -811.47163138021597

   => Energetics <=

    Nuclear Repulsion Energy =           1171.4881608439407046
    One-Electron Energy =               -3437.8298210270650088
    Two-Electron Energy =                1454.8700288029081094
    Total Energy =                       -811.4716313802159675
  Basis Set: (AUG-CC-PVTZ AUX)
    Blend: AUG-CC-PVTZ-RI
    Molecular point group: c1

    Geometry (in Angstrom), charge = 0, multiplicity = 1:

       Center              X                  Y                   Z               Mass
    ------------   -----------------  -----------------  -----------------  -----------------
         O            1.366794978704    -0.380056016455    -0.929476475504    15.994914619570
         O            3.206780978704     1.901167983545    -0.297145475504    15.994914619570
         O            2.804130978704    -2.748992016455    -0.397833475504    15.994914619570
         O           -1.357462021296     2.373959983545     0.157150524496    15.994914619570
         N           -0.793520021296     0.199372983545    -0.226888475504    14.003074004430
         N           -3.049448021296     0.805193983545     0.242379524496    14.003074004430
         N           -4.668686021296    -0.812480016455     0.415004524496    14.003074004430
         C            2.706318978704     0.875508983545     0.561841524496    12.000000000000
         C            1.241567978704     1.107180983545     0.890219524496    12.000000000000
         C            2.567145078704    -0.391484816455    -0.327905375504    12.000000000000
         C            0.578681978704     0.682958983545    -0.412548475504    12.000000000000
         C            2.806821978704    -1.660061016455     0.524837524496    12.000000000000
         C           -1.122613021296    -1.115864016455    -0.305908475504    12.000000000000
         C           -1.739964021296     1.203846983545     0.084412524496    12.000000000000
         C           -2.412583021296    -1.504606016455    -0.102174475504    12.000000000000
         C           -3.357268021296    -0.473205016455     0.170878524496    12.000000000000
         H            3.339104978704     0.756739983545     1.453220524496     1.007825032230
         H            0.909430978704     0.443783983545     1.695856524496     1.007825032230
         H            0.990052978704     2.134021983545     1.160514524496     1.007825032230
         H            0.532177978704     1.513208983545    -1.122545475504     1.007825032230
         H            3.422215978704    -0.364328016455    -1.064258475504     1.007825032230
         H            1.975472978704    -1.733229016455     1.245590524496     1.007825032230
         H            3.750812978704    -1.609560016455     1.090656524496     1.007825032230
         H            3.108574978704     2.746278983545     0.180350524496     1.007825032230
         H           -0.306016021296    -1.789246016455    -0.541330475504     1.007825032230
         H            2.914753978704    -3.565117016455     0.121579524496     1.007825032230
         H           -2.698744021296    -2.549129016455    -0.150882475504     1.007825032230
         H           -5.023987021296    -1.637787016455    -0.054351475504     1.007825032230
         H           -5.294747021296    -0.013843016455     0.388468524496     1.007825032230

  Basis Set: AUG-CC-PVTZ
    Blend: AUG-CC-PVTZ
  Basis Set: (AUG-CC-PVTZ AUX)
    Blend: AUG-CC-PVTZ-JKFIT
	 Reference Energy          =    -811.4716313802159675 [Eh]
	 Singles Energy            =      -0.0000000000000000 [Eh]
	 Same-Spin Energy          =      -0.8297480718215767 [Eh]
	 Opposite-Spin Energy      =      -2.5244327358488183 [Eh]
	 Correlation Energy        =      -3.3541808076703949 [Eh]
	 Total Energy              =    -814.8258121878864131 [Eh]

	 ================> DF-SCS-MP2 Energies <==================
	-----------------------------------------------------------
	 SCS Same-Spin Scale       =       0.3333333333333333 [-]
	 SCS Opposite-Spin Scale   =       1.2000000000000000 [-]
	 SCS Same-Spin Energy      =      -0.2765826906071922 [Eh]
	 SCS Opposite-Spin Energy  =      -3.0293192830185820 [Eh]
	 SCS Correlation Energy    =      -3.3059019736257742 [Eh]
	 SCS Total Energy          =    -814.7775333538417044 [Eh]
	-----------------------------------------------------------

  Dipole Moment: [D]
     X:     0.6447      Y:    -4.5743      Z:     2.3855     Total:     5.1991

*** Psi4 exiting successfully. Buy a developer a beer!
