                               Psi4 1.3.2 release

  ==> Input File <==

--------------------------------------------------------------------------
#psi4
#
memory 32 gb

molecule  {
0 1
  O        1.3620710    -0.3800110    -0.9318440
  O        3.2020570     1.9012130    -0.2995130
  O        2.7994070    -2.7489470    -0.4002010
  O       -1.3621860     2.3740050     0.1547830
  N       -0.7982440     0.1994180    -0.2292560
  N       -3.0541720     0.8052390     0.2400120
  N       -4.6734100    -0.8124350     0.4126370
  C        2.7042615     0.8670390     0.5507699
  C        1.2368440     1.1072260     0.8878520
  C        2.6518190    -0.3922910    -0.2854700
  C        0.5739580     0.6830040    -0.4149160
  C        2.8020980    -1.6600160     0.5224700
  C       -1.1273370    -1.1158190    -0.3082760
  C       -1.7446880     1.2038920     0.0820450
  C       -2.4173070    -1.5045610    -0.1045420
  C       -3.3619920    -0.4731600     0.1685110
  H        3.3343810     0.7567850     1.4508530
  H        0.9047070     0.4438290     1.6934890
  H        0.9853290     2.1340670     1.1581470
  H        0.5274540     1.5132540    -1.1249130
  H        3.4174920    -0.3642830    -1.0666260
  H        1.9707490    -1.7331840     1.2432230
  H        3.7460890    -1.6095150     1.0882890
  H        3.1072361     2.7504297     0.1713368
  H       -0.3107400    -1.7892010    -0.5436980
  H        2.9100300    -3.5650720     0.1192120
  H       -2.7034680    -2.5490840    -0.1532500
  H       -5.0287110    -1.6377420    -0.0567190
  H       -5.2994710    -0.0137980     0.3861010
units angstrom
no_reorient  #important for SAPT in psi4, default
symmetry c1  #important for SAPT in psi4, default
}

set PROPERTIES_ORIGIN ["COM"]
properties('MP2/aug-cc-pvtz', properties = ['dipole'])
--------------------------------------------------------------------------

    Molecular point group: c1
  Charge       = 0
  Multiplicity = 1
  Basis Set: AUG-CC-PVTZ
    Blend: AUG-CC-PVTZ
  Basis Set: (AUG-CC-PVTZ AUX)
    Blend: AUG-CC-PVTZ-JKFIT

    Orbital Energies [Eh]
    ---------------------

    Doubly Occupied:

       1A    -20.577949     2A    -20.573745     3A    -20.572952
       4A    -20.502988     5A    -15.621629     6A    -15.588299
       7A    -15.540738     8A    -11.369823     9A    -11.344967
      10A    -11.330561    11A    -11.318217    12A    -11.301088
      13A    -11.297200    14A    -11.292914    15A    -11.236951
      16A    -11.236801    17A     -1.416919    18A     -1.382348
      19A     -1.373429    20A     -1.365436    21A     -1.292167
      22A     -1.261374    23A     -1.169051    24A     -1.078790
      25A     -1.069793    26A     -1.027988    27A     -0.926914
      28A     -0.897605    29A     -0.869498    30A     -0.831005
      31A     -0.805962    32A     -0.754182    33A     -0.738483
      34A     -0.721360    35A     -0.706906    36A     -0.692996
      37A     -0.689853    38A     -0.675810    39A     -0.656544
      40A     -0.636885    41A     -0.627181    42A     -0.618125
      43A     -0.604502    44A     -0.595330    45A     -0.588453
      46A     -0.572272    47A     -0.568357    48A     -0.545049
      49A     -0.532431    50A     -0.524384    51A     -0.510259
      52A     -0.487253    53A     -0.482028    54A     -0.468466
      55A     -0.460170    56A     -0.444178    57A     -0.437969
      58A     -0.416264    59A     -0.383620    60A     -0.334825

  @DF-RHF Final Energy:  -811.47932933618949

   => Energetics <=

    Nuclear Repulsion Energy =           1170.0462892120667675
    One-Electron Energy =               -3435.1527707619643479
    Two-Electron Energy =                1453.6271522137080865
    Total Energy =                       -811.4793293361894939
  Basis Set: (AUG-CC-PVTZ AUX)
    Blend: AUG-CC-PVTZ-RI
    Molecular point group: c1

    Geometry (in Angstrom), charge = 0, multiplicity = 1:

       Center              X                  Y                   Z               Mass
    ------------   -----------------  -----------------  -----------------  -----------------
         O            1.361915056947    -0.379579305530    -0.931354524979    15.994914619570
         O            3.201901056947     1.901644694470    -0.299023524979    15.994914619570
         O            2.799251056947    -2.748515305530    -0.399711524979    15.994914619570
         O           -1.362341943053     2.374436694470     0.155272475021    15.994914619570
         N           -0.798399943053     0.199849694470    -0.228766524979    14.003074004430
         N           -3.054327943053     0.805670694470     0.240501475021    14.003074004430
         N           -4.673565943053    -0.812003305530     0.413126475021    14.003074004430
         C            2.704105556947     0.867470694470     0.551259375021    12.000000000000
         C            1.236688056947     1.107657694470     0.888341475021    12.000000000000
         C            2.651663056947    -0.391859305530    -0.284980524979    12.000000000000
         C            0.573802056947     0.683435694470    -0.414426524979    12.000000000000
         C            2.801942056947    -1.659584305530     0.522959475021    12.000000000000
         C           -1.127492943053    -1.115387305530    -0.307786524979    12.000000000000
         C           -1.744843943053     1.204323694470     0.082534475021    12.000000000000
         C           -2.417462943053    -1.504129305530    -0.104052524979    12.000000000000
         C           -3.362147943053    -0.472728305530     0.169000475021    12.000000000000
         H            3.334225056947     0.757216694470     1.451342475021     1.007825032230
         H            0.904551056947     0.444260694470     1.693978475021     1.007825032230
         H            0.985173056947     2.134498694470     1.158636475021     1.007825032230
         H            0.527298056947     1.513685694470    -1.124423524979     1.007825032230
         H            3.417336056947    -0.363851305530    -1.066136524979     1.007825032230
         H            1.970593056947    -1.732752305530     1.243712475021     1.007825032230
         H            3.745933056947    -1.609083305530     1.088778475021     1.007825032230
         H            3.107080156947     2.750861394470     0.171826275021     1.007825032230
         H           -0.310895943053    -1.788769305530    -0.543208524979     1.007825032230
         H            2.909874056947    -3.564640305530     0.119701475021     1.007825032230
         H           -2.703623943053    -2.548652305530    -0.152760524979     1.007825032230
         H           -5.028866943053    -1.637310305530    -0.056229524979     1.007825032230
         H           -5.299626943053    -0.013366305530     0.386590475021     1.007825032230

  Basis Set: AUG-CC-PVTZ
    Blend: AUG-CC-PVTZ
  Basis Set: (AUG-CC-PVTZ AUX)
    Blend: AUG-CC-PVTZ-JKFIT
	 Reference Energy          =    -811.4793293361894939 [Eh]
	 Singles Energy            =      -0.0000000000000000 [Eh]
	 Same-Spin Energy          =      -0.8296575885852933 [Eh]
	 Opposite-Spin Energy      =      -2.5250800328648966 [Eh]
	 Correlation Energy        =      -3.3547376214501901 [Eh]
	 Total Energy              =    -814.8340669576397204 [Eh]

	 ================> DF-SCS-MP2 Energies <==================
	-----------------------------------------------------------
	 SCS Same-Spin Scale       =       0.3333333333333333 [-]
	 SCS Opposite-Spin Scale   =       1.2000000000000000 [-]
	 SCS Same-Spin Energy      =      -0.2765525295284311 [Eh]
	 SCS Opposite-Spin Energy  =      -3.0300960394378760 [Eh]
	 SCS Correlation Energy    =      -3.3066485689663070 [Eh]
	 SCS Total Energy          =    -814.7859779051558462 [Eh]
	-----------------------------------------------------------

  Dipole Moment: [D]
     X:     1.0868      Y:    -4.6808      Z:     2.4783     Total:     5.4067

*** Psi4 exiting successfully. Buy a developer a beer!
