                               Psi4 1.3.2 release

  ==> Input File <==

--------------------------------------------------------------------------
#psi4
#
memory 32 gb

molecule  {
0 1
  O        1.3620710    -0.3800110    -0.9318440
  O        3.2020570     1.9012130    -0.2995130
  O        2.7994070    -2.7489470    -0.4002010
  O       -1.3220316     2.3605682     0.1470438
  N       -0.7982440     0.1994180    -0.2292560
  N       -3.0403212     0.7597596     0.2327342
  N       -4.6734100    -0.8124350     0.4126370
  C        2.7015950     0.8755540     0.5594740
  C        1.2368440     1.1072260     0.8878520
  C        2.6518190    -0.3922910    -0.2854700
  C        0.5739580     0.6830040    -0.4149160
  C        2.8020980    -1.6600160     0.5224700
  C       -1.1273370    -1.1158190    -0.3082760
  C       -1.7446880     1.2038920     0.0820450
  C       -2.4173070    -1.5045610    -0.1045420
  C       -3.3619920    -0.4731600     0.1685110
  H        3.3343810     0.7567850     1.4508530
  H        0.9047070     0.4438290     1.6934890
  H        0.9853290     2.1340670     1.1581470
  H        0.5274540     1.5132540    -1.1249130
  H        3.4174920    -0.3642830    -1.0666260
  H        1.9707490    -1.7331840     1.2432230
  H        3.7460890    -1.6095150     1.0882890
  H        3.1038510     2.7463240     0.1779830
  H       -0.3107400    -1.7892010    -0.5436980
  H        2.9100300    -3.5650720     0.1192120
  H       -2.7034680    -2.5490840    -0.1532500
  H       -5.0287110    -1.6377420    -0.0567190
  H       -5.2994710    -0.0137980     0.3861010
units angstrom
no_reorient  #important for SAPT in psi4, default
symmetry c1  #important for SAPT in psi4, default
}

set PROPERTIES_ORIGIN ["COM"]
properties('MP2/aug-cc-pvtz', properties = ['dipole'])
--------------------------------------------------------------------------

    Molecular point group: c1
  Charge       = 0
  Multiplicity = 1
  Basis Set: AUG-CC-PVTZ
    Blend: AUG-CC-PVTZ
  Basis Set: (AUG-CC-PVTZ AUX)
    Blend: AUG-CC-PVTZ-JKFIT

    Orbital Energies [Eh]
    ---------------------

    Doubly Occupied:

       1A    -20.576980     2A    -20.573777     3A    -20.571532
       4A    -20.508460     5A    -15.618877     6A    -15.585663
       7A    -15.538421     8A    -11.375108     9A    -11.339883
      10A    -11.329118    11A    -11.314791    12A    -11.300081
      13A    -11.296059    14A    -11.292168    15A    -11.235932
      16A    -11.234128    17A     -1.416073    18A     -1.385783
      19A     -1.372864    20A     -1.365449    21A     -1.299109
      22A     -1.261091    23A     -1.175287    24A     -1.077579
      25A     -1.067356    26A     -1.027249    27A     -0.927030
      28A     -0.895562    29A     -0.874356    30A     -0.830744
      31A     -0.805334    32A     -0.754778    33A     -0.737555
      34A     -0.720399    35A     -0.707978    36A     -0.692088
      37A     -0.689184    38A     -0.676084    39A     -0.656445
      40A     -0.636178    41A     -0.629325    42A     -0.619295
      43A     -0.605972    44A     -0.595034    45A     -0.590463
      46A     -0.572541    47A     -0.568321    48A     -0.544480
      49A     -0.533760    50A     -0.522968    51A     -0.510125
      52A     -0.485115    53A     -0.481952    54A     -0.467719
      55A     -0.460728    56A     -0.447716    57A     -0.436982
      58A     -0.412943    59A     -0.388915    60A     -0.334081

  @DF-RHF Final Energy:  -811.47794989516024

   => Energetics <=

    Nuclear Repulsion Energy =           1171.7647310067875424
    One-Electron Energy =               -3438.5834213544094382
    Two-Electron Energy =                1455.3407404524614321
    Total Energy =                       -811.4779498951602363
  Basis Set: (AUG-CC-PVTZ AUX)
    Blend: AUG-CC-PVTZ-RI
    Molecular point group: c1

    Geometry (in Angstrom), charge = 0, multiplicity = 1:

       Center              X                  Y                   Z               Mass
    ------------   -----------------  -----------------  -----------------  -----------------
         O            1.358388665420    -0.376260235166    -0.930850091922    15.994914619570
         O            3.198374665420     1.904963764834    -0.298519091922    15.994914619570
         O            2.795724665420    -2.745196235166    -0.399207091922    15.994914619570
         O           -1.325713934580     2.364318964834     0.148037708078    15.994914619570
         N           -0.801926334580     0.203168764834    -0.228262091922    14.003074004430
         N           -3.044003534580     0.763510364834     0.233728108078    14.003074004430
         N           -4.677092334580    -0.808684235166     0.413630908078    14.003074004430
         C            2.697912665420     0.879304764834     0.560467908078    12.000000000000
         C            1.233161665420     1.110976764834     0.888845908078    12.000000000000
         C            2.648136665420    -0.388540235166    -0.284476091922    12.000000000000
         C            0.570275665420     0.686754764834    -0.413922091922    12.000000000000
         C            2.798415665420    -1.656265235166     0.523463908078    12.000000000000
         C           -1.131019334580    -1.112068235166    -0.307282091922    12.000000000000
         C           -1.748370334580     1.207642764834     0.083038908078    12.000000000000
         C           -2.420989334580    -1.500810235166    -0.103548091922    12.000000000000
         C           -3.365674334580    -0.469409235166     0.169504908078    12.000000000000
         H            3.330698665420     0.760535764834     1.451846908078     1.007825032230
         H            0.901024665420     0.447579764834     1.694482908078     1.007825032230
         H            0.981646665420     2.137817764834     1.159140908078     1.007825032230
         H            0.523771665420     1.517004764834    -1.123919091922     1.007825032230
         H            3.413809665420    -0.360532235166    -1.065632091922     1.007825032230
         H            1.967066665420    -1.729433235166     1.244216908078     1.007825032230
         H            3.742406665420    -1.605764235166     1.089282908078     1.007825032230
         H            3.100168665420     2.750074764834     0.178976908078     1.007825032230
         H           -0.314422334580    -1.785450235166    -0.542704091922     1.007825032230
         H            2.906347665420    -3.561321235166     0.120205908078     1.007825032230
         H           -2.707150334580    -2.545333235166    -0.152256091922     1.007825032230
         H           -5.032393334580    -1.633991235166    -0.055725091922     1.007825032230
         H           -5.303153334580    -0.010047235166     0.387094908078     1.007825032230

  Basis Set: AUG-CC-PVTZ
    Blend: AUG-CC-PVTZ
  Basis Set: (AUG-CC-PVTZ AUX)
    Blend: AUG-CC-PVTZ-JKFIT
	 Reference Energy          =    -811.4779498951602363 [Eh]
	 Singles Energy            =      -0.0000000000000000 [Eh]
	 Same-Spin Energy          =      -0.8296472113158408 [Eh]
	 Opposite-Spin Energy      =      -2.5245693204792103 [Eh]
	 Correlation Energy        =      -3.3542165317950512 [Eh]
	 Total Energy              =    -814.8321664269552684 [Eh]

	 ================> DF-SCS-MP2 Energies <==================
	-----------------------------------------------------------
	 SCS Same-Spin Scale       =       0.3333333333333333 [-]
	 SCS Opposite-Spin Scale   =       1.2000000000000000 [-]
	 SCS Same-Spin Energy      =      -0.2765490704386136 [Eh]
	 SCS Opposite-Spin Energy  =      -3.0294831845750525 [Eh]
	 SCS Correlation Energy    =      -3.3060322550136663 [Eh]
	 SCS Total Energy          =    -814.7839821501738697 [Eh]
	-----------------------------------------------------------

  Dipole Moment: [D]
     X:     0.9973      Y:    -4.4521      Z:     2.5132     Total:     5.2089

*** Psi4 exiting successfully. Buy a developer a beer!
