                               Psi4 1.3.2 release

  ==> Input File <==

--------------------------------------------------------------------------
#psi4
#
memory 32 gb

molecule  {
0 1
  O        1.3620710    -0.3800110    -0.9318440
  O        3.2020570     1.9012130    -0.2995130
  O        2.7994070    -2.7489470    -0.4002010
  O       -1.3621860     2.3740050     0.1547830
  N       -0.7982440     0.1994180    -0.2292560
  N       -3.0541720     0.8052390     0.2400120
  N       -4.6734100    -0.8124350     0.4126370
  C        2.7015950     0.8755540     0.5594740
  C        1.2368440     1.1072260     0.8878520
  C        2.6518190    -0.3922910    -0.2854700
  C        0.5739580     0.6830040    -0.4149160
  C        2.8020980    -1.6600160     0.5224700
  C       -1.1273370    -1.1158190    -0.3082760
  C       -1.7414354     1.1924181     0.0805097
  C       -2.4173070    -1.5045610    -0.1045420
  C       -3.3509341    -0.4756662     0.1666385
  H        3.3343810     0.7567850     1.4508530
  H        0.9047070     0.4438290     1.6934890
  H        0.9853290     2.1340670     1.1581470
  H        0.5274540     1.5132540    -1.1249130
  H        3.4174920    -0.3642830    -1.0666260
  H        1.9707490    -1.7331840     1.2432230
  H        3.7460890    -1.6095150     1.0882890
  H        3.1038510     2.7463240     0.1779830
  H       -0.3107400    -1.7892010    -0.5436980
  H        2.9100300    -3.5650720     0.1192120
  H       -2.7034680    -2.5490840    -0.1532500
  H       -5.0287110    -1.6377420    -0.0567190
  H       -5.2994710    -0.0137980     0.3861010
units angstrom
no_reorient  #important for SAPT in psi4, default
symmetry c1  #important for SAPT in psi4, default
}

set PROPERTIES_ORIGIN ["COM"]
properties('MP2/aug-cc-pvtz', properties = ['dipole'])
--------------------------------------------------------------------------

    Molecular point group: c1
  Charge       = 0
  Multiplicity = 1
  Basis Set: AUG-CC-PVTZ
    Blend: AUG-CC-PVTZ
  Basis Set: (AUG-CC-PVTZ AUX)
    Blend: AUG-CC-PVTZ-JKFIT

    Orbital Energies [Eh]
    ---------------------

    Doubly Occupied:

       1A    -20.578270     2A    -20.574686     3A    -20.573756
       4A    -20.500412     5A    -15.624459     6A    -15.586939
       7A    -15.542372     8A    -11.369317     9A    -11.344733
      10A    -11.331892    11A    -11.320226    12A    -11.301322
      13A    -11.297412    14A    -11.293683    15A    -11.238201
      16A    -11.237331    17A     -1.417523    18A     -1.380311
      19A     -1.374035    20A     -1.365272    21A     -1.290038
      22A     -1.261155    23A     -1.168148    24A     -1.080374
      25A     -1.070477    26A     -1.029756    27A     -0.927905
      28A     -0.900930    29A     -0.869141    30A     -0.831114
      31A     -0.807147    32A     -0.754614    33A     -0.740333
      34A     -0.721576    35A     -0.705438    36A     -0.693249
      37A     -0.688976    38A     -0.675201    39A     -0.657243
      40A     -0.638122    41A     -0.628569    42A     -0.618687
      43A     -0.604102    44A     -0.595535    45A     -0.587865
      46A     -0.572215    47A     -0.569264    48A     -0.545165
      49A     -0.531795    50A     -0.524316    51A     -0.509550
      52A     -0.486408    53A     -0.480680    54A     -0.469002
      55A     -0.461451    56A     -0.443795    57A     -0.438547
      58A     -0.417714    59A     -0.383992    60A     -0.336269

  @DF-RHF Final Energy:  -811.47817759592681

   => Energetics <=

    Nuclear Repulsion Energy =           1170.1914897273954921
    One-Electron Energy =               -3435.4033204501774890
    Two-Electron Energy =                1453.7336531268551880
    Total Energy =                       -811.4781775959268089
  Basis Set: (AUG-CC-PVTZ AUX)
    Blend: AUG-CC-PVTZ-RI
    Molecular point group: c1

    Geometry (in Angstrom), charge = 0, multiplicity = 1:

       Center              X                  Y                   Z               Mass
    ------------   -----------------  -----------------  -----------------  -----------------
         O            1.361314783717    -0.379272295793    -0.931663889633    15.994914619570
         O            3.201300783717     1.901951704207    -0.299332889633    15.994914619570
         O            2.798650783717    -2.748208295793    -0.400020889633    15.994914619570
         O           -1.362942216283     2.374743704207     0.154963110367    15.994914619570
         N           -0.799000216283     0.200156704207    -0.229075889633    14.003074004430
         N           -3.054928216283     0.805977704207     0.240192110367    14.003074004430
         N           -4.674166216283    -0.811696295793     0.412817110367    14.003074004430
         C            2.700838783717     0.876292704207     0.559654110367    12.000000000000
         C            1.236087783717     1.107964704207     0.888032110367    12.000000000000
         C            2.651062783717    -0.391552295793    -0.285289889633    12.000000000000
         C            0.573201783717     0.683742704207    -0.414735889633    12.000000000000
         C            2.801341783717    -1.659277295793     0.522650110367    12.000000000000
         C           -1.128093216283    -1.115080295793    -0.308095889633    12.000000000000
         C           -1.742191616283     1.193156804207     0.080689810367    12.000000000000
         C           -2.418063216283    -1.503822295793    -0.104361889633    12.000000000000
         C           -3.351690316283    -0.474927495793     0.166818610367    12.000000000000
         H            3.333624783717     0.757523704207     1.451033110367     1.007825032230
         H            0.903950783717     0.444567704207     1.693669110367     1.007825032230
         H            0.984572783717     2.134805704207     1.158327110367     1.007825032230
         H            0.526697783717     1.513992704207    -1.124732889633     1.007825032230
         H            3.416735783717    -0.363544295793    -1.066445889633     1.007825032230
         H            1.969992783717    -1.732445295793     1.243403110367     1.007825032230
         H            3.745332783717    -1.608776295793     1.088469110367     1.007825032230
         H            3.103094783717     2.747062704207     0.178163110367     1.007825032230
         H           -0.311496216283    -1.788462295793    -0.543517889633     1.007825032230
         H            2.909273783717    -3.564333295793     0.119392110367     1.007825032230
         H           -2.704224216283    -2.548345295793    -0.153069889633     1.007825032230
         H           -5.029467216283    -1.637003295793    -0.056538889633     1.007825032230
         H           -5.300227216283    -0.013059295793     0.386281110367     1.007825032230

  Basis Set: AUG-CC-PVTZ
    Blend: AUG-CC-PVTZ
  Basis Set: (AUG-CC-PVTZ AUX)
    Blend: AUG-CC-PVTZ-JKFIT
	 Reference Energy          =    -811.4781775959268089 [Eh]
	 Singles Energy            =      -0.0000000000000000 [Eh]
	 Same-Spin Energy          =      -0.8298959049259359 [Eh]
	 Opposite-Spin Energy      =      -2.5255809848152695 [Eh]
	 Correlation Energy        =      -3.3554768897412055 [Eh]
	 Total Energy              =    -814.8336544856680348 [Eh]

	 ================> DF-SCS-MP2 Energies <==================
	-----------------------------------------------------------
	 SCS Same-Spin Scale       =       0.3333333333333333 [-]
	 SCS Opposite-Spin Scale   =       1.2000000000000000 [-]
	 SCS Same-Spin Energy      =      -0.2766319683086453 [Eh]
	 SCS Opposite-Spin Energy  =      -3.0306971817783235 [Eh]
	 SCS Correlation Energy    =      -3.3073291500869688 [Eh]
	 SCS Total Energy          =    -814.7855067460137661 [Eh]
	-----------------------------------------------------------

  Dipole Moment: [D]
     X:     1.1851      Y:    -4.7709      Z:     2.4635     Total:     5.4986

*** Psi4 exiting successfully. Buy a developer a beer!
