                               Psi4 1.3.2 release

  ==> Input File <==

--------------------------------------------------------------------------
#psi4
#
memory 32 gb

molecule  {
0 1
  O        1.3620710    -0.3800110    -0.9318440
  O        3.2020570     1.9012130    -0.2995130
  O        2.7892882    -2.7535857    -0.3946129
  O       -1.3621860     2.3740050     0.1547830
  N       -0.7982440     0.1994180    -0.2292560
  N       -3.0541720     0.8052390     0.2400120
  N       -4.6734100    -0.8124350     0.4126370
  C        2.7015950     0.8755540     0.5594740
  C        1.2368440     1.1072260     0.8878520
  C        2.6518190    -0.3922910    -0.2854700
  C        0.5739580     0.6830040    -0.4149160
  C        2.8020980    -1.6600160     0.5224700
  C       -1.1273370    -1.1158190    -0.3082760
  C       -1.7446880     1.2038920     0.0820450
  C       -2.4173070    -1.5045610    -0.1045420
  C       -3.3619920    -0.4731600     0.1685110
  H        3.3343810     0.7567850     1.4508530
  H        0.9047070     0.4438290     1.6934890
  H        0.9853290     2.1340670     1.1581470
  H        0.5274540     1.5132540    -1.1249130
  H        3.4174920    -0.3642830    -1.0666260
  H        1.9678673    -1.7413401     1.2390070
  H        3.7460890    -1.6095150     1.0882890
  H        3.1038510     2.7463240     0.1779830
  H       -0.3107400    -1.7892010    -0.5436980
  H        2.9100300    -3.5650720     0.1192120
  H       -2.7034680    -2.5490840    -0.1532500
  H       -5.0287110    -1.6377420    -0.0567190
  H       -5.2994710    -0.0137980     0.3861010
units angstrom
no_reorient  #important for SAPT in psi4, default
symmetry c1  #important for SAPT in psi4, default
}

set PROPERTIES_ORIGIN ["COM"]
properties('MP2/aug-cc-pvtz', properties = ['dipole'])
--------------------------------------------------------------------------

    Molecular point group: c1
  Charge       = 0
  Multiplicity = 1
  Basis Set: AUG-CC-PVTZ
    Blend: AUG-CC-PVTZ
  Basis Set: (AUG-CC-PVTZ AUX)
    Blend: AUG-CC-PVTZ-JKFIT

    Orbital Energies [Eh]
    ---------------------

    Doubly Occupied:

       1A    -20.576704     2A    -20.574438     3A    -20.572919
       4A    -20.503011     5A    -15.621687     6A    -15.588309
       7A    -15.540749     8A    -11.369855     9A    -11.344982
      10A    -11.330743    11A    -11.318206    12A    -11.301006
      13A    -11.296946    14A    -11.293345    15A    -11.236950
      16A    -11.236793    17A     -1.416707    18A     -1.382469
      19A     -1.374127    20A     -1.365975    21A     -1.292182
      22A     -1.261384    23A     -1.169064    24A     -1.078985
      25A     -1.069001    26A     -1.028083    27A     -0.926990
      28A     -0.897461    29A     -0.869039    30A     -0.830806
      31A     -0.806379    32A     -0.754195    33A     -0.738713
      34A     -0.721138    35A     -0.706938    36A     -0.693787
      37A     -0.689328    38A     -0.675774    39A     -0.656538
      40A     -0.637058    41A     -0.627587    42A     -0.618608
      43A     -0.604801    44A     -0.595415    45A     -0.588567
      46A     -0.572785    47A     -0.568849    48A     -0.544422
      49A     -0.532499    50A     -0.523768    51A     -0.510531
      52A     -0.486021    53A     -0.482073    54A     -0.468360
      55A     -0.461086    56A     -0.444484    57A     -0.437906
      58A     -0.416303    59A     -0.383699    60A     -0.334880

  @DF-RHF Final Energy:  -811.47987429033526

   => Energetics <=

    Nuclear Repulsion Energy =           1169.9824715645793276
    One-Electron Energy =               -3435.0218732464095410
    Two-Electron Energy =                1453.5595273914946119
    Total Energy =                       -811.4798742903353741
  Basis Set: (AUG-CC-PVTZ AUX)
    Blend: AUG-CC-PVTZ-RI
    Molecular point group: c1

    Geometry (in Angstrom), charge = 0, multiplicity = 1:

       Center              X                  Y                   Z               Mass
    ------------   -----------------  -----------------  -----------------  -----------------
         O            1.362796481254    -0.379648117890    -0.932218847825    15.994914619570
         O            3.202782481254     1.901575882110    -0.299887847825    15.994914619570
         O            2.790013681254    -2.753222817890    -0.394987747825    15.994914619570
         O           -1.361460518746     2.374367882110     0.154408152175    15.994914619570
         N           -0.797518518746     0.199780882110    -0.229630847825    14.003074004430
         N           -3.053446518746     0.805601882110     0.239637152175    14.003074004430
         N           -4.672684518746    -0.812072117890     0.412262152175    14.003074004430
         C            2.702320481254     0.875916882110     0.559099152175    12.000000000000
         C            1.237569481254     1.107588882110     0.887477152175    12.000000000000
         C            2.652544481254    -0.391928117890    -0.285844847825    12.000000000000
         C            0.574683481254     0.683366882110    -0.415290847825    12.000000000000
         C            2.802823481254    -1.659653117890     0.522095152175    12.000000000000
         C           -1.126611518746    -1.115456117890    -0.308650847825    12.000000000000
         C           -1.743962518746     1.204254882110     0.081670152175    12.000000000000
         C           -2.416581518746    -1.504198117890    -0.104916847825    12.000000000000
         C           -3.361266518746    -0.472797117890     0.168136152175    12.000000000000
         H            3.335106481254     0.757147882110     1.450478152175     1.007825032230
         H            0.905432481254     0.444191882110     1.693114152175     1.007825032230
         H            0.986054481254     2.134429882110     1.157772152175     1.007825032230
         H            0.528179481254     1.513616882110    -1.125287847825     1.007825032230
         H            3.418217481254    -0.363920117890    -1.067000847825     1.007825032230
         H            1.968592781254    -1.740977217890     1.238632152175     1.007825032230
         H            3.746814481254    -1.609152117890     1.087914152175     1.007825032230
         H            3.104576481254     2.746686882110     0.177608152175     1.007825032230
         H           -0.310014518746    -1.788838117890    -0.544072847825     1.007825032230
         H            2.910755481254    -3.564709117890     0.118837152175     1.007825032230
         H           -2.702742518746    -2.548721117890    -0.153624847825     1.007825032230
         H           -5.027985518746    -1.637379117890    -0.057093847825     1.007825032230
         H           -5.298745518746    -0.013435117890     0.385726152175     1.007825032230

  Basis Set: AUG-CC-PVTZ
    Blend: AUG-CC-PVTZ
  Basis Set: (AUG-CC-PVTZ AUX)
    Blend: AUG-CC-PVTZ-JKFIT
	 Reference Energy          =    -811.4798742903352604 [Eh]
	 Singles Energy            =      -0.0000000000000000 [Eh]
	 Same-Spin Energy          =      -0.8295519025329376 [Eh]
	 Opposite-Spin Energy      =      -2.5249051689699402 [Eh]
	 Correlation Energy        =      -3.3544570715028779 [Eh]
	 Total Energy              =    -814.8343313618381671 [Eh]

	 ================> DF-SCS-MP2 Energies <==================
	-----------------------------------------------------------
	 SCS Same-Spin Scale       =       0.3333333333333333 [-]
	 SCS Opposite-Spin Scale   =       1.2000000000000000 [-]
	 SCS Same-Spin Energy      =      -0.2765173008443125 [Eh]
	 SCS Opposite-Spin Energy  =      -3.0298862027639282 [Eh]
	 SCS Correlation Energy    =      -3.3064035036082409 [Eh]
	 SCS Total Energy          =    -814.7862777939435546 [Eh]
	-----------------------------------------------------------

  Dipole Moment: [D]
     X:     1.0977      Y:    -4.6679      Z:     2.4833     Total:     5.4000

*** Psi4 exiting successfully. Buy a developer a beer!
