                               Psi4 1.3.2 release

  ==> Input File <==

--------------------------------------------------------------------------
#psi4
#
memory 32 gb

molecule  {
0 1
  O        1.3620710    -0.3800110    -0.9318440
  O        3.2020570     1.9012130    -0.2995130
  O        2.7994070    -2.7489470    -0.4002010
  O       -1.3621860     2.3740050     0.1547830
  N       -0.7982440     0.1994180    -0.2292560
  N       -3.0541720     0.8052390     0.2400120
  N       -4.6734100    -0.8124350     0.4126370
  C        2.7069658     0.8586028     0.5420010
  C        1.2368440     1.1072260     0.8878520
  C        2.6518190    -0.3922910    -0.2854700
  C        0.5739580     0.6830040    -0.4149160
  C        2.8020980    -1.6600160     0.5224700
  C       -1.1273370    -1.1158190    -0.3082760
  C       -1.7446880     1.2038920     0.0820450
  C       -2.4173070    -1.5045610    -0.1045420
  C       -3.3619920    -0.4731600     0.1685110
  H        3.3343810     0.7567850     1.4508530
  H        0.9047070     0.4438290     1.6934890
  H        0.9853290     2.1340670     1.1581470
  H        0.5274540     1.5132540    -1.1249130
  H        3.4174920    -0.3642830    -1.0666260
  H        1.9707490    -1.7331840     1.2432230
  H        3.7460890    -1.6095150     1.0882890
  H        3.1106284     2.7544707     0.1646547
  H       -0.3107400    -1.7892010    -0.5436980
  H        2.9100300    -3.5650720     0.1192120
  H       -2.7034680    -2.5490840    -0.1532500
  H       -5.0287110    -1.6377420    -0.0567190
  H       -5.2994710    -0.0137980     0.3861010
units angstrom
no_reorient  #important for SAPT in psi4, default
symmetry c1  #important for SAPT in psi4, default
}

set PROPERTIES_ORIGIN ["COM"]
properties('MP2/aug-cc-pvtz', properties = ['dipole'])
--------------------------------------------------------------------------

    Molecular point group: c1
  Charge       = 0
  Multiplicity = 1
  Basis Set: AUG-CC-PVTZ
    Blend: AUG-CC-PVTZ
  Basis Set: (AUG-CC-PVTZ AUX)
    Blend: AUG-CC-PVTZ-JKFIT

    Orbital Energies [Eh]
    ---------------------

    Doubly Occupied:

       1A    -20.578143     2A    -20.573147     3A    -20.573023
       4A    -20.502936     5A    -15.621537     6A    -15.588250
       7A    -15.540687     8A    -11.369761     9A    -11.344907
      10A    -11.330389    11A    -11.318158    12A    -11.301365
      13A    -11.297538    14A    -11.292729    15A    -11.236890
      16A    -11.236830    17A     -1.417188    18A     -1.382288
      19A     -1.373318    20A     -1.365126    21A     -1.292117
      22A     -1.261335    23A     -1.169004    24A     -1.078682
      25A     -1.070676    26A     -1.027974    27A     -0.927074
      28A     -0.897759    29A     -0.870020    30A     -0.831202
      31A     -0.805550    32A     -0.754143    33A     -0.738234
      34A     -0.721837    35A     -0.707012    36A     -0.693161
      37A     -0.690405    38A     -0.675827    39A     -0.656493
      40A     -0.636652    41A     -0.626787    42A     -0.617757
      43A     -0.604411    44A     -0.595595    45A     -0.588222
      46A     -0.571769    47A     -0.567965    48A     -0.545277
      49A     -0.532425    50A     -0.525046    51A     -0.510130
      52A     -0.488449    53A     -0.481897    54A     -0.468478
      55A     -0.459168    56A     -0.443847    57A     -0.438065
      58A     -0.416191    59A     -0.383506    60A     -0.334726

  @DF-RHF Final Energy:  -811.47889903929968

   => Energetics <=

    Nuclear Repulsion Energy =           1170.1532282935370404
    One-Electron Energy =               -3435.3660948216615907
    Two-Electron Energy =                1453.7339674888246464
    Total Energy =                       -811.4788990392996766
  Basis Set: (AUG-CC-PVTZ AUX)
    Blend: AUG-CC-PVTZ-RI
    Molecular point group: c1

    Geometry (in Angstrom), charge = 0, multiplicity = 1:

       Center              X                  Y                   Z               Mass
    ------------   -----------------  -----------------  -----------------  -----------------
         O            1.361757100414    -0.379151450847    -0.930861500676    15.994914619570
         O            3.201743100414     1.902072549153    -0.298530500676    15.994914619570
         O            2.799093100414    -2.748087450847    -0.399218500676    15.994914619570
         O           -1.362499899586     2.374864549153     0.155765499324    15.994914619570
         N           -0.798557899586     0.200277549153    -0.228273500676    14.003074004430
         N           -3.054485899586     0.806098549153     0.240994499324    14.003074004430
         N           -4.673723899586    -0.811575450847     0.413619499324    14.003074004430
         C            2.706651900414     0.859462349153     0.542983499324    12.000000000000
         C            1.236530100414     1.108085549153     0.888834499324    12.000000000000
         C            2.651505100414    -0.391431450847    -0.284487500676    12.000000000000
         C            0.573644100414     0.683863549153    -0.413933500676    12.000000000000
         C            2.801784100414    -1.659156450847     0.523452499324    12.000000000000
         C           -1.127650899586    -1.114959450847    -0.307293500676    12.000000000000
         C           -1.745001899586     1.204751549153     0.083027499324    12.000000000000
         C           -2.417620899586    -1.503701450847    -0.103559500676    12.000000000000
         C           -3.362305899586    -0.472300450847     0.169493499324    12.000000000000
         H            3.334067100414     0.757644549153     1.451835499324     1.007825032230
         H            0.904393100414     0.444688549153     1.694471499324     1.007825032230
         H            0.985015100414     2.134926549153     1.159129499324     1.007825032230
         H            0.527140100414     1.514113549153    -1.123930500676     1.007825032230
         H            3.417178100414    -0.363423450847    -1.065643500676     1.007825032230
         H            1.970435100414    -1.732324450847     1.244205499324     1.007825032230
         H            3.745775100414    -1.608655450847     1.089271499324     1.007825032230
         H            3.110314500414     2.755330249153     0.165637199324     1.007825032230
         H           -0.311053899586    -1.788341450847    -0.542715500676     1.007825032230
         H            2.909716100414    -3.564212450847     0.120194499324     1.007825032230
         H           -2.703781899586    -2.548224450847    -0.152267500676     1.007825032230
         H           -5.029024899586    -1.636882450847    -0.055736500676     1.007825032230
         H           -5.299784899586    -0.012938450847     0.387083499324     1.007825032230

  Basis Set: AUG-CC-PVTZ
    Blend: AUG-CC-PVTZ
  Basis Set: (AUG-CC-PVTZ AUX)
    Blend: AUG-CC-PVTZ-JKFIT
	 Reference Energy          =    -811.4788990392996766 [Eh]
	 Singles Energy            =      -0.0000000000000000 [Eh]
	 Same-Spin Energy          =      -0.8296789745995564 [Eh]
	 Opposite-Spin Energy      =      -2.5250483645999875 [Eh]
	 Correlation Energy        =      -3.3547273391995440 [Eh]
	 Total Energy              =    -814.8336263784992752 [Eh]

	 ================> DF-SCS-MP2 Energies <==================
	-----------------------------------------------------------
	 SCS Same-Spin Scale       =       0.3333333333333333 [-]
	 SCS Opposite-Spin Scale   =       1.2000000000000000 [-]
	 SCS Same-Spin Energy      =      -0.2765596581998521 [Eh]
	 SCS Opposite-Spin Energy  =      -3.0300580375199848 [Eh]
	 SCS Correlation Energy    =      -3.3066176957198370 [Eh]
	 SCS Total Energy          =    -814.7855167350195416 [Eh]
	-----------------------------------------------------------

  Dipole Moment: [D]
     X:     1.0985      Y:    -4.6829      Z:     2.4668     Total:     5.4057

*** Psi4 exiting successfully. Buy a developer a beer!
