                               Psi4 1.3.2 release

  ==> Input File <==

--------------------------------------------------------------------------
#psi4
#
memory 32 gb

molecule  {
0 1
  O        1.3620710    -0.3800110    -0.9318440
  O        3.2020570     1.9012130    -0.2995130
  O        2.7994070    -2.7489470    -0.4002010
  O       -1.3621860     2.3740050     0.1547830
  N       -0.7982440     0.1994180    -0.2292560
  N       -3.0541720     0.8052390     0.2400120
  N       -4.6734100    -0.8124350     0.4126370
  C        2.7015950     0.8755540     0.5594740
  C        1.2368440     1.1072260     0.8878520
  C        2.6518190    -0.3922910    -0.2854700
  C        0.5739580     0.6830040    -0.4149160
  C        2.8020980    -1.6600160     0.5224700
  C       -1.1273370    -1.1158190    -0.3082760
  C       -1.7446880     1.2038920     0.0820450
  C       -2.4173070    -1.5045610    -0.1045420
  C       -3.3619920    -0.4731600     0.1685110
  H        3.3343810     0.7567850     1.4508530
  H        0.9047070     0.4438290     1.6934890
  H        0.9853290     2.1340670     1.1581470
  H        0.5274540     1.5132540    -1.1249130
  H        3.4174920    -0.3642830    -1.0666260
  H        1.9707490    -1.7331840     1.2432230
  H        3.7460890    -1.6095150     1.0882890
  H        3.1038510     2.7463240     0.1779830
  H       -0.3107400    -1.7892010    -0.5436980
  H        2.9100300    -3.5650720     0.1192120
  H       -2.7034680    -2.5490840    -0.1532500
  H       -5.0637596    -1.7191542    -0.1030185
  H       -5.2994710    -0.0137980     0.3861010
units angstrom
no_reorient  #important for SAPT in psi4, default
symmetry c1  #important for SAPT in psi4, default
}

set PROPERTIES_ORIGIN ["COM"]
properties('MP2/aug-cc-pvtz', properties = ['dipole'])
--------------------------------------------------------------------------

    Molecular point group: c1
  Charge       = 0
  Multiplicity = 1
  Basis Set: AUG-CC-PVTZ
    Blend: AUG-CC-PVTZ
  Basis Set: (AUG-CC-PVTZ AUX)
    Blend: AUG-CC-PVTZ-JKFIT

    Orbital Energies [Eh]
    ---------------------

    Doubly Occupied:

       1A    -20.577646     2A    -20.574216     3A    -20.572700
       4A    -20.502868     5A    -15.621338     6A    -15.597148
       7A    -15.540741     8A    -11.369777     9A    -11.344844
      10A    -11.330524    11A    -11.317777    12A    -11.300715
      13A    -11.296742    14A    -11.292935    15A    -11.236611
      16A    -11.236567    17A     -1.416469    18A     -1.382212
      19A     -1.373458    20A     -1.365564    21A     -1.290370
      22A     -1.258080    23A     -1.161965    24A     -1.078707
      25A     -1.068581    26A     -1.027189    27A     -0.925645
      28A     -0.897072    29A     -0.865654    30A     -0.828708
      31A     -0.806170    32A     -0.751336    33A     -0.738077
      34A     -0.720119    35A     -0.703957    36A     -0.692635
      37A     -0.687829    38A     -0.667315    39A     -0.649295
      40A     -0.635622    41A     -0.627343    42A     -0.618120
      43A     -0.603436    44A     -0.594677    45A     -0.587142
      46A     -0.572497    47A     -0.568547    48A     -0.544635
      49A     -0.531888    50A     -0.523551    51A     -0.510039
      52A     -0.485707    53A     -0.481863    54A     -0.468372
      55A     -0.460905    56A     -0.444257    57A     -0.437551
      58A     -0.416042    59A     -0.382617    60A     -0.334582

  @DF-RHF Final Energy:  -811.46888598157511

   => Energetics <=

    Nuclear Repulsion Energy =           1169.4096044914217600
    One-Electron Energy =               -3433.9590959092170124
    Two-Electron Energy =                1453.0806054362201394
    Total Energy =                       -811.4688859815751130
  Basis Set: (AUG-CC-PVTZ AUX)
    Blend: AUG-CC-PVTZ-RI
    Molecular point group: c1

    Geometry (in Angstrom), charge = 0, multiplicity = 1:

       Center              X                  Y                   Z               Mass
    ------------   -----------------  -----------------  -----------------  -----------------
         O            1.362226529298    -0.379649730810    -0.931638489220    15.994914619570
         O            3.202212529298     1.901574269190    -0.299307489220    15.994914619570
         O            2.799562529298    -2.748585730810    -0.399995489220    15.994914619570
         O           -1.362030470702     2.374366269190     0.154988510780    15.994914619570
         N           -0.798088470702     0.199779269190    -0.229050489220    14.003074004430
         N           -3.054016470702     0.805600269190     0.240217510780    14.003074004430
         N           -4.673254470702    -0.812073730810     0.412842510780    14.003074004430
         C            2.701750529298     0.875915269190     0.559679510780    12.000000000000
         C            1.236999529298     1.107587269190     0.888057510780    12.000000000000
         C            2.651974529298    -0.391929730810    -0.285264489220    12.000000000000
         C            0.574113529298     0.683365269190    -0.414710489220    12.000000000000
         C            2.802253529298    -1.659654730810     0.522675510780    12.000000000000
         C           -1.127181470702    -1.115457730810    -0.308070489220    12.000000000000
         C           -1.744532470702     1.204253269190     0.082250510780    12.000000000000
         C           -2.417151470702    -1.504199730810    -0.104336489220    12.000000000000
         C           -3.361836470702    -0.472798730810     0.168716510780    12.000000000000
         H            3.334536529298     0.757146269190     1.451058510780     1.007825032230
         H            0.904862529298     0.444190269190     1.693694510780     1.007825032230
         H            0.985484529298     2.134428269190     1.158352510780     1.007825032230
         H            0.527609529298     1.513615269190    -1.124707489220     1.007825032230
         H            3.417647529298    -0.363921730810    -1.066420489220     1.007825032230
         H            1.970904529298    -1.732822730810     1.243428510780     1.007825032230
         H            3.746244529298    -1.609153730810     1.088494510780     1.007825032230
         H            3.104006529298     2.746685269190     0.178188510780     1.007825032230
         H           -0.310584470702    -1.788839730810    -0.543492489220     1.007825032230
         H            2.910185529298    -3.564710730810     0.119417510780     1.007825032230
         H           -2.703312470702    -2.548722730810    -0.153044489220     1.007825032230
         H           -5.063604070702    -1.718792930810    -0.102812989220     1.007825032230
         H           -5.299315470702    -0.013436730810     0.386306510780     1.007825032230

  Basis Set: AUG-CC-PVTZ
    Blend: AUG-CC-PVTZ
  Basis Set: (AUG-CC-PVTZ AUX)
    Blend: AUG-CC-PVTZ-JKFIT
	 Reference Energy          =    -811.4688859815751130 [Eh]
	 Singles Energy            =      -0.0000000000000000 [Eh]
	 Same-Spin Energy          =      -0.8302461953814297 [Eh]
	 Opposite-Spin Energy      =      -2.5269314042734869 [Eh]
	 Correlation Energy        =      -3.3571775996549169 [Eh]
	 Total Energy              =    -814.8260635812300734 [Eh]

	 ================> DF-SCS-MP2 Energies <==================
	-----------------------------------------------------------
	 SCS Same-Spin Scale       =       0.3333333333333333 [-]
	 SCS Opposite-Spin Scale   =       1.2000000000000000 [-]
	 SCS Same-Spin Energy      =      -0.2767487317938099 [Eh]
	 SCS Opposite-Spin Energy  =      -3.0323176851281843 [Eh]
	 SCS Correlation Energy    =      -3.3090664169219943 [Eh]
	 SCS Total Energy          =    -814.7779523984970638 [Eh]
	-----------------------------------------------------------

  Dipole Moment: [D]
     X:     1.0283      Y:    -4.7408      Z:     2.4604     Total:     5.4394

*** Psi4 exiting successfully. Buy a developer a beer!
