                               Psi4 1.3.2 release

  ==> Input File <==

--------------------------------------------------------------------------
#psi4
#
memory 32 gb

molecule  {
0 1
  O        1.3620710    -0.3800110    -0.9318440
  O        3.2020570     1.9012130    -0.2995130
  O        2.7994070    -2.7489470    -0.4002010
  O       -1.3621860     2.3740050     0.1547830
  N       -0.7982440     0.1994180    -0.2292560
  N       -3.0541720     0.8052390     0.2400120
  N       -4.6734100    -0.8124350     0.4126370
  C        2.7015950     0.8755540     0.5594740
  C        1.2368440     1.1072260     0.8878520
  C        2.6518190    -0.3922910    -0.2854700
  C        0.5887081     0.6348695    -0.4242158
  C        2.8020980    -1.6600160     0.5224700
  C       -1.1273370    -1.1158190    -0.3082760
  C       -1.7797327     1.1691393     0.0837185
  C       -2.4173070    -1.5045610    -0.1045420
  C       -3.3619920    -0.4731600     0.1685110
  H        3.3343810     0.7567850     1.4508530
  H        0.9047070     0.4438290     1.6934890
  H        0.9853290     2.1340670     1.1581470
  H        0.5274540     1.5132540    -1.1249130
  H        3.4174920    -0.3642830    -1.0666260
  H        1.9707490    -1.7331840     1.2432230
  H        3.7460890    -1.6095150     1.0882890
  H        3.1038510     2.7463240     0.1779830
  H       -0.3107400    -1.7892010    -0.5436980
  H        2.9100300    -3.5650720     0.1192120
  H       -2.7034680    -2.5490840    -0.1532500
  H       -5.0287110    -1.6377420    -0.0567190
  H       -5.2994710    -0.0137980     0.3861010
units angstrom
no_reorient  #important for SAPT in psi4, default
symmetry c1  #important for SAPT in psi4, default
}

set PROPERTIES_ORIGIN ["COM"]
properties('MP2/aug-cc-pvtz', properties = ['dipole'])
--------------------------------------------------------------------------

    Molecular point group: c1
  Charge       = 0
  Multiplicity = 1
  Basis Set: AUG-CC-PVTZ
    Blend: AUG-CC-PVTZ
  Basis Set: (AUG-CC-PVTZ AUX)
    Blend: AUG-CC-PVTZ-JKFIT

    Orbital Energies [Eh]
    ---------------------

    Doubly Occupied:

       1A    -20.579414     2A    -20.577823     3A    -20.573261
       4A    -20.489182     5A    -15.623700     6A    -15.592525
       7A    -15.544382     8A    -11.367742     9A    -11.350675
      10A    -11.330674    11A    -11.319836    12A    -11.300151
      13A    -11.298787    14A    -11.296261    15A    -11.239334
      16A    -11.234698    17A     -1.430652    18A     -1.375136
      19A     -1.372960    20A     -1.363087    21A     -1.284530
      22A     -1.259903    23A     -1.180886    24A     -1.077636
      25A     -1.072060    26A     -1.028002    27A     -0.927553
      28A     -0.898698    29A     -0.873447    30A     -0.834343
      31A     -0.808460    32A     -0.759156    33A     -0.740637
      34A     -0.722329    35A     -0.708396    36A     -0.695110
      37A     -0.689340    38A     -0.677448    39A     -0.660665
      40A     -0.637422    41A     -0.628271    42A     -0.617413
      43A     -0.602543    44A     -0.598226    45A     -0.585264
      46A     -0.573398    47A     -0.566246    48A     -0.546257
      49A     -0.532398    50A     -0.522917    51A     -0.504869
      52A     -0.487773    53A     -0.475293    54A     -0.469899
      55A     -0.460098    56A     -0.438329    57A     -0.435608
      58A     -0.414284    59A     -0.383933    60A     -0.334028

  @DF-RHF Final Energy:  -811.47188192279850

   => Energetics <=

    Nuclear Repulsion Energy =           1170.4163745642854337
    One-Electron Energy =               -3435.8298135828563318
    Two-Electron Energy =                1453.9415570957723958
    Total Energy =                       -811.4718819227985023
  Basis Set: (AUG-CC-PVTZ AUX)
    Blend: AUG-CC-PVTZ-RI
    Molecular point group: c1

    Geometry (in Angstrom), charge = 0, multiplicity = 1:

       Center              X                  Y                   Z               Mass
    ------------   -----------------  -----------------  -----------------  -----------------
         O            1.363143398328    -0.375631083085    -0.931440974203    15.994914619570
         O            3.203129398328     1.905592916915    -0.299109974203    15.994914619570
         O            2.800479398328    -2.744567083085    -0.399797974203    15.994914619570
         O           -1.361113601672     2.378384916915     0.155186025797    15.994914619570
         N           -0.797171601672     0.203797916915    -0.228852974203    14.003074004430
         N           -3.053099601672     0.809618916915     0.240415025797    14.003074004430
         N           -4.672337601672    -0.808055083085     0.413040025797    14.003074004430
         C            2.702667398328     0.879933916915     0.559877025797    12.000000000000
         C            1.237916398328     1.111605916915     0.888255025797    12.000000000000
         C            2.652891398328    -0.387911083085    -0.285066974203    12.000000000000
         C            0.589780498328     0.639249416915    -0.423812774203    12.000000000000
         C            2.803170398328    -1.655636083085     0.522873025797    12.000000000000
         C           -1.126264601672    -1.111439083085    -0.307872974203    12.000000000000
         C           -1.778660301672     1.173519216915     0.084121525797    12.000000000000
         C           -2.416234601672    -1.500181083085    -0.104138974203    12.000000000000
         C           -3.360919601672    -0.468780083085     0.168914025797    12.000000000000
         H            3.335453398328     0.761164916915     1.451256025797     1.007825032230
         H            0.905779398328     0.448208916915     1.693892025797     1.007825032230
         H            0.986401398328     2.138446916915     1.158550025797     1.007825032230
         H            0.528526398328     1.517633916915    -1.124509974203     1.007825032230
         H            3.418564398328    -0.359903083085    -1.066222974203     1.007825032230
         H            1.971821398328    -1.728804083085     1.243626025797     1.007825032230
         H            3.747161398328    -1.605135083085     1.088692025797     1.007825032230
         H            3.104923398328     2.750703916915     0.178386025797     1.007825032230
         H           -0.309667601672    -1.784821083085    -0.543294974203     1.007825032230
         H            2.911102398328    -3.560692083085     0.119615025797     1.007825032230
         H           -2.702395601672    -2.544704083085    -0.152846974203     1.007825032230
         H           -5.027638601672    -1.633362083085    -0.056315974203     1.007825032230
         H           -5.298398601672    -0.009418083085     0.386504025797     1.007825032230

  Basis Set: AUG-CC-PVTZ
    Blend: AUG-CC-PVTZ
  Basis Set: (AUG-CC-PVTZ AUX)
    Blend: AUG-CC-PVTZ-JKFIT
	 Reference Energy          =    -811.4718819227985023 [Eh]
	 Singles Energy            =      -0.0000000000000000 [Eh]
	 Same-Spin Energy          =      -0.8305295496841030 [Eh]
	 Opposite-Spin Energy      =      -2.5256493879025301 [Eh]
	 Correlation Energy        =      -3.3561789375866331 [Eh]
	 Total Energy              =    -814.8280608603851078 [Eh]

	 ================> DF-SCS-MP2 Energies <==================
	-----------------------------------------------------------
	 SCS Same-Spin Scale       =       0.3333333333333333 [-]
	 SCS Opposite-Spin Scale   =       1.2000000000000000 [-]
	 SCS Same-Spin Energy      =      -0.2768431832280343 [Eh]
	 SCS Opposite-Spin Energy  =      -3.0307792654830359 [Eh]
	 SCS Correlation Energy    =      -3.3076224487110704 [Eh]
	 SCS Total Energy          =    -814.7795043715095744 [Eh]
	-----------------------------------------------------------

  Dipole Moment: [D]
     X:     0.9868      Y:    -5.2051      Z:     2.4608     Total:     5.8414

*** Psi4 exiting successfully. Buy a developer a beer!
