                               Psi4 1.3.2 release

  ==> Input File <==

--------------------------------------------------------------------------
#psi4
#
memory 32 gb

molecule  {
0 1
  O        1.3620710    -0.3800110    -0.9318440
  O        3.1342044     1.9326267    -0.2982810
  O        2.7994070    -2.7489470    -0.4002010
  O       -1.3621860     2.3740050     0.1547830
  N       -0.7982440     0.1994180    -0.2292560
  N       -3.0541720     0.8052390     0.2400120
  N       -4.6734100    -0.8124350     0.4126370
  C        2.7015950     0.8755540     0.5594740
  C        1.2392573     1.1727034     0.8427941
  C        2.6518190    -0.3922910    -0.2854700
  C        0.5739580     0.6830040    -0.4149160
  C        2.8020980    -1.6600160     0.5224700
  C       -1.1273370    -1.1158190    -0.3082760
  C       -1.7446880     1.2038920     0.0820450
  C       -2.4173070    -1.5045610    -0.1045420
  C       -3.3619920    -0.4731600     0.1685110
  H        3.3343810     0.7567850     1.4508530
  H        0.9047070     0.4438290     1.6934890
  H        0.9853290     2.1340670     1.1581470
  H        0.5274540     1.5132540    -1.1249130
  H        3.4174920    -0.3642830    -1.0666260
  H        1.9707490    -1.7331840     1.2432230
  H        3.7460890    -1.6095150     1.0882890
  H        3.1038510     2.7463240     0.1779830
  H       -0.3107400    -1.7892010    -0.5436980
  H        2.9100300    -3.5650720     0.1192120
  H       -2.7034680    -2.5490840    -0.1532500
  H       -5.0287110    -1.6377420    -0.0567190
  H       -5.2994710    -0.0137980     0.3861010
units angstrom
no_reorient  #important for SAPT in psi4, default
symmetry c1  #important for SAPT in psi4, default
}

set PROPERTIES_ORIGIN ["COM"]
properties('MP2/aug-cc-pvtz', properties = ['dipole'])
--------------------------------------------------------------------------

    Molecular point group: c1
  Charge       = 0
  Multiplicity = 1
  Basis Set: AUG-CC-PVTZ
    Blend: AUG-CC-PVTZ
  Basis Set: (AUG-CC-PVTZ AUX)
    Blend: AUG-CC-PVTZ-JKFIT

    Orbital Energies [Eh]
    ---------------------

    Doubly Occupied:

       1A    -20.578550     2A    -20.574321     3A    -20.568111
       4A    -20.502675     5A    -15.621536     6A    -15.587933
       7A    -15.540299     8A    -11.369442     9A    -11.344563
      10A    -11.329390    11A    -11.317947    12A    -11.302696
      13A    -11.297848    14A    -11.295453    15A    -11.237138
      16A    -11.236539    17A     -1.417758    18A     -1.383320
      19A     -1.376673    20A     -1.367810    21A     -1.291790
      22A     -1.260994    23A     -1.168686    24A     -1.079386
      25A     -1.069316    26A     -1.029576    27A     -0.928197
      28A     -0.897137    29A     -0.869706    30A     -0.830369
      31A     -0.808407    32A     -0.753584    33A     -0.740150
      34A     -0.723782    35A     -0.711054    36A     -0.696344
      37A     -0.690651    38A     -0.674095    39A     -0.656586
      40A     -0.636786    41A     -0.625090    42A     -0.616407
      43A     -0.604704    44A     -0.595221    45A     -0.590258
      46A     -0.573258    47A     -0.568611    48A     -0.549106
      49A     -0.532128    50A     -0.528944    51A     -0.502753
      52A     -0.488555    53A     -0.480166    54A     -0.466885
      55A     -0.457418    56A     -0.444283    57A     -0.437602
      58A     -0.415849    59A     -0.383249    60A     -0.334635

  @DF-RHF Final Energy:  -811.47193958852517

   => Energetics <=

    Nuclear Repulsion Energy =           1170.8234012877837813
    One-Electron Energy =               -3436.6672350219687360
    Two-Electron Energy =                1454.3718941456597804
    Total Energy =                       -811.4719395885251743
  Basis Set: (AUG-CC-PVTZ AUX)
    Blend: AUG-CC-PVTZ-RI
    Molecular point group: c1

    Geometry (in Angstrom), charge = 0, multiplicity = 1:

       Center              X                  Y                   Z               Mass
    ------------   -----------------  -----------------  -----------------  -----------------
         O            1.366722594132    -0.385683610975    -0.929549775475    15.994914619570
         O            3.138855994132     1.926954089025    -0.295986775475    15.994914619570
         O            2.804058594132    -2.754619610975    -0.397906775475    15.994914619570
         O           -1.357534405868     2.368332389025     0.157077224525    15.994914619570
         N           -0.793592405868     0.193745389025    -0.226961775475    14.003074004430
         N           -3.049520405868     0.799566389025     0.242306224525    14.003074004430
         N           -4.668758405868    -0.818107610975     0.414931224525    14.003074004430
         C            2.706246594132     0.869881389025     0.561768224525    12.000000000000
         C            1.243908894132     1.167030789025     0.845088324525    12.000000000000
         C            2.656470594132    -0.397963610975    -0.283175775475    12.000000000000
         C            0.578609594132     0.677331389025    -0.412621775475    12.000000000000
         C            2.806749594132    -1.665688610975     0.524764224525    12.000000000000
         C           -1.122685405868    -1.121491610975    -0.305981775475    12.000000000000
         C           -1.740036405868     1.198219389025     0.084339224525    12.000000000000
         C           -2.412655405868    -1.510233610975    -0.102247775475    12.000000000000
         C           -3.357340405868    -0.478832610975     0.170805224525    12.000000000000
         H            3.339032594132     0.751112389025     1.453147224525     1.007825032230
         H            0.909358594132     0.438156389025     1.695783224525     1.007825032230
         H            0.989980594132     2.128394389025     1.160441224525     1.007825032230
         H            0.532105594132     1.507581389025    -1.122618775475     1.007825032230
         H            3.422143594132    -0.369955610975    -1.064331775475     1.007825032230
         H            1.975400594132    -1.738856610975     1.245517224525     1.007825032230
         H            3.750740594132    -1.615187610975     1.090583224525     1.007825032230
         H            3.108502594132     2.740651389025     0.180277224525     1.007825032230
         H           -0.306088405868    -1.794873610975    -0.541403775475     1.007825032230
         H            2.914681594132    -3.570744610975     0.121506224525     1.007825032230
         H           -2.698816405868    -2.554756610975    -0.150955775475     1.007825032230
         H           -5.024059405868    -1.643414610975    -0.054424775475     1.007825032230
         H           -5.294819405868    -0.019470610975     0.388395224525     1.007825032230

  Basis Set: AUG-CC-PVTZ
    Blend: AUG-CC-PVTZ
  Basis Set: (AUG-CC-PVTZ AUX)
    Blend: AUG-CC-PVTZ-JKFIT
	 Reference Energy          =    -811.4719395885251743 [Eh]
	 Singles Energy            =      -0.0000000000000000 [Eh]
	 Same-Spin Energy          =      -0.8293499035406904 [Eh]
	 Opposite-Spin Energy      =      -2.5243465147188728 [Eh]
	 Correlation Energy        =      -3.3536964182595632 [Eh]
	 Total Energy              =    -814.8256360067847481 [Eh]

	 ================> DF-SCS-MP2 Energies <==================
	-----------------------------------------------------------
	 SCS Same-Spin Scale       =       0.3333333333333333 [-]
	 SCS Opposite-Spin Scale   =       1.2000000000000000 [-]
	 SCS Same-Spin Energy      =      -0.2764499678468968 [Eh]
	 SCS Opposite-Spin Energy  =      -3.0292158176626471 [Eh]
	 SCS Correlation Energy    =      -3.3056657855095439 [Eh]
	 SCS Total Energy          =    -814.7776053740346924 [Eh]
	-----------------------------------------------------------

  Dipole Moment: [D]
     X:     1.2802      Y:    -4.7142      Z:     2.4887     Total:     5.4824

*** Psi4 exiting successfully. Buy a developer a beer!
