                               Psi4 1.3.2 release

  ==> Input File <==

--------------------------------------------------------------------------
#psi4
#
memory 32 gb

molecule  {
0 1
  O        1.3620710    -0.3800110    -0.9318440
  O        3.2020570     1.9012130    -0.2995130
  O        2.7994070    -2.7489470    -0.4002010
  O       -1.3621860     2.3740050     0.1547830
  N       -0.7982440     0.1994180    -0.2292560
  N       -3.0541720     0.8052390     0.2400120
  N       -4.6734100    -0.8124350     0.4126370
  C        2.7032534     0.8196141     0.6159656
  C        1.2368440     1.1072260     0.8878520
  C        2.6518190    -0.3922910    -0.2854700
  C        0.5739580     0.6830040    -0.4149160
  C        2.8020980    -1.6600160     0.5224700
  C       -1.1273370    -1.1158190    -0.3082760
  C       -1.7446880     1.2038920     0.0820450
  C       -2.4173070    -1.5045610    -0.1045420
  C       -3.3619920    -0.4731600     0.1685110
  H        3.3343810     0.7567850     1.4508530
  H        0.9577000     0.4220117     1.6953305
  H        0.9853290     2.1340670     1.1581470
  H        0.5274540     1.5132540    -1.1249130
  H        3.4174920    -0.3642830    -1.0666260
  H        1.9707490    -1.7331840     1.2432230
  H        3.7460890    -1.6095150     1.0882890
  H        3.1038510     2.7463240     0.1779830
  H       -0.3107400    -1.7892010    -0.5436980
  H        2.9100300    -3.5650720     0.1192120
  H       -2.7034680    -2.5490840    -0.1532500
  H       -5.0287110    -1.6377420    -0.0567190
  H       -5.2994710    -0.0137980     0.3861010
units angstrom
no_reorient  #important for SAPT in psi4, default
symmetry c1  #important for SAPT in psi4, default
}

set PROPERTIES_ORIGIN ["COM"]
properties('MP2/aug-cc-pvtz', properties = ['dipole'])
--------------------------------------------------------------------------

    Molecular point group: c1
  Charge       = 0
  Multiplicity = 1
  Basis Set: AUG-CC-PVTZ
    Blend: AUG-CC-PVTZ
  Basis Set: (AUG-CC-PVTZ AUX)
    Blend: AUG-CC-PVTZ-JKFIT

    Orbital Energies [Eh]
    ---------------------

    Doubly Occupied:

       1A    -20.578372     2A    -20.575046     3A    -20.564987
       4A    -20.503607     5A    -15.622452     6A    -15.588762
       7A    -15.541261     8A    -11.370466     9A    -11.345533
      10A    -11.332596    11A    -11.318924    12A    -11.300301
      13A    -11.297746    14A    -11.295287    15A    -11.239693
      16A    -11.237609    17A     -1.416508    18A     -1.381937
      19A     -1.370946    20A     -1.343571    21A     -1.292739
      22A     -1.262026    23A     -1.169596    24A     -1.082887
      25A     -1.072456    26A     -1.029285    27A     -0.928110
      28A     -0.897883    29A     -0.869440    30A     -0.831345
      31A     -0.812665    32A     -0.754930    33A     -0.741040
      34A     -0.722709    35A     -0.704919    36A     -0.693426
      37A     -0.676697    38A     -0.675354    39A     -0.656428
      40A     -0.636107    41A     -0.629040    42A     -0.615643
      43A     -0.605484    44A     -0.592768    45A     -0.588847
      46A     -0.573798    47A     -0.567591    48A     -0.544477
      49A     -0.527726    50A     -0.525200    51A     -0.506135
      52A     -0.494701    53A     -0.481976    54A     -0.468057
      55A     -0.462435    56A     -0.446613    57A     -0.438825
      58A     -0.417001    59A     -0.384485    60A     -0.335621

  @DF-RHF Final Energy:  -811.47119026690734

   => Energetics <=

    Nuclear Repulsion Energy =           1169.4075156617896027
    One-Electron Energy =               -3433.8732700582631878
    Two-Electron Energy =                1452.9945641295662426
    Total Energy =                       -811.4711902669073424
  Basis Set: (AUG-CC-PVTZ AUX)
    Blend: AUG-CC-PVTZ-RI
    Molecular point group: c1

    Geometry (in Angstrom), charge = 0, multiplicity = 1:

       Center              X                  Y                   Z               Mass
    ------------   -----------------  -----------------  -----------------  -----------------
         O            1.361748168126    -0.376958216710    -0.934837286907    15.994914619570
         O            3.201734168126     1.904265783290    -0.302506286907    15.994914619570
         O            2.799084168126    -2.745894216710    -0.403194286907    15.994914619570
         O           -1.362508831874     2.377057783290     0.151789713093    15.994914619570
         N           -0.798566831874     0.202470783290    -0.232249286907    14.003074004430
         N           -3.054494831874     0.808291783290     0.237018713093    14.003074004430
         N           -4.673732831874    -0.809382216710     0.409643713093    14.003074004430
         C            2.702930568126     0.822666883290     0.612972313093    12.000000000000
         C            1.236521168126     1.110278783290     0.884858713093    12.000000000000
         C            2.651496168126    -0.389238216710    -0.288463286907    12.000000000000
         C            0.573635168126     0.686056783290    -0.417909286907    12.000000000000
         C            2.801775168126    -1.656963216710     0.519476713093    12.000000000000
         C           -1.127659831874    -1.112766216710    -0.311269286907    12.000000000000
         C           -1.745010831874     1.206944783290     0.079051713093    12.000000000000
         C           -2.417629831874    -1.501508216710    -0.107535286907    12.000000000000
         C           -3.362314831874    -0.470107216710     0.165517713093    12.000000000000
         H            3.334058168126     0.759837783290     1.447859713093     1.007825032230
         H            0.957377168126     0.425064483290     1.692337213093     1.007825032230
         H            0.985006168126     2.137119783290     1.155153713093     1.007825032230
         H            0.527131168126     1.516306783290    -1.127906286907     1.007825032230
         H            3.417169168126    -0.361230216710    -1.069619286907     1.007825032230
         H            1.970426168126    -1.730131216710     1.240229713093     1.007825032230
         H            3.745766168126    -1.606462216710     1.085295713093     1.007825032230
         H            3.103528168126     2.749376783290     0.174989713093     1.007825032230
         H           -0.311062831874    -1.786148216710    -0.546691286907     1.007825032230
         H            2.909707168126    -3.562019216710     0.116218713093     1.007825032230
         H           -2.703790831874    -2.546031216710    -0.156243286907     1.007825032230
         H           -5.029033831874    -1.634689216710    -0.059712286907     1.007825032230
         H           -5.299793831874    -0.010745216710     0.383107713093     1.007825032230

  Basis Set: AUG-CC-PVTZ
    Blend: AUG-CC-PVTZ
  Basis Set: (AUG-CC-PVTZ AUX)
    Blend: AUG-CC-PVTZ-JKFIT
	 Reference Energy          =    -811.4711902669073424 [Eh]
	 Singles Energy            =      -0.0000000000000000 [Eh]
	 Same-Spin Energy          =      -0.8299320298990958 [Eh]
	 Opposite-Spin Energy      =      -2.5266507976159867 [Eh]
	 Correlation Energy        =      -3.3565828275150826 [Eh]
	 Total Energy              =    -814.8277730944224686 [Eh]

	 ================> DF-SCS-MP2 Energies <==================
	-----------------------------------------------------------
	 SCS Same-Spin Scale       =       0.3333333333333333 [-]
	 SCS Opposite-Spin Scale   =       1.2000000000000000 [-]
	 SCS Same-Spin Energy      =      -0.2766440099663652 [Eh]
	 SCS Opposite-Spin Energy  =      -3.0319809571391838 [Eh]
	 SCS Correlation Energy    =      -3.3086249671055490 [Eh]
	 SCS Total Energy          =    -814.7798152340128581 [Eh]
	-----------------------------------------------------------

  Dipole Moment: [D]
     X:     0.9800      Y:    -4.8929      Z:     2.6169     Total:     5.6346

*** Psi4 exiting successfully. Buy a developer a beer!
