                               Psi4 1.3.2 release

  ==> Input File <==

--------------------------------------------------------------------------
#psi4
#
memory 32 gb

molecule  {
0 1
  O        1.3620710    -0.3800110    -0.9318440
  O        3.2020570     1.9012130    -0.2995130
  O        2.7994070    -2.7489470    -0.4002010
  O       -1.3621860     2.3740050     0.1547830
  N       -0.7982440     0.1994180    -0.2292560
  N       -3.0541720     0.8052390     0.2400120
  N       -4.6734100    -0.8124350     0.4126370
  C        2.7015950     0.8755540     0.5594740
  C        1.2368440     1.1072260     0.8878520
  C        2.6518190    -0.3922910    -0.2854700
  C        0.5739580     0.6830040    -0.4149160
  C        2.8020980    -1.6600160     0.5224700
  C       -1.1273370    -1.1158190    -0.3082760
  C       -1.7446880     1.2038920     0.0820450
  C       -2.4173070    -1.5045610    -0.1045420
  C       -3.3619920    -0.4731600     0.1685110
  H        3.3343810     0.7567850     1.4508530
  H        0.9047070     0.4438290     1.6934890
  H        0.9853290     2.1340670     1.1581470
  H        0.5274540     1.5132540    -1.1249130
  H        3.4174920    -0.3642830    -1.0666260
  H        1.9707490    -1.7331840     1.2432230
  H        3.7460890    -1.6095150     1.0882890
  H        3.1038510     2.7463240     0.1779830
  H       -0.3107400    -1.7892010    -0.5436980
  H        2.9100300    -3.5650720     0.1192120
  H       -2.7034680    -2.5490840    -0.1532500
  H       -5.0725524    -1.6103405    -0.0687128
  H       -5.3338766    -0.0434540     0.3585103
units angstrom
no_reorient  #important for SAPT in psi4, default
symmetry c1  #important for SAPT in psi4, default
}

set PROPERTIES_ORIGIN ["COM"]
properties('MP2/aug-cc-pvtz', properties = ['dipole'])
--------------------------------------------------------------------------

    Molecular point group: c1
  Charge       = 0
  Multiplicity = 1
  Basis Set: AUG-CC-PVTZ
    Blend: AUG-CC-PVTZ
  Basis Set: (AUG-CC-PVTZ AUX)
    Blend: AUG-CC-PVTZ-JKFIT

    Orbital Energies [Eh]
    ---------------------

    Doubly Occupied:

       1A    -20.577746     2A    -20.574366     3A    -20.572925
       4A    -20.503153     5A    -15.621943     6A    -15.587984
       7A    -15.541207     8A    -11.369982     9A    -11.346284
      10A    -11.330804    11A    -11.318280    12A    -11.300885
      13A    -11.296868    14A    -11.293098    15A    -11.237126
      16A    -11.236834    17A     -1.416713    18A     -1.382507
      19A     -1.373580    20A     -1.365740    21A     -1.292003
      22A     -1.261124    23A     -1.169508    24A     -1.079030
      25A     -1.068981    26A     -1.028188    27A     -0.927410
      28A     -0.897542    29A     -0.870067    30A     -0.831578
      31A     -0.806424    32A     -0.751674    33A     -0.738851
      34A     -0.720970    35A     -0.710208    36A     -0.693060
      37A     -0.689656    38A     -0.672333    39A     -0.654174
      40A     -0.636844    41A     -0.627688    42A     -0.618638
      43A     -0.604255    44A     -0.595228    45A     -0.588231
      46A     -0.572993    47A     -0.568770    48A     -0.544873
      49A     -0.532531    50A     -0.523758    51A     -0.510492
      52A     -0.485910    53A     -0.482109    54A     -0.468509
      55A     -0.461185    56A     -0.444530    57A     -0.437872
      58A     -0.416492    59A     -0.384572    60A     -0.334830

  @DF-RHF Final Energy:  -811.47826705824514

   => Energetics <=

    Nuclear Repulsion Energy =           1169.7731401472842663
    One-Electron Energy =               -3434.6005770518981990
    Two-Electron Energy =                1453.3491698463687953
    Total Energy =                       -811.4782670582451374
  Basis Set: (AUG-CC-PVTZ AUX)
    Blend: AUG-CC-PVTZ-RI
    Molecular point group: c1

    Geometry (in Angstrom), charge = 0, multiplicity = 1:

       Center              X                  Y                   Z               Mass
    ------------   -----------------  -----------------  -----------------  -----------------
         O            1.362418243212    -0.380001031611    -0.931668290299    15.994914619570
         O            3.202404243212     1.901222968389    -0.299337290299    15.994914619570
         O            2.799754243212    -2.748937031611    -0.400025290299    15.994914619570
         O           -1.361838756788     2.374014968389     0.154958709701    15.994914619570
         N           -0.797896756788     0.199427968389    -0.229080290299    14.003074004430
         N           -3.053824756788     0.805248968389     0.240187709701    14.003074004430
         N           -4.673062756788    -0.812425031611     0.412812709701    14.003074004430
         C            2.701942243212     0.875563968389     0.559649709701    12.000000000000
         C            1.237191243212     1.107235968389     0.888027709701    12.000000000000
         C            2.652166243212    -0.392281031611    -0.285294290299    12.000000000000
         C            0.574305243212     0.683013968389    -0.414740290299    12.000000000000
         C            2.802445243212    -1.660006031611     0.522645709701    12.000000000000
         C           -1.126989756788    -1.115809031611    -0.308100290299    12.000000000000
         C           -1.744340756788     1.203901968389     0.082220709701    12.000000000000
         C           -2.416959756788    -1.504551031611    -0.104366290299    12.000000000000
         C           -3.361644756788    -0.473150031611     0.168686709701    12.000000000000
         H            3.334728243212     0.756794968389     1.451028709701     1.007825032230
         H            0.905054243212     0.443838968389     1.693664709701     1.007825032230
         H            0.985676243212     2.134076968389     1.158322709701     1.007825032230
         H            0.527801243212     1.513263968389    -1.124737290299     1.007825032230
         H            3.417839243212    -0.364273031611    -1.066450290299     1.007825032230
         H            1.971096243212    -1.733174031611     1.243398709701     1.007825032230
         H            3.746436243212    -1.609505031611     1.088464709701     1.007825032230
         H            3.104198243212     2.746333968389     0.178158709701     1.007825032230
         H           -0.310392756788    -1.789191031611    -0.543522290299     1.007825032230
         H            2.910377243212    -3.565062031611     0.119387709701     1.007825032230
         H           -2.703120756788    -2.549074031611    -0.153074290299     1.007825032230
         H           -5.072205156788    -1.610330531611    -0.068537090299     1.007825032230
         H           -5.333529356788    -0.043444031611     0.358686009701     1.007825032230

  Basis Set: AUG-CC-PVTZ
    Blend: AUG-CC-PVTZ
  Basis Set: (AUG-CC-PVTZ AUX)
    Blend: AUG-CC-PVTZ-JKFIT
	 Reference Energy          =    -811.4782670582451374 [Eh]
	 Singles Energy            =      -0.0000000000000000 [Eh]
	 Same-Spin Energy          =      -0.8296437353102837 [Eh]
	 Opposite-Spin Energy      =      -2.5251951110299875 [Eh]
	 Correlation Energy        =      -3.3548388463402712 [Eh]
	 Total Energy              =    -814.8331059045854090 [Eh]

	 ================> DF-SCS-MP2 Energies <==================
	-----------------------------------------------------------
	 SCS Same-Spin Scale       =       0.3333333333333333 [-]
	 SCS Opposite-Spin Scale   =       1.2000000000000000 [-]
	 SCS Same-Spin Energy      =      -0.2765479117700945 [Eh]
	 SCS Opposite-Spin Energy  =      -3.0302341332359850 [Eh]
	 SCS Correlation Energy    =      -3.3067820450060794 [Eh]
	 SCS Total Energy          =    -814.7850491032512537 [Eh]
	-----------------------------------------------------------

  Dipole Moment: [D]
     X:     1.0552      Y:    -4.6602      Z:     2.4318     Total:     5.3614

*** Psi4 exiting successfully. Buy a developer a beer!
