                               Psi4 1.3.2 release

  ==> Input File <==

--------------------------------------------------------------------------
#psi4
#
memory 32 gb

molecule  {
0 1
  O        1.3620710    -0.3800110    -0.9318440
  O        3.2020570     1.9012130    -0.2995130
  O        2.7994070    -2.7489470    -0.4002010
  O       -1.3621860     2.3740050     0.1547830
  N       -0.7982440     0.1994180    -0.2292560
  N       -3.0541720     0.8052390     0.2400120
  N       -4.6734100    -0.8124350     0.4126370
  C        2.6959218     0.9321289     0.5038825
  C        1.2368440     1.1072260     0.8878520
  C        2.6518190    -0.3922910    -0.2854700
  C        0.5739580     0.6830040    -0.4149160
  C        2.8020980    -1.6600160     0.5224700
  C       -1.1273370    -1.1158190    -0.3082760
  C       -1.7446880     1.2038920     0.0820450
  C       -2.4173070    -1.5045610    -0.1045420
  C       -3.3619920    -0.4731600     0.1685110
  H        3.3343810     0.7567850     1.4508530
  H        0.8526244     0.4674646     1.6894393
  H        0.9853290     2.1340670     1.1581470
  H        0.5274540     1.5132540    -1.1249130
  H        3.4174920    -0.3642830    -1.0666260
  H        1.9707490    -1.7331840     1.2432230
  H        3.7460890    -1.6095150     1.0882890
  H        3.1038510     2.7463240     0.1779830
  H       -0.3107400    -1.7892010    -0.5436980
  H        2.9100300    -3.5650720     0.1192120
  H       -2.7034680    -2.5490840    -0.1532500
  H       -5.0287110    -1.6377420    -0.0567190
  H       -5.2994710    -0.0137980     0.3861010
units angstrom
no_reorient  #important for SAPT in psi4, default
symmetry c1  #important for SAPT in psi4, default
}

set PROPERTIES_ORIGIN ["COM"]
properties('MP2/aug-cc-pvtz', properties = ['dipole'])
--------------------------------------------------------------------------

    Molecular point group: c1
  Charge       = 0
  Multiplicity = 1
  Basis Set: AUG-CC-PVTZ
    Blend: AUG-CC-PVTZ
  Basis Set: (AUG-CC-PVTZ AUX)
    Blend: AUG-CC-PVTZ-JKFIT

    Orbital Energies [Eh]
    ---------------------

    Doubly Occupied:

       1A    -20.583430     2A    -20.577182     3A    -20.570959
       4A    -20.502626     5A    -15.621153     6A    -15.588035
       7A    -15.540442     8A    -11.369458     9A    -11.344642
      10A    -11.329188    11A    -11.317758    12A    -11.303848
      13A    -11.296127    14A    -11.291550    15A    -11.236544
      16A    -11.234725    17A     -1.422558    18A     -1.398324
      19A     -1.379497    20A     -1.368289    21A     -1.291822
      22A     -1.260943    23A     -1.168731    24A     -1.077232
      25A     -1.064167    26A     -1.026916    27A     -0.925879
      28A     -0.897220    29A     -0.869360    30A     -0.831654
      31A     -0.802040    32A     -0.754107    33A     -0.736826
      34A     -0.722188    35A     -0.711885    36A     -0.699984
      37A     -0.691064    38A     -0.676288    39A     -0.657570
      40A     -0.639578    41A     -0.629015    42A     -0.620445
      43A     -0.604389    44A     -0.598491    45A     -0.589399
      46A     -0.574597    47A     -0.571353    48A     -0.545243
      49A     -0.535375    50A     -0.522073    51A     -0.512657
      52A     -0.481621    53A     -0.475054    54A     -0.466879
      55A     -0.455245    56A     -0.441714    57A     -0.435621
      58A     -0.415655    59A     -0.382950    60A     -0.334330

  @DF-RHF Final Energy:  -811.47288754701935

   => Energetics <=

    Nuclear Repulsion Energy =           1170.5289546959293148
    One-Electron Energy =               -3436.0558890428878840
    Two-Electron Energy =                1454.0540467999392149
    Total Energy =                       -811.4728875470193543
  Basis Set: (AUG-CC-PVTZ AUX)
    Blend: AUG-CC-PVTZ-RI
    Molecular point group: c1

    Geometry (in Angstrom), charge = 0, multiplicity = 1:

       Center              X                  Y                   Z               Mass
    ------------   -----------------  -----------------  -----------------  -----------------
         O            1.362601911148    -0.383105481872    -0.928888408074    15.994914619570
         O            3.202587911148     1.898118518128    -0.296557408074    15.994914619570
         O            2.799937911148    -2.752041481872    -0.397245408074    15.994914619570
         O           -1.361655088852     2.370910518128     0.157738591926    15.994914619570
         N           -0.797713088852     0.196323518128    -0.226300408074    14.003074004430
         N           -3.053641088852     0.802144518128     0.242967591926    14.003074004430
         N           -4.672879088852    -0.815529481872     0.415592591926    14.003074004430
         C            2.696452711148     0.929034418128     0.506838091926    12.000000000000
         C            1.237374911148     1.104131518128     0.890807591926    12.000000000000
         C            2.652349911148    -0.395385481872    -0.282514408074    12.000000000000
         C            0.574488911148     0.679909518128    -0.411960408074    12.000000000000
         C            2.802628911148    -1.663110481872     0.525425591926    12.000000000000
         C           -1.126806088852    -1.118913481872    -0.305320408074    12.000000000000
         C           -1.744157088852     1.200797518128     0.085000591926    12.000000000000
         C           -2.416776088852    -1.507655481872    -0.101586408074    12.000000000000
         C           -3.361461088852    -0.476254481872     0.171466591926    12.000000000000
         H            3.334911911148     0.753690518128     1.453808591926     1.007825032230
         H            0.853155311148     0.464370118128     1.692394891926     1.007825032230
         H            0.985859911148     2.130972518128     1.161102591926     1.007825032230
         H            0.527984911148     1.510159518128    -1.121957408074     1.007825032230
         H            3.418022911148    -0.367377481872    -1.063670408074     1.007825032230
         H            1.971279911148    -1.736278481872     1.246178591926     1.007825032230
         H            3.746619911148    -1.612609481872     1.091244591926     1.007825032230
         H            3.104381911148     2.743229518128     0.180938591926     1.007825032230
         H           -0.310209088852    -1.792295481872    -0.540742408074     1.007825032230
         H            2.910560911148    -3.568166481872     0.122167591926     1.007825032230
         H           -2.702937088852    -2.552178481872    -0.150294408074     1.007825032230
         H           -5.028180088852    -1.640836481872    -0.053763408074     1.007825032230
         H           -5.298940088852    -0.016892481872     0.389056591926     1.007825032230

  Basis Set: AUG-CC-PVTZ
    Blend: AUG-CC-PVTZ
  Basis Set: (AUG-CC-PVTZ AUX)
    Blend: AUG-CC-PVTZ-JKFIT
	 Reference Energy          =    -811.4728875470193543 [Eh]
	 Singles Energy            =      -0.0000000000000000 [Eh]
	 Same-Spin Energy          =      -0.8298805970974648 [Eh]
	 Opposite-Spin Energy      =      -2.5245530999895109 [Eh]
	 Correlation Energy        =      -3.3544336970869759 [Eh]
	 Total Energy              =    -814.8273212441063151 [Eh]

	 ================> DF-SCS-MP2 Energies <==================
	-----------------------------------------------------------
	 SCS Same-Spin Scale       =       0.3333333333333333 [-]
	 SCS Opposite-Spin Scale   =       1.2000000000000000 [-]
	 SCS Same-Spin Energy      =      -0.2766268656991549 [Eh]
	 SCS Opposite-Spin Energy  =      -3.0294637199874130 [Eh]
	 SCS Correlation Energy    =      -3.3060905856865679 [Eh]
	 SCS Total Energy          =    -814.7789781327059018 [Eh]
	-----------------------------------------------------------

  Dipole Moment: [D]
     X:     1.1488      Y:    -4.4496      Z:     2.3261     Total:     5.1507

*** Psi4 exiting successfully. Buy a developer a beer!
