                               Psi4 1.4a3.dev225

  ==> Input File <==

--------------------------------------------------------------------------
#psi4
#
memory 32 gb

molecule  {
0 1
  O       -1.4695130     0.3030610    -1.0874480
  O       -3.6436400    -1.4204040    -0.2669360
  O       -1.6911330     2.8536240     0.0000030
  O        1.1857770    -2.4961310     0.0874550
  N        0.6842480    -0.3150290    -0.3399290
  N        2.9133760    -0.9647370     0.2108410
  N        4.5636770     0.6178870     0.3785230
  C       -2.7686820    -0.6858470     0.5863090
  C       -1.3787780    -1.3118450     0.6568060
  C       -2.4925280     0.6283540    -0.1295840
  C       -0.6939390    -0.7805590    -0.6115670
  C       -2.0414120     1.7324860     0.8087370
  C        1.0545030     0.9838330    -0.4888120
  C        1.6080830    -1.3384950     0.0010630
  C        2.3677405     1.3531472    -0.2589600
  C        3.2578570     0.3046130     0.0876290
  H       -3.2188600    -0.5381750     1.5798200
  H       -0.8341690    -0.9801840     1.5464130
  H       -1.3950130    -2.4033150     0.6754970
  H       -0.6263030    -1.5384450    -1.3968420
  H       -3.3591510     0.9641520    -0.7058050
  H       -1.1849610     1.3939850     1.4098140
  H       -2.8667900     1.9743150     1.4948250
  H       -3.6905400    -2.3294490     0.0774600
  H        0.2668220     1.6750250    -0.7707300
  H       -1.4321050     3.5760960     0.5972330
  H        2.6621150     2.3809760    -0.3596430
  H        4.9550500     1.4416620    -0.0591730
  H        5.1797170    -0.1867780     0.4106900
units angstrom
no_reorient  #important for SAPT in psi4, default
symmetry c1  #important for SAPT in psi4, default
}

set PROPERTIES_ORIGIN ["COM"]
properties('MP2/aug-cc-pvtz', properties = ['dipole'])
--------------------------------------------------------------------------

    Molecular point group: c1
  Charge       = 0
  Multiplicity = 1
  Basis Set: AUG-CC-PVTZ
    Blend: AUG-CC-PVTZ
  Basis Set: (AUG-CC-PVTZ AUX)
    Blend: AUG-CC-PVTZ-JKFIT

    Orbital Energies [Eh]
    ---------------------

    Doubly Occupied:

       1A    -20.584036     2A    -20.575121     3A    -20.573073
       4A    -20.501992     5A    -15.621345     6A    -15.587003
       7A    -15.539186     8A    -11.368928     9A    -11.344071
      10A    -11.334039    11A    -11.318711    12A    -11.300710
      13A    -11.300012    14A    -11.295280    15A    -11.237896
      16A    -11.235205    17A     -1.419557    18A     -1.382070
      19A     -1.377938    20A     -1.366538    21A     -1.289910
      22A     -1.258799    23A     -1.167771    24A     -1.076114
      25A     -1.066503    26A     -1.025080    27A     -0.930835
      28A     -0.896726    29A     -0.867524    30A     -0.830523
      31A     -0.805413    32A     -0.752865    33A     -0.738442
      34A     -0.725915    35A     -0.707148    36A     -0.702347
      37A     -0.690458    38A     -0.673488    39A     -0.651573
      40A     -0.643301    41A     -0.623037    42A     -0.619663
      43A     -0.606667    44A     -0.594307    45A     -0.588152
      46A     -0.572212    47A     -0.566188    48A     -0.551595
      49A     -0.526818    50A     -0.521220    51A     -0.511275
      52A     -0.485608    53A     -0.480402    54A     -0.472797
      55A     -0.459815    56A     -0.448415    57A     -0.441103
      58A     -0.413940    59A     -0.382086    60A     -0.332314

  @DF-RHF Final Energy:  -811.47811986581496

   => Energetics <=

    Nuclear Repulsion Energy =           1184.8430140908255908
    One-Electron Energy =               -3464.7201517666753716
    Two-Electron Energy =                1468.3990178100345929
    Total Energy =                       -811.4781198658149606
  Basis Set: (AUG-CC-PVTZ AUX)
    Blend: AUG-CC-PVTZ-RI
    Molecular point group: c1

    Geometry (in Angstrom), charge = 0, multiplicity = 1:

       Center              X                  Y                   Z               Mass
    ------------   -----------------  -----------------  -----------------  -----------------
         O           -1.494975491758     0.326494273264    -1.067996309239    15.994914619570
         O           -3.669102491758    -1.396970726736    -0.247484309239    15.994914619570
         O           -1.716595491758     2.877057273264     0.019454690761    15.994914619570
         O            1.160314508242    -2.472697726736     0.106906690761    15.994914619570
         N            0.658785508242    -0.291595726736    -0.320477309239    14.003074004430
         N            2.887913508242    -0.941303726736     0.230292690761    14.003074004430
         N            4.538214508242     0.641320273264     0.397974690761    14.003074004430
         C           -2.794144491758    -0.662413726736     0.605760690761    12.000000000000
         C           -1.404240491758    -1.288411726736     0.676257690761    12.000000000000
         C           -2.517990491758     0.651787273264    -0.110132309239    12.000000000000
         C           -0.719401491758    -0.757125726736    -0.592115309239    12.000000000000
         C           -2.066874491758     1.755919273264     0.828188690761    12.000000000000
         C            1.029040508242     1.007266273264    -0.469360309239    12.000000000000
         C            1.582620508242    -1.315061726736     0.020514690761    12.000000000000
         C            2.342278008242     1.376580473264    -0.239508309239    12.000000000000
         C            3.232394508242     0.328046273264     0.107080690761    12.000000000000
         H           -3.244322491758    -0.514741726736     1.599271690761     1.007825032230
         H           -0.859631491758    -0.956750726736     1.565864690761     1.007825032230
         H           -1.420475491758    -2.379881726736     0.694948690761     1.007825032230
         H           -0.651765491758    -1.515011726736    -1.377390309239     1.007825032230
         H           -3.384613491758     0.987585273264    -0.686353309239     1.007825032230
         H           -1.210423491758     1.417418273264     1.429265690761     1.007825032230
         H           -2.892252491758     1.997748273264     1.514276690761     1.007825032230
         H           -3.716002491758    -2.306015726736     0.096911690761     1.007825032230
         H            0.241359508242     1.698458273264    -0.751278309239     1.007825032230
         H           -1.457567491758     3.599529273264     0.616684690761     1.007825032230
         H            2.636652508242     2.404409273264    -0.340191309239     1.007825032230
         H            4.929587508242     1.465095273264    -0.039721309239     1.007825032230
         H            5.154254508242    -0.163344726736     0.430141690761     1.007825032230

  Basis Set: AUG-CC-PVTZ
    Blend: AUG-CC-PVTZ
  Basis Set: (AUG-CC-PVTZ AUX)
    Blend: AUG-CC-PVTZ-JKFIT
	 Reference Energy          =    -811.4781198658149606 [Eh]
	 Singles Energy            =      -0.0000000000000000 [Eh]
	 Same-Spin Energy          =      -0.8310275743580592 [Eh]
	 Opposite-Spin Energy      =      -2.5272923525709556 [Eh]
	 Correlation Energy        =      -3.3583199269290147 [Eh]
	 Total Energy              =    -814.8364397927439313 [Eh]

	 ================> DF-SCS-MP2 Energies <==================
	-----------------------------------------------------------
	 SCS Same-Spin Scale       =       0.3333333333333333 [-]
	 SCS Opposite-Spin Scale   =       1.2000000000000000 [-]
	 SCS Same-Spin Energy      =      -0.2770091914526864 [Eh]
	 SCS Opposite-Spin Energy  =      -3.0327508230851468 [Eh]
	 SCS Correlation Energy    =      -3.3097600145378330 [Eh]
	 SCS Total Energy          =    -814.7878798803527616 [Eh]
	-----------------------------------------------------------

  Dipole Moment: [D]
     X:    -0.4136      Y:     4.5949      Z:     2.3968     Total:     5.1989

*** Psi4 exiting successfully. Buy a developer a beer!
