                               Psi4 1.3.2 release

  ==> Input File <==

--------------------------------------------------------------------------
#psi4
#
memory 32 gb

molecule  {
0 1
  O        1.3620710    -0.3800110    -0.9318440
  O        3.2020570     1.9012130    -0.2995130
  O        2.7994070    -2.7489470    -0.4002010
  O       -1.3621860     2.3740050     0.1547830
  N       -0.8346284     0.1660431    -0.2282674
  N       -3.0406244     0.7600094     0.2308510
  N       -4.6734100    -0.8124350     0.4126370
  C        2.7015950     0.8755540     0.5594740
  C        1.2368440     1.1072260     0.8878520
  C        2.6518190    -0.3922910    -0.2854700
  C        0.5739580     0.6830040    -0.4149160
  C        2.8020980    -1.6600160     0.5224700
  C       -1.1273370    -1.1158190    -0.3082760
  C       -1.7446880     1.2038920     0.0820450
  C       -2.4173070    -1.5045610    -0.1045420
  C       -3.3619920    -0.4731600     0.1685110
  H        3.3343810     0.7567850     1.4508530
  H        0.9047070     0.4438290     1.6934890
  H        0.9853290     2.1340670     1.1581470
  H        0.5274540     1.5132540    -1.1249130
  H        3.4174920    -0.3642830    -1.0666260
  H        1.9707490    -1.7331840     1.2432230
  H        3.7460890    -1.6095150     1.0882890
  H        3.1038510     2.7463240     0.1779830
  H       -0.3107400    -1.7892010    -0.5436980
  H        2.9100300    -3.5650720     0.1192120
  H       -2.7034680    -2.5490840    -0.1532500
  H       -5.0287110    -1.6377420    -0.0567190
  H       -5.2994710    -0.0137980     0.3861010
units angstrom
no_reorient  #important for SAPT in psi4, default
symmetry c1  #important for SAPT in psi4, default
}

set PROPERTIES_ORIGIN ["COM"]
properties('MP2/aug-cc-pvtz', properties = ['dipole'])
--------------------------------------------------------------------------

    Molecular point group: c1
  Charge       = 0
  Multiplicity = 1
  Basis Set: AUG-CC-PVTZ
    Blend: AUG-CC-PVTZ
  Basis Set: (AUG-CC-PVTZ AUX)
    Blend: AUG-CC-PVTZ-JKFIT

    Orbital Energies [Eh]
    ---------------------

    Doubly Occupied:

       1A    -20.578142     2A    -20.576088     3A    -20.574355
       4A    -20.510823     5A    -15.621897     6A    -15.582046
       7A    -15.534081     8A    -11.375425     9A    -11.335688
      10A    -11.335391    11A    -11.310658    12A    -11.302813
      13A    -11.297552    14A    -11.294284    15A    -11.239789
      16A    -11.229077    17A     -1.417382    18A     -1.386367
      19A     -1.374529    20A     -1.367229    21A     -1.301624
      22A     -1.264733    23A     -1.171537    24A     -1.079188
      25A     -1.066913    26A     -1.028480    27A     -0.926078
      28A     -0.900383    29A     -0.873305    30A     -0.831546
      31A     -0.806556    32A     -0.753612    33A     -0.740779
      34A     -0.722121    35A     -0.705963    36A     -0.693257
      37A     -0.689927    38A     -0.675526    39A     -0.655665
      40A     -0.636567    41A     -0.631237    42A     -0.619569
      43A     -0.607500    44A     -0.595075    45A     -0.591635
      46A     -0.572299    47A     -0.568048    48A     -0.545766
      49A     -0.533094    50A     -0.524423    51A     -0.511911
      52A     -0.488920    53A     -0.486583    54A     -0.469550
      55A     -0.463614    56A     -0.448033    57A     -0.438568
      58A     -0.410127    59A     -0.386908    60A     -0.330880

  @DF-RHF Final Energy:  -811.47486128344156

   => Energetics <=

    Nuclear Repulsion Energy =           1170.9874300108613170
    One-Electron Energy =               -3436.9423462334493706
    Two-Electron Energy =                1454.4800549391463846
    Total Energy =                       -811.4748612834416690
  Basis Set: (AUG-CC-PVTZ AUX)
    Blend: AUG-CC-PVTZ-RI
    Molecular point group: c1

    Geometry (in Angstrom), charge = 0, multiplicity = 1:

       Center              X                  Y                   Z               Mass
    ------------   -----------------  -----------------  -----------------  -----------------
         O            1.363479168274    -0.375164052623    -0.931340031578    15.994914619570
         O            3.203465168274     1.906059947377    -0.299009031578    15.994914619570
         O            2.800815168274    -2.744100052623    -0.399697031578    15.994914619570
         O           -1.360777831726     2.378851947377     0.155286968422    15.994914619570
         N           -0.833220231726     0.170890047377    -0.227763431578    14.003074004430
         N           -3.039216231726     0.764856347377     0.231354968422    14.003074004430
         N           -4.672001831726    -0.807588052623     0.413140968422    14.003074004430
         C            2.703003168274     0.880400947377     0.559977968422    12.000000000000
         C            1.238252168274     1.112072947377     0.888355968422    12.000000000000
         C            2.653227168274    -0.387444052623    -0.284966031578    12.000000000000
         C            0.575366168274     0.687850947377    -0.414412031578    12.000000000000
         C            2.803506168274    -1.655169052623     0.522973968422    12.000000000000
         C           -1.125928831726    -1.110972052623    -0.307772031578    12.000000000000
         C           -1.743279831726     1.208738947377     0.082548968422    12.000000000000
         C           -2.415898831726    -1.499714052623    -0.104038031578    12.000000000000
         C           -3.360583831726    -0.468313052623     0.169014968422    12.000000000000
         H            3.335789168274     0.761631947377     1.451356968422     1.007825032230
         H            0.906115168274     0.448675947377     1.693992968422     1.007825032230
         H            0.986737168274     2.138913947377     1.158650968422     1.007825032230
         H            0.528862168274     1.518100947377    -1.124409031578     1.007825032230
         H            3.418900168274    -0.359436052623    -1.066122031578     1.007825032230
         H            1.972157168274    -1.728337052623     1.243726968422     1.007825032230
         H            3.747497168274    -1.604668052623     1.088792968422     1.007825032230
         H            3.105259168274     2.751170947377     0.178486968422     1.007825032230
         H           -0.309331831726    -1.784354052623    -0.543194031578     1.007825032230
         H            2.911438168274    -3.560225052623     0.119715968422     1.007825032230
         H           -2.702059831726    -2.544237052623    -0.152746031578     1.007825032230
         H           -5.027302831726    -1.632895052623    -0.056215031578     1.007825032230
         H           -5.298062831726    -0.008951052623     0.386604968422     1.007825032230

  Basis Set: AUG-CC-PVTZ
    Blend: AUG-CC-PVTZ
  Basis Set: (AUG-CC-PVTZ AUX)
    Blend: AUG-CC-PVTZ-JKFIT
	 Reference Energy          =    -811.4748612834415553 [Eh]
	 Singles Energy            =      -0.0000000000000000 [Eh]
	 Same-Spin Energy          =      -0.8299349163284417 [Eh]
	 Opposite-Spin Energy      =      -2.5247554484289685 [Eh]
	 Correlation Energy        =      -3.3546903647574102 [Eh]
	 Total Energy              =    -814.8295516481989580 [Eh]

	 ================> DF-SCS-MP2 Energies <==================
	-----------------------------------------------------------
	 SCS Same-Spin Scale       =       0.3333333333333333 [-]
	 SCS Opposite-Spin Scale   =       1.2000000000000000 [-]
	 SCS Same-Spin Energy      =      -0.2766449721094806 [Eh]
	 SCS Opposite-Spin Energy  =      -3.0297065381147621 [Eh]
	 SCS Correlation Energy    =      -3.3063515102242427 [Eh]
	 SCS Total Energy          =    -814.7812127936657589 [Eh]
	-----------------------------------------------------------

  Dipole Moment: [D]
     X:     1.3795      Y:    -4.3650      Z:     2.4877     Total:     5.2101

*** Psi4 exiting successfully. Buy a developer a beer!
