                               Psi4 1.3.2 release

  ==> Input File <==

--------------------------------------------------------------------------
#psi4
#
memory 32 gb

molecule  {
0 1
  O        1.3620710    -0.3800110    -0.9318440
  O        3.2020570     1.9012130    -0.2995130
  O        2.7994070    -2.7489470    -0.4002010
  O       -1.3621860     2.3740050     0.1547830
  N       -0.7982440     0.1994180    -0.2292560
  N       -3.0541720     0.8052390     0.2400120
  N       -4.6734100    -0.8124350     0.4126370
  C        2.7015950     0.8755540     0.5594740
  C        1.3332802     1.0919732     0.8662323
  C        2.6518190    -0.3922910    -0.2854700
  C        0.5739580     0.6830040    -0.4149160
  C        2.8020980    -1.6600160     0.5224700
  C       -1.1273370    -1.1158190    -0.3082760
  C       -1.7446880     1.2038920     0.0820450
  C       -2.4173070    -1.5045610    -0.1045420
  C       -3.3619920    -0.4731600     0.1685110
  H        3.3343810     0.7567850     1.4508530
  H        0.9047070     0.4438290     1.6934890
  H        0.9853290     2.1340670     1.1581470
  H        0.5274540     1.5132540    -1.1249130
  H        3.4174920    -0.3642830    -1.0666260
  H        1.9707490    -1.7331840     1.2432230
  H        3.7460890    -1.6095150     1.0882890
  H        3.1038510     2.7463240     0.1779830
  H       -0.3107400    -1.7892010    -0.5436980
  H        2.9100300    -3.5650720     0.1192120
  H       -2.7034680    -2.5490840    -0.1532500
  H       -5.0287110    -1.6377420    -0.0567190
  H       -5.2994710    -0.0137980     0.3861010
units angstrom
no_reorient  #important for SAPT in psi4, default
symmetry c1  #important for SAPT in psi4, default
}

set PROPERTIES_ORIGIN ["COM"]
properties('MP2/aug-cc-pvtz', properties = ['dipole'])
--------------------------------------------------------------------------

    Molecular point group: c1
  Charge       = 0
  Multiplicity = 1
  Basis Set: AUG-CC-PVTZ
    Blend: AUG-CC-PVTZ
  Basis Set: (AUG-CC-PVTZ AUX)
    Blend: AUG-CC-PVTZ-JKFIT

    Orbital Energies [Eh]
    ---------------------

    Doubly Occupied:

       1A    -20.577489     2A    -20.573508     3A    -20.571497
       4A    -20.503959     5A    -15.623739     6A    -15.589135
       7A    -15.541581     8A    -11.370904     9A    -11.345997
      10A    -11.331625    11A    -11.319296    12A    -11.296570
      13A    -11.295676    14A    -11.293058    15A    -11.239909
      16A    -11.238049    17A     -1.417568    18A     -1.383401
      19A     -1.374065    20A     -1.365950    21A     -1.293084
      22A     -1.262135    23A     -1.169719    24A     -1.089117
      25A     -1.071266    26A     -1.028076    27A     -0.929810
      28A     -0.897987    29A     -0.867650    30A     -0.828203
      31A     -0.808578    32A     -0.754985    33A     -0.740974
      34A     -0.721555    35A     -0.708437    36A     -0.691703
      37A     -0.689342    38A     -0.676413    39A     -0.657845
      40A     -0.642281    41A     -0.626235    42A     -0.620634
      43A     -0.604086    44A     -0.595635    45A     -0.588495
      46A     -0.577663    47A     -0.569828    48A     -0.540797
      49A     -0.530455    50A     -0.511729    51A     -0.502197
      52A     -0.490559    53A     -0.484583    54A     -0.469345
      55A     -0.463638    56A     -0.445490    57A     -0.436355
      58A     -0.417510    59A     -0.384542    60A     -0.335884

  @DF-RHF Final Energy:  -811.46735396395775

   => Energetics <=

    Nuclear Repulsion Energy =           1170.5239017616404453
    One-Electron Energy =               -3436.0269200006268875
    Two-Electron Energy =                1454.0356642750286937
    Total Energy =                       -811.4673539639577484
  Basis Set: (AUG-CC-PVTZ AUX)
    Blend: AUG-CC-PVTZ-RI
    Molecular point group: c1

    Geometry (in Angstrom), charge = 0, multiplicity = 1:

       Center              X                  Y                   Z               Mass
    ------------   -----------------  -----------------  -----------------  -----------------
         O            1.356975069197    -0.379205043341    -0.930701530142    15.994914619570
         O            3.196961069197     1.902018956659    -0.298370530142    15.994914619570
         O            2.794311069197    -2.748141043341    -0.399058530142    15.994914619570
         O           -1.367281930803     2.374810956659     0.155925469858    15.994914619570
         N           -0.803339930803     0.200223956659    -0.228113530142    14.003074004430
         N           -3.059267930803     0.806044956659     0.241154469858    14.003074004430
         N           -4.678505930803    -0.811629043341     0.413779469858    14.003074004430
         C            2.696499069197     0.876359956659     0.560616469858    12.000000000000
         C            1.328184269197     1.092779156659     0.867374769858    12.000000000000
         C            2.646723069197    -0.391485043341    -0.284327530142    12.000000000000
         C            0.568862069197     0.683809956659    -0.413773530142    12.000000000000
         C            2.797002069197    -1.659210043341     0.523612469858    12.000000000000
         C           -1.132432930803    -1.115013043341    -0.307133530142    12.000000000000
         C           -1.749783930803     1.204697956659     0.083187469858    12.000000000000
         C           -2.422402930803    -1.503755043341    -0.103399530142    12.000000000000
         C           -3.367087930803    -0.472354043341     0.169653469858    12.000000000000
         H            3.329285069197     0.757590956659     1.451995469858     1.007825032230
         H            0.899611069197     0.444634956659     1.694631469858     1.007825032230
         H            0.980233069197     2.134872956659     1.159289469858     1.007825032230
         H            0.522358069197     1.514059956659    -1.123770530142     1.007825032230
         H            3.412396069197    -0.363477043341    -1.065483530142     1.007825032230
         H            1.965653069197    -1.732378043341     1.244365469858     1.007825032230
         H            3.740993069197    -1.608709043341     1.089431469858     1.007825032230
         H            3.098755069197     2.747129956659     0.179125469858     1.007825032230
         H           -0.315835930803    -1.788395043341    -0.542555530142     1.007825032230
         H            2.904934069197    -3.564266043341     0.120354469858     1.007825032230
         H           -2.708563930803    -2.548278043341    -0.152107530142     1.007825032230
         H           -5.033806930803    -1.636936043341    -0.055576530142     1.007825032230
         H           -5.304566930803    -0.012992043341     0.387243469858     1.007825032230

  Basis Set: AUG-CC-PVTZ
    Blend: AUG-CC-PVTZ
  Basis Set: (AUG-CC-PVTZ AUX)
    Blend: AUG-CC-PVTZ-JKFIT
	 Reference Energy          =    -811.4673539639577484 [Eh]
	 Singles Energy            =      -0.0000000000000000 [Eh]
	 Same-Spin Energy          =      -0.8305800179386670 [Eh]
	 Opposite-Spin Energy      =      -2.5260964340198644 [Eh]
	 Correlation Energy        =      -3.3566764519585313 [Eh]
	 Total Energy              =    -814.8240304159162406 [Eh]

	 ================> DF-SCS-MP2 Energies <==================
	-----------------------------------------------------------
	 SCS Same-Spin Scale       =       0.3333333333333333 [-]
	 SCS Opposite-Spin Scale   =       1.2000000000000000 [-]
	 SCS Same-Spin Energy      =      -0.2768600059795556 [Eh]
	 SCS Opposite-Spin Energy  =      -3.0313157208238373 [Eh]
	 SCS Correlation Energy    =      -3.3081757268033929 [Eh]
	 SCS Total Energy          =    -814.7755296907611182 [Eh]
	-----------------------------------------------------------

  Dipole Moment: [D]
     X:     0.9341      Y:    -4.7278      Z:     2.4849     Total:     5.4221

*** Psi4 exiting successfully. Buy a developer a beer!
