                               Psi4 1.3.2 release

  ==> Input File <==

--------------------------------------------------------------------------
#psi4
#
memory 32 gb

molecule  {
0 1
  O        1.3620710    -0.3800110    -0.9318440
  O        3.2020570     1.9012130    -0.2995130
  O        2.7994070    -2.7489470    -0.4002010
  O       -1.3621860     2.3740050     0.1547830
  N       -0.7982440     0.1994180    -0.2292560
  N       -3.0541720     0.8052390     0.2400120
  N       -4.6734100    -0.8124350     0.4126370
  C        2.7015950     0.8755540     0.5594740
  C        1.2368440     1.1072260     0.8878520
  C        2.6518190    -0.3922910    -0.2854700
  C        0.5739580     0.6830040    -0.4149160
  C        2.8020980    -1.6600160     0.5224700
  C       -1.1273370    -1.1158190    -0.3082760
  C       -1.7266764     1.1346238     0.0730176
  C       -2.4173070    -1.5045610    -0.1045420
  C       -3.2953227    -0.4867304     0.1573629
  H        3.3343810     0.7567850     1.4508530
  H        0.9047070     0.4438290     1.6934890
  H        0.9853290     2.1340670     1.1581470
  H        0.5274540     1.5132540    -1.1249130
  H        3.4174920    -0.3642830    -1.0666260
  H        1.9707490    -1.7331840     1.2432230
  H        3.7460890    -1.6095150     1.0882890
  H        3.1038510     2.7463240     0.1779830
  H       -0.3107400    -1.7892010    -0.5436980
  H        2.9100300    -3.5650720     0.1192120
  H       -2.7034680    -2.5490840    -0.1532500
  H       -5.0287110    -1.6377420    -0.0567190
  H       -5.2994710    -0.0137980     0.3861010
units angstrom
no_reorient  #important for SAPT in psi4, default
symmetry c1  #important for SAPT in psi4, default
}

set PROPERTIES_ORIGIN ["COM"]
properties('MP2/aug-cc-pvtz', properties = ['dipole'])
--------------------------------------------------------------------------

    Molecular point group: c1
  Charge       = 0
  Multiplicity = 1
  Basis Set: AUG-CC-PVTZ
    Blend: AUG-CC-PVTZ
  Basis Set: (AUG-CC-PVTZ AUX)
    Blend: AUG-CC-PVTZ-JKFIT

    Orbital Energies [Eh]
    ---------------------

    Doubly Occupied:

       1A    -20.580774     2A    -20.577983     3A    -20.576333
       4A    -20.487329     5A    -15.637312     6A    -15.579893
       7A    -15.551004     8A    -11.366423     9A    -11.343628
      10A    -11.337510    11A    -11.329797    12A    -11.303558
      13A    -11.300058    14A    -11.296616    15A    -11.244026
      16A    -11.239957    17A     -1.422619    18A     -1.379880
      19A     -1.376237    20A     -1.364063    21A     -1.273042
      22A     -1.260376    23A     -1.161310    24A     -1.089912
      25A     -1.076139    26A     -1.038116    27A     -0.933940
      28A     -0.918930    29A     -0.870584    30A     -0.831999
      31A     -0.811000    32A     -0.757746    33A     -0.748617
      34A     -0.724948    35A     -0.703296    36A     -0.695374
      37A     -0.687421    38A     -0.670899    39A     -0.659645
      40A     -0.642531    41A     -0.635026    42A     -0.622446
      43A     -0.604513    44A     -0.597002    45A     -0.585561
      46A     -0.572365    47A     -0.558318    48A     -0.546405
      49A     -0.530714    50A     -0.526456    51A     -0.506488
      52A     -0.489024    53A     -0.472769    54A     -0.470317
      55A     -0.463372    56A     -0.448084    57A     -0.443683
      58A     -0.413128    59A     -0.385779    60A     -0.341023

  @DF-RHF Final Energy:  -811.46019280007010

   => Energetics <=

    Nuclear Repulsion Energy =           1171.5361858130067958
    One-Electron Energy =               -3437.8661661399551122
    Two-Electron Energy =                1454.8697875268783264
    Total Energy =                       -811.4601928000699900
  Basis Set: (AUG-CC-PVTZ AUX)
    Blend: AUG-CC-PVTZ-RI
    Molecular point group: c1

    Geometry (in Angstrom), charge = 0, multiplicity = 1:

       Center              X                  Y                   Z               Mass
    ------------   -----------------  -----------------  -----------------  -----------------
         O            1.357596246807    -0.375633651223    -0.930777845055    15.994914619570
         O            3.197582246807     1.905590348777    -0.298446845055    15.994914619570
         O            2.794932246807    -2.744569651223    -0.399134845055    15.994914619570
         O           -1.366660753193     2.378382348777     0.155849154945    15.994914619570
         N           -0.802718753193     0.203795348777    -0.228189845055    14.003074004430
         N           -3.058646753193     0.809616348777     0.241078154945    14.003074004430
         N           -4.677884753193    -0.808057651223     0.413703154945    14.003074004430
         C            2.697120246807     0.879931348777     0.560540154945    12.000000000000
         C            1.232369246807     1.111603348777     0.888918154945    12.000000000000
         C            2.647344246807    -0.387913651223    -0.284403845055    12.000000000000
         C            0.569483246807     0.687381348777    -0.413849845055    12.000000000000
         C            2.797623246807    -1.655638651223     0.523536154945    12.000000000000
         C           -1.131811753193    -1.111441651223    -0.307209845055    12.000000000000
         C           -1.731151153193     1.139001148777     0.074083754945    12.000000000000
         C           -2.421781753193    -1.500183651223    -0.103475845055    12.000000000000
         C           -3.299797453193    -0.482353051223     0.158429054945    12.000000000000
         H            3.329906246807     0.761162348777     1.451919154945     1.007825032230
         H            0.900232246807     0.448206348777     1.694555154945     1.007825032230
         H            0.980854246807     2.138444348777     1.159213154945     1.007825032230
         H            0.522979246807     1.517631348777    -1.123846845055     1.007825032230
         H            3.413017246807    -0.359905651223    -1.065559845055     1.007825032230
         H            1.966274246807    -1.728806651223     1.244289154945     1.007825032230
         H            3.741614246807    -1.605137651223     1.089355154945     1.007825032230
         H            3.099376246807     2.750701348777     0.179049154945     1.007825032230
         H           -0.315214753193    -1.784823651223    -0.542631845055     1.007825032230
         H            2.905555246807    -3.560694651223     0.120278154945     1.007825032230
         H           -2.707942753193    -2.544706651223    -0.152183845055     1.007825032230
         H           -5.033185753193    -1.633364651223    -0.055652845055     1.007825032230
         H           -5.303945753193    -0.009420651223     0.387167154945     1.007825032230

  Basis Set: AUG-CC-PVTZ
    Blend: AUG-CC-PVTZ
  Basis Set: (AUG-CC-PVTZ AUX)
    Blend: AUG-CC-PVTZ-JKFIT
	 Reference Energy          =    -811.4601928000701037 [Eh]
	 Singles Energy            =      -0.0000000000000000 [Eh]
	 Same-Spin Energy          =      -0.8313591941035698 [Eh]
	 Opposite-Spin Energy      =      -2.5282999107996731 [Eh]
	 Correlation Energy        =      -3.3596591049032432 [Eh]
	 Total Energy              =    -814.8198519049733477 [Eh]

	 ================> DF-SCS-MP2 Energies <==================
	-----------------------------------------------------------
	 SCS Same-Spin Scale       =       0.3333333333333333 [-]
	 SCS Opposite-Spin Scale   =       1.2000000000000000 [-]
	 SCS Same-Spin Energy      =      -0.2771197313678566 [Eh]
	 SCS Opposite-Spin Energy  =      -3.0339598929596074 [Eh]
	 SCS Correlation Energy    =      -3.3110796243274638 [Eh]
	 SCS Total Energy          =    -814.7712724243975799 [Eh]
	-----------------------------------------------------------

  Dipole Moment: [D]
     X:     1.7108      Y:    -5.2136      Z:     2.3391     Total:     5.9649

*** Psi4 exiting successfully. Buy a developer a beer!
