                               Psi4 1.3.2 release

  ==> Input File <==

--------------------------------------------------------------------------
#psi4
#
memory 32 gb

molecule  {
0 1
  O        1.3620710    -0.3800110    -0.9318440
  O        3.2020570     1.9012130    -0.2995130
  O        2.7994070    -2.7489470    -0.4002010
  O       -1.3621860     2.3740050     0.1547830
  N       -0.7982440     0.1994180    -0.2292560
  N       -3.0541720     0.8052390     0.2400120
  N       -4.6734100    -0.8124350     0.4126370
  C        2.7621404     0.9009164     0.5140815
  C        1.2368440     1.1072260     0.8878520
  C        2.6518190    -0.3922910    -0.2854700
  C        0.5739580     0.6830040    -0.4149160
  C        2.8020980    -1.6600160     0.5224700
  C       -1.1273370    -1.1158190    -0.3082760
  C       -1.7446880     1.2038920     0.0820450
  C       -2.4173070    -1.5045610    -0.1045420
  C       -3.3619920    -0.4731600     0.1685110
  H        3.3343810     0.7567850     1.4508530
  H        0.9047070     0.4438290     1.6934890
  H        0.9853290     2.1340670     1.1581470
  H        0.5274540     1.5132540    -1.1249130
  H        3.4334888    -0.3128960    -1.0470034
  H        1.9707490    -1.7331840     1.2432230
  H        3.7460890    -1.6095150     1.0882890
  H        3.1038510     2.7463240     0.1779830
  H       -0.3107400    -1.7892010    -0.5436980
  H        2.9100300    -3.5650720     0.1192120
  H       -2.7034680    -2.5490840    -0.1532500
  H       -5.0287110    -1.6377420    -0.0567190
  H       -5.2994710    -0.0137980     0.3861010
units angstrom
no_reorient  #important for SAPT in psi4, default
symmetry c1  #important for SAPT in psi4, default
}

set PROPERTIES_ORIGIN ["COM"]
properties('MP2/aug-cc-pvtz', properties = ['dipole'])
--------------------------------------------------------------------------

    Molecular point group: c1
  Charge       = 0
  Multiplicity = 1
  Basis Set: AUG-CC-PVTZ
    Blend: AUG-CC-PVTZ
  Basis Set: (AUG-CC-PVTZ AUX)
    Blend: AUG-CC-PVTZ-JKFIT

    Orbital Energies [Eh]
    ---------------------

    Doubly Occupied:

       1A    -20.581525     2A    -20.577108     3A    -20.572583
       4A    -20.502018     5A    -15.620754     6A    -15.587682
       7A    -15.539997     8A    -11.368924     9A    -11.344225
      10A    -11.328969    11A    -11.317427    12A    -11.301646
      13A    -11.297160    14A    -11.291983    15A    -11.236162
      16A    -11.235025    17A     -1.420312    18A     -1.396063
      19A     -1.379013    20A     -1.368120    21A     -1.291347
      22A     -1.260512    23A     -1.168287    24A     -1.073168
      25A     -1.064133    26A     -1.023411    27A     -0.925508
      28A     -0.897121    29A     -0.870545    30A     -0.831141
      31A     -0.804145    32A     -0.753596    33A     -0.737825
      34A     -0.721238    35A     -0.714219    36A     -0.697767
      37A     -0.689478    38A     -0.675628    39A     -0.656546
      40A     -0.637253    41A     -0.628817    42A     -0.619593
      43A     -0.604306    44A     -0.598878    45A     -0.589288
      46A     -0.574376    47A     -0.571355    48A     -0.545853
      49A     -0.536251    50A     -0.521513    51A     -0.511040
      52A     -0.481679    53A     -0.474823    54A     -0.466985
      55A     -0.454416    56A     -0.439013    57A     -0.436670
      58A     -0.414891    59A     -0.382481    60A     -0.333839

  @DF-RHF Final Energy:  -811.47418312323236

   => Energetics <=

    Nuclear Repulsion Energy =           1169.5164259824637156
    One-Electron Energy =               -3434.0899555432570196
    Two-Electron Energy =                1453.0993464375610529
    Total Energy =                       -811.4741831232322511
  Basis Set: (AUG-CC-PVTZ AUX)
    Blend: AUG-CC-PVTZ-RI
    Molecular point group: c1

    Geometry (in Angstrom), charge = 0, multiplicity = 1:

       Center              X                  Y                   Z               Mass
    ------------   -----------------  -----------------  -----------------  -----------------
         O            1.358800629628    -0.381579300536    -0.929532404490    15.994914619570
         O            3.198786629628     1.899644699464    -0.297201404490    15.994914619570
         O            2.796136629628    -2.750515300536    -0.397889404490    15.994914619570
         O           -1.365456370372     2.372436699464     0.157094595510    15.994914619570
         N           -0.801514370372     0.197849699464    -0.226944404490    14.003074004430
         N           -3.057442370372     0.803670699464     0.242323595510    14.003074004430
         N           -4.676680370372    -0.814003300536     0.414948595510    14.003074004430
         C            2.758870029628     0.899348099464     0.516393095510    12.000000000000
         C            1.233573629628     1.105657699464     0.890163595510    12.000000000000
         C            2.648548629628    -0.393859300536    -0.283158404490    12.000000000000
         C            0.570687629628     0.681435699464    -0.412604404490    12.000000000000
         C            2.798827629628    -1.661584300536     0.524781595510    12.000000000000
         C           -1.130607370372    -1.117387300536    -0.305964404490    12.000000000000
         C           -1.747958370372     1.202323699464     0.084356595510    12.000000000000
         C           -2.420577370372    -1.506129300536    -0.102230404490    12.000000000000
         C           -3.365262370372    -0.474728300536     0.170822595510    12.000000000000
         H            3.331110629628     0.755216699464     1.453164595510     1.007825032230
         H            0.901436629628     0.442260699464     1.695800595510     1.007825032230
         H            0.982058629628     2.132498699464     1.160458595510     1.007825032230
         H            0.524183629628     1.511685699464    -1.122601404490     1.007825032230
         H            3.430218429628    -0.314464300536    -1.044691804490     1.007825032230
         H            1.967478629628    -1.734752300536     1.245534595510     1.007825032230
         H            3.742818629628    -1.611083300536     1.090600595510     1.007825032230
         H            3.100580629628     2.744755699464     0.180294595510     1.007825032230
         H           -0.314010370372    -1.790769300536    -0.541386404490     1.007825032230
         H            2.906759629628    -3.566640300536     0.121523595510     1.007825032230
         H           -2.706738370372    -2.550652300536    -0.150938404490     1.007825032230
         H           -5.031981370372    -1.639310300536    -0.054407404490     1.007825032230
         H           -5.302741370372    -0.015366300536     0.388412595510     1.007825032230

  Basis Set: AUG-CC-PVTZ
    Blend: AUG-CC-PVTZ
  Basis Set: (AUG-CC-PVTZ AUX)
    Blend: AUG-CC-PVTZ-JKFIT
	 Reference Energy          =    -811.4741831232323648 [Eh]
	 Singles Energy            =      -0.0000000000000000 [Eh]
	 Same-Spin Energy          =      -0.8296727564054511 [Eh]
	 Opposite-Spin Energy      =      -2.5245066265996026 [Eh]
	 Correlation Energy        =      -3.3541793830050537 [Eh]
	 Total Energy              =    -814.8283625062374540 [Eh]

	 ================> DF-SCS-MP2 Energies <==================
	-----------------------------------------------------------
	 SCS Same-Spin Scale       =       0.3333333333333333 [-]
	 SCS Opposite-Spin Scale   =       1.2000000000000000 [-]
	 SCS Same-Spin Energy      =      -0.2765575854684837 [Eh]
	 SCS Opposite-Spin Energy  =      -3.0294079519195232 [Eh]
	 SCS Correlation Energy    =      -3.3059655373880070 [Eh]
	 SCS Total Energy          =    -814.7801486606203980 [Eh]
	-----------------------------------------------------------

  Dipole Moment: [D]
     X:     1.2848      Y:    -4.4697      Z:     2.3865     Total:     5.2273

*** Psi4 exiting successfully. Buy a developer a beer!
