                               Psi4 1.3.2 release

  ==> Input File <==

--------------------------------------------------------------------------
#psi4
#
memory 32 gb

molecule  {
0 1
  O        1.3620710    -0.3800110    -0.9318440
  O        3.2020570     1.9012130    -0.2995130
  O        2.7994070    -2.7489470    -0.4002010
  O       -1.3621860     2.3740050     0.1547830
  N       -0.7939562     0.1905644    -0.2210672
  N       -3.0541720     0.8052390     0.2400120
  N       -4.6734100    -0.8124350     0.4126370
  C        2.7015950     0.8755540     0.5594740
  C        1.2368440     1.1072260     0.8878520
  C        2.6518190    -0.3922910    -0.2854700
  C        0.5739580     0.6830040    -0.4149160
  C        2.8020980    -1.6600160     0.5224700
  C       -1.1273370    -1.1158190    -0.3082760
  C       -1.7446880     1.2038920     0.0820450
  C       -2.4173070    -1.5045610    -0.1045420
  C       -3.3619920    -0.4731600     0.1685110
  H        3.3343810     0.7567850     1.4508530
  H        0.9047070     0.4438290     1.6934890
  H        0.9853290     2.1340670     1.1581470
  H        0.5369160     1.5142943    -1.1242522
  H        3.4174920    -0.3642830    -1.0666260
  H        1.9707490    -1.7331840     1.2432230
  H        3.7460890    -1.6095150     1.0882890
  H        3.1038510     2.7463240     0.1779830
  H       -0.3107400    -1.7892010    -0.5436980
  H        2.9100300    -3.5650720     0.1192120
  H       -2.7034680    -2.5490840    -0.1532500
  H       -5.0287110    -1.6377420    -0.0567190
  H       -5.2994710    -0.0137980     0.3861010
units angstrom
no_reorient  #important for SAPT in psi4, default
symmetry c1  #important for SAPT in psi4, default
}

set PROPERTIES_ORIGIN ["COM"]
properties('MP2/aug-cc-pvtz', properties = ['dipole'])
--------------------------------------------------------------------------

    Molecular point group: c1
  Charge       = 0
  Multiplicity = 1
  Basis Set: AUG-CC-PVTZ
    Blend: AUG-CC-PVTZ
  Basis Set: (AUG-CC-PVTZ AUX)
    Blend: AUG-CC-PVTZ-JKFIT

    Orbital Energies [Eh]
    ---------------------

    Doubly Occupied:

       1A    -20.577687     2A    -20.574462     3A    -20.572661
       4A    -20.504292     5A    -15.622147     6A    -15.588116
       7A    -15.540762     8A    -11.370986     9A    -11.344814
      10A    -11.331034    11A    -11.317676    12A    -11.300874
      13A    -11.296805    14A    -11.293000    15A    -11.236746
      16A    -11.236033    17A     -1.416743    18A     -1.382396
      19A     -1.373580    20A     -1.365777    21A     -1.292789
      22A     -1.262129    23A     -1.169132    24A     -1.079077
      25A     -1.068803    26A     -1.027565    27A     -0.926909
      28A     -0.896937    29A     -0.868859    30A     -0.831026
      31A     -0.806281    32A     -0.754063    33A     -0.739409
      34A     -0.721049    35A     -0.706621    36A     -0.692947
      37A     -0.689469    38A     -0.675612    39A     -0.656044
      40A     -0.636991    41A     -0.627501    42A     -0.618641
      43A     -0.604450    44A     -0.594991    45A     -0.588881
      46A     -0.573527    47A     -0.568420    48A     -0.544922
      49A     -0.532330    50A     -0.524026    51A     -0.510468
      52A     -0.485984    53A     -0.483234    54A     -0.468490
      55A     -0.461292    56A     -0.444834    57A     -0.437891
      58A     -0.416246    59A     -0.383835    60A     -0.334280

  @DF-RHF Final Energy:  -811.47921663871318

   => Energetics <=

    Nuclear Repulsion Energy =           1169.9738454024509338
    One-Electron Energy =               -3435.0010295553993274
    Two-Electron Energy =                1453.5479675142350970
    Total Energy =                       -811.4792166387132966
  Basis Set: (AUG-CC-PVTZ AUX)
    Blend: AUG-CC-PVTZ-RI
    Molecular point group: c1

    Geometry (in Angstrom), charge = 0, multiplicity = 1:

       Center              X                  Y                   Z               Mass
    ------------   -----------------  -----------------  -----------------  -----------------
         O            1.361764593512    -0.379469714898    -0.932351843864    15.994914619570
         O            3.201750593512     1.901754285102    -0.300020843864    15.994914619570
         O            2.799100593512    -2.748405714898    -0.400708843864    15.994914619570
         O           -1.362492406488     2.374546285102     0.154275156136    15.994914619570
         N           -0.794262606488     0.191105685102    -0.221575043864    14.003074004430
         N           -3.054478406488     0.805780285102     0.239504156136    14.003074004430
         N           -4.673716406488    -0.811893714898     0.412129156136    14.003074004430
         C            2.701288593512     0.876095285102     0.558966156136    12.000000000000
         C            1.236537593512     1.107767285102     0.887344156136    12.000000000000
         C            2.651512593512    -0.391749714898    -0.285977843864    12.000000000000
         C            0.573651593512     0.683545285102    -0.415423843864    12.000000000000
         C            2.801791593512    -1.659474714898     0.521962156136    12.000000000000
         C           -1.127643406488    -1.115277714898    -0.308783843864    12.000000000000
         C           -1.744994406488     1.204433285102     0.081537156136    12.000000000000
         C           -2.417613406488    -1.504019714898    -0.105049843864    12.000000000000
         C           -3.362298406488    -0.472618714898     0.168003156136    12.000000000000
         H            3.334074593512     0.757326285102     1.450345156136     1.007825032230
         H            0.904400593512     0.444370285102     1.692981156136     1.007825032230
         H            0.985022593512     2.134608285102     1.157639156136     1.007825032230
         H            0.536609593512     1.514835585102    -1.124760043864     1.007825032230
         H            3.417185593512    -0.363741714898    -1.067133843864     1.007825032230
         H            1.970442593512    -1.732642714898     1.242715156136     1.007825032230
         H            3.745782593512    -1.608973714898     1.087781156136     1.007825032230
         H            3.103544593512     2.746865285102     0.177475156136     1.007825032230
         H           -0.311046406488    -1.788659714898    -0.544205843864     1.007825032230
         H            2.909723593512    -3.564530714898     0.118704156136     1.007825032230
         H           -2.703774406488    -2.548542714898    -0.153757843864     1.007825032230
         H           -5.029017406488    -1.637200714898    -0.057226843864     1.007825032230
         H           -5.299777406488    -0.013256714898     0.385593156136     1.007825032230

  Basis Set: AUG-CC-PVTZ
    Blend: AUG-CC-PVTZ
  Basis Set: (AUG-CC-PVTZ AUX)
    Blend: AUG-CC-PVTZ-JKFIT
	 Reference Energy          =    -811.4792166387131829 [Eh]
	 Singles Energy            =      -0.0000000000000000 [Eh]
	 Same-Spin Energy          =      -0.8297173887811037 [Eh]
	 Opposite-Spin Energy      =      -2.5251994391588082 [Eh]
	 Correlation Energy        =      -3.3549168279399120 [Eh]
	 Total Energy              =    -814.8341334666530429 [Eh]

	 ================> DF-SCS-MP2 Energies <==================
	-----------------------------------------------------------
	 SCS Same-Spin Scale       =       0.3333333333333333 [-]
	 SCS Opposite-Spin Scale   =       1.2000000000000000 [-]
	 SCS Same-Spin Energy      =      -0.2765724629270345 [Eh]
	 SCS Opposite-Spin Energy  =      -3.0302393269905696 [Eh]
	 SCS Correlation Energy    =      -3.3068117899176039 [Eh]
	 SCS Total Energy          =    -814.7860284286307433 [Eh]
	-----------------------------------------------------------

  Dipole Moment: [D]
     X:     1.0888      Y:    -4.6346      Z:     2.4872     Total:     5.3713

*** Psi4 exiting successfully. Buy a developer a beer!
