                               Psi4 1.3.2 release

  ==> Input File <==

--------------------------------------------------------------------------
#psi4
#
memory 32 gb

molecule  {
0 1
  O        1.3620710    -0.3800110    -0.9318440
  O        3.2020570     1.9012130    -0.2995130
  O        2.7994070    -2.7489470    -0.4002010
  O       -1.3621860     2.3740050     0.1547830
  N       -0.7982440     0.1994180    -0.2292560
  N       -3.0541720     0.8052390     0.2400120
  N       -4.6734100    -0.8124350     0.4126370
  C        2.7015950     0.8755540     0.5594740
  C        1.2368440     1.1072260     0.8878520
  C        2.6518190    -0.3922910    -0.2854700
  C        0.5739580     0.6830040    -0.4149160
  C        2.8020980    -1.6600160     0.5224700
  C       -1.1101711    -1.1843840    -0.3179263
  C       -1.7446880     1.2038920     0.0820450
  C       -2.4173070    -1.5045610    -0.1045420
  C       -3.4148545    -0.5255777     0.1734263
  H        3.3343810     0.7567850     1.4508530
  H        0.9047070     0.4438290     1.6934890
  H        0.9853290     2.1340670     1.1581470
  H        0.5274540     1.5132540    -1.1249130
  H        3.4174920    -0.3642830    -1.0666260
  H        1.9707490    -1.7331840     1.2432230
  H        3.7460890    -1.6095150     1.0882890
  H        3.1038510     2.7463240     0.1779830
  H       -0.3107400    -1.7892010    -0.5436980
  H        2.9100300    -3.5650720     0.1192120
  H       -2.7034680    -2.5490840    -0.1532500
  H       -5.0287110    -1.6377420    -0.0567190
  H       -5.2994710    -0.0137980     0.3861010
units angstrom
no_reorient  #important for SAPT in psi4, default
symmetry c1  #important for SAPT in psi4, default
}

set PROPERTIES_ORIGIN ["COM"]
properties('MP2/aug-cc-pvtz', properties = ['dipole'])
--------------------------------------------------------------------------

    Molecular point group: c1
  Charge       = 0
  Multiplicity = 1
  Basis Set: AUG-CC-PVTZ
    Blend: AUG-CC-PVTZ
  Basis Set: (AUG-CC-PVTZ AUX)
    Blend: AUG-CC-PVTZ-JKFIT

    Orbital Energies [Eh]
    ---------------------

    Doubly Occupied:

       1A    -20.576537     2A    -20.571156     3A    -20.569112
       4A    -20.493936     5A    -15.613340     6A    -15.604404
       7A    -15.536537     8A    -11.361826     9A    -11.353215
      10A    -11.323694    11A    -11.322269    12A    -11.297311
      13A    -11.295057    14A    -11.290176    15A    -11.244059
      16A    -11.231692    17A     -1.411315    18A     -1.373082
      19A     -1.371325    20A     -1.361406    21A     -1.300755
      22A     -1.252975    23A     -1.158321    24A     -1.075817
      25A     -1.066997    26A     -1.024459    27A     -0.924656
      28A     -0.899392    29A     -0.862314    30A     -0.826460
      31A     -0.804218    32A     -0.758622    33A     -0.735183
      34A     -0.724598    35A     -0.715705    36A     -0.691348
      37A     -0.687653    38A     -0.678580    39A     -0.652404
      40A     -0.634075    41A     -0.629206    42A     -0.618418
      43A     -0.604515    44A     -0.598140    45A     -0.583954
      46A     -0.567531    47A     -0.562867    48A     -0.544459
      49A     -0.536693    50A     -0.517926    51A     -0.508862
      52A     -0.482307    53A     -0.473406    54A     -0.466523
      55A     -0.456804    56A     -0.438887    57A     -0.429321
      58A     -0.408336    59A     -0.372813    60A     -0.335674

  @DF-RHF Final Energy:  -811.46068225471095

   => Energetics <=

    Nuclear Repulsion Energy =           1167.5658046072196612
    One-Electron Energy =               -3430.4277254983599050
    Two-Electron Energy =                1451.4012386364295253
    Total Energy =                       -811.4606822547109459
  Basis Set: (AUG-CC-PVTZ AUX)
    Blend: AUG-CC-PVTZ-RI
    Molecular point group: c1

    Geometry (in Angstrom), charge = 0, multiplicity = 1:

       Center              X                  Y                   Z               Mass
    ------------   -----------------  -----------------  -----------------  -----------------
         O            1.363957276116    -0.373618027555    -0.931593757274    15.994914619570
         O            3.203943276116     1.907605972445    -0.299262757274    15.994914619570
         O            2.801293276116    -2.742554027555    -0.399950757274    15.994914619570
         O           -1.360299723884     2.380397972445     0.155033242726    15.994914619570
         N           -0.796357723884     0.205810972445    -0.229005757274    14.003074004430
         N           -3.052285723884     0.811631972445     0.240262242726    14.003074004430
         N           -4.671523723884    -0.806042027555     0.412887242726    14.003074004430
         C            2.703481276116     0.881946972445     0.559724242726    12.000000000000
         C            1.238730276116     1.113618972445     0.888102242726    12.000000000000
         C            2.653705276116    -0.385898027555    -0.285219757274    12.000000000000
         C            0.575844276116     0.689396972445    -0.414665757274    12.000000000000
         C            2.803984276116    -1.653623027555     0.522720242726    12.000000000000
         C           -1.108284823884    -1.177991027555    -0.317676057274    12.000000000000
         C           -1.742801723884     1.210284972445     0.082295242726    12.000000000000
         C           -2.415420723884    -1.498168027555    -0.104291757274    12.000000000000
         C           -3.412968223884    -0.519184727555     0.173676542726    12.000000000000
         H            3.336267276116     0.763177972445     1.451103242726     1.007825032230
         H            0.906593276116     0.450221972445     1.693739242726     1.007825032230
         H            0.987215276116     2.140459972445     1.158397242726     1.007825032230
         H            0.529340276116     1.519646972445    -1.124662757274     1.007825032230
         H            3.419378276116    -0.357890027555    -1.066375757274     1.007825032230
         H            1.972635276116    -1.726791027555     1.243473242726     1.007825032230
         H            3.747975276116    -1.603122027555     1.088539242726     1.007825032230
         H            3.105737276116     2.752716972445     0.178233242726     1.007825032230
         H           -0.308853723884    -1.782808027555    -0.543447757274     1.007825032230
         H            2.911916276116    -3.558679027555     0.119462242726     1.007825032230
         H           -2.701581723884    -2.542691027555    -0.152999757274     1.007825032230
         H           -5.026824723884    -1.631349027555    -0.056468757274     1.007825032230
         H           -5.297584723884    -0.007405027555     0.386351242726     1.007825032230

  Basis Set: AUG-CC-PVTZ
    Blend: AUG-CC-PVTZ
  Basis Set: (AUG-CC-PVTZ AUX)
    Blend: AUG-CC-PVTZ-JKFIT
	 Reference Energy          =    -811.4606822547109459 [Eh]
	 Singles Energy            =      -0.0000000000000000 [Eh]
	 Same-Spin Energy          =      -0.8306005589868842 [Eh]
	 Opposite-Spin Energy      =      -2.5275959048545644 [Eh]
	 Correlation Energy        =      -3.3581964638414488 [Eh]
	 Total Energy              =    -814.8188787185523552 [Eh]

	 ================> DF-SCS-MP2 Energies <==================
	-----------------------------------------------------------
	 SCS Same-Spin Scale       =       0.3333333333333333 [-]
	 SCS Opposite-Spin Scale   =       1.2000000000000000 [-]
	 SCS Same-Spin Energy      =      -0.2768668529956281 [Eh]
	 SCS Opposite-Spin Energy  =      -3.0331150858254774 [Eh]
	 SCS Correlation Energy    =      -3.3099819388211054 [Eh]
	 SCS Total Energy          =    -814.7706641935320704 [Eh]
	-----------------------------------------------------------

  Dipole Moment: [D]
     X:     0.2663      Y:    -5.1545      Z:     2.5647     Total:     5.7634

*** Psi4 exiting successfully. Buy a developer a beer!
