                               Psi4 1.3.2 release

  ==> Input File <==

--------------------------------------------------------------------------
#psi4
#
memory 32 gb

molecule  {
0 1
  O        1.3620710    -0.3800110    -0.9318440
  O        3.1641454     1.8924041    -0.3306723
  O        2.7994070    -2.7489470    -0.4002010
  O       -1.3621860     2.3740050     0.1547830
  N       -0.7982440     0.1994180    -0.2292560
  N       -3.0541720     0.8052390     0.2400120
  N       -4.6734100    -0.8124350     0.4126370
  C        2.7015950     0.8755540     0.5594740
  C        1.2368440     1.1072260     0.8878520
  C        2.6518190    -0.3922910    -0.2854700
  C        0.5739580     0.6830040    -0.4149160
  C        2.8020980    -1.6600160     0.5224700
  C       -1.1273370    -1.1158190    -0.3082760
  C       -1.7446880     1.2038920     0.0820450
  C       -2.4173070    -1.5045610    -0.1045420
  C       -3.3619920    -0.4731600     0.1685110
  H        3.3109483     0.7288967     1.4629456
  H        0.9047070     0.4438290     1.6934890
  H        0.9853290     2.1340670     1.1581470
  H        0.5274540     1.5132540    -1.1249130
  H        3.4174920    -0.3642830    -1.0666260
  H        1.9707490    -1.7331840     1.2432230
  H        3.7460890    -1.6095150     1.0882890
  H        3.1038510     2.7463240     0.1779830
  H       -0.3107400    -1.7892010    -0.5436980
  H        2.9100300    -3.5650720     0.1192120
  H       -2.7034680    -2.5490840    -0.1532500
  H       -5.0287110    -1.6377420    -0.0567190
  H       -5.2994710    -0.0137980     0.3861010
units angstrom
no_reorient  #important for SAPT in psi4, default
symmetry c1  #important for SAPT in psi4, default
}

set PROPERTIES_ORIGIN ["COM"]
properties('MP2/aug-cc-pvtz', properties = ['dipole'])
--------------------------------------------------------------------------

    Molecular point group: c1
  Charge       = 0
  Multiplicity = 1
  Basis Set: AUG-CC-PVTZ
    Blend: AUG-CC-PVTZ
  Basis Set: (AUG-CC-PVTZ AUX)
    Blend: AUG-CC-PVTZ-JKFIT

    Orbital Energies [Eh]
    ---------------------

    Doubly Occupied:

       1A    -20.578363     2A    -20.577538     3A    -20.572052
       4A    -20.502522     5A    -15.621118     6A    -15.587994
       7A    -15.540360     8A    -11.369371     9A    -11.344599
      10A    -11.329683    11A    -11.317795    12A    -11.300828
      13A    -11.296518    14A    -11.292231    15A    -11.236550
      16A    -11.235629    17A     -1.416112    18A     -1.381827
      19A     -1.372748    20A     -1.364099    21A     -1.291736
      22A     -1.260896    23A     -1.168669    24A     -1.078139
      25A     -1.068387    26A     -1.027403    27A     -0.926117
      28A     -0.896906    29A     -0.868044    30A     -0.829639
      31A     -0.806142    32A     -0.753690    33A     -0.738723
      34A     -0.719897    35A     -0.706796    36A     -0.692354
      37A     -0.686606    38A     -0.675416    39A     -0.656268
      40A     -0.636022    41A     -0.626840    42A     -0.618414
      43A     -0.604187    44A     -0.594159    45A     -0.588074
      46A     -0.570860    47A     -0.569557    48A     -0.544442
      49A     -0.532844    50A     -0.523016    51A     -0.509981
      52A     -0.486807    53A     -0.481233    54A     -0.468321
      55A     -0.460475    56A     -0.443987    57A     -0.437231
      58A     -0.415827    59A     -0.383271    60A     -0.334402

  @DF-RHF Final Energy:  -811.47611246000429

   => Energetics <=

    Nuclear Repulsion Energy =           1170.6429881819101411
    One-Electron Energy =               -3436.3987763832474229
    Two-Electron Energy =                1454.2796757413327668
    Total Energy =                       -811.4761124600042876
  Basis Set: (AUG-CC-PVTZ AUX)
    Blend: AUG-CC-PVTZ-RI
    Molecular point group: c1

    Geometry (in Angstrom), charge = 0, multiplicity = 1:

       Center              X                  Y                   Z               Mass
    ------------   -----------------  -----------------  -----------------  -----------------
         O            1.364845246211    -0.379266822514    -0.929702956391    15.994914619570
         O            3.166919646211     1.893148277486    -0.328531256391    15.994914619570
         O            2.802181246211    -2.748202822514    -0.398059956391    15.994914619570
         O           -1.359411753789     2.374749177486     0.156924043609    15.994914619570
         N           -0.795469753789     0.200162177486    -0.227114956391    14.003074004430
         N           -3.051397753789     0.805983177486     0.242153043609    14.003074004430
         N           -4.670635753789    -0.811690822514     0.414778043609    14.003074004430
         C            2.704369246211     0.876298177486     0.561615043609    12.000000000000
         C            1.239618246211     1.107970177486     0.889993043609    12.000000000000
         C            2.654593246211    -0.391546822514    -0.283328956391    12.000000000000
         C            0.576732246211     0.683748177486    -0.412774956391    12.000000000000
         C            2.804872246211    -1.659271822514     0.524611043609    12.000000000000
         C           -1.124562753789    -1.115074822514    -0.306134956391    12.000000000000
         C           -1.741913753789     1.204636177486     0.084186043609    12.000000000000
         C           -2.414532753789    -1.503816822514    -0.102400956391    12.000000000000
         C           -3.359217753789    -0.472415822514     0.170652043609    12.000000000000
         H            3.313722546211     0.729640877486     1.465086643609     1.007825032230
         H            0.907481246211     0.444573177486     1.695630043609     1.007825032230
         H            0.988103246211     2.134811177486     1.160288043609     1.007825032230
         H            0.530228246211     1.513998177486    -1.122771956391     1.007825032230
         H            3.420266246211    -0.363538822514    -1.064484956391     1.007825032230
         H            1.973523246211    -1.732439822514     1.245364043609     1.007825032230
         H            3.748863246211    -1.608770822514     1.090430043609     1.007825032230
         H            3.106625246211     2.747068177486     0.180124043609     1.007825032230
         H           -0.307965753789    -1.788456822514    -0.541556956391     1.007825032230
         H            2.912804246211    -3.564327822514     0.121353043609     1.007825032230
         H           -2.700693753789    -2.548339822514    -0.151108956391     1.007825032230
         H           -5.025936753789    -1.636997822514    -0.054577956391     1.007825032230
         H           -5.296696753789    -0.013053822514     0.388242043609     1.007825032230

  Basis Set: AUG-CC-PVTZ
    Blend: AUG-CC-PVTZ
  Basis Set: (AUG-CC-PVTZ AUX)
    Blend: AUG-CC-PVTZ-JKFIT
	 Reference Energy          =    -811.4761124600042876 [Eh]
	 Singles Energy            =      -0.0000000000000000 [Eh]
	 Same-Spin Energy          =      -0.8301728257319074 [Eh]
	 Opposite-Spin Energy      =      -2.5262490412294705 [Eh]
	 Correlation Energy        =      -3.3564218669613779 [Eh]
	 Total Energy              =    -814.8325343269656287 [Eh]

	 ================> DF-SCS-MP2 Energies <==================
	-----------------------------------------------------------
	 SCS Same-Spin Scale       =       0.3333333333333333 [-]
	 SCS Opposite-Spin Scale   =       1.2000000000000000 [-]
	 SCS Same-Spin Energy      =      -0.2767242752439691 [Eh]
	 SCS Opposite-Spin Energy  =      -3.0314988494753643 [Eh]
	 SCS Correlation Energy    =      -3.3082231247193334 [Eh]
	 SCS Total Energy          =    -814.7843355847236353 [Eh]
	-----------------------------------------------------------

  Dipole Moment: [D]
     X:     1.1988      Y:    -4.6409      Z:     2.5285     Total:     5.4192

*** Psi4 exiting successfully. Buy a developer a beer!
