                               Psi4 1.3.2 release

  ==> Input File <==

--------------------------------------------------------------------------
#psi4
#
memory 32 gb

molecule  {
0 1
  O        1.3620710    -0.3800110    -0.9318440
  O        3.2020570     1.9012130    -0.2995130
  O        2.7994070    -2.7489470    -0.4002010
  O       -1.3621860     2.3740050     0.1547830
  N       -0.7982440     0.1994180    -0.2292560
  N       -3.0541720     0.8052390     0.2400120
  N       -4.6734100    -0.8124350     0.4126370
  C        2.7015950     0.8755540     0.5594740
  C        1.2368440     1.1072260     0.8878520
  C        2.6518190    -0.3922910    -0.2854700
  C        0.5739580     0.6830040    -0.4149160
  C        2.8020980    -1.6600160     0.5224700
  C       -1.1758013    -1.3095089    -0.3199130
  C       -1.7446880     1.2038920     0.0820450
  C       -2.4173070    -1.5045610    -0.1045420
  C       -3.3619920    -0.4731600     0.1685110
  H        3.3343810     0.7567850     1.4508530
  H        0.9047070     0.4438290     1.6934890
  H        0.9853290     2.1340670     1.1581470
  H        0.5274540     1.5132540    -1.1249130
  H        3.4174920    -0.3642830    -1.0666260
  H        1.9707490    -1.7331840     1.2432230
  H        3.7460890    -1.6095150     1.0882890
  H        3.1038510     2.7463240     0.1779830
  H       -0.3107400    -1.7892010    -0.5436980
  H        2.9100300    -3.5650720     0.1192120
  H       -2.7034680    -2.5490840    -0.1532500
  H       -5.0287110    -1.6377420    -0.0567190
  H       -5.2994710    -0.0137980     0.3861010
units angstrom
no_reorient  #important for SAPT in psi4, default
symmetry c1  #important for SAPT in psi4, default
}

set PROPERTIES_ORIGIN ["COM"]
properties('MP2/aug-cc-pvtz', properties = ['dipole'])
--------------------------------------------------------------------------

    Molecular point group: c1
  Charge       = 0
  Multiplicity = 1
  Basis Set: AUG-CC-PVTZ
    Blend: AUG-CC-PVTZ
  Basis Set: (AUG-CC-PVTZ AUX)
    Blend: AUG-CC-PVTZ-JKFIT

    Orbital Energies [Eh]
    ---------------------

    Doubly Occupied:

       1A    -20.575244     2A    -20.568570     3A    -20.565222
       4A    -20.497179     5A    -15.599574     6A    -15.597760
       7A    -15.548090     8A    -11.363277     9A    -11.358405
      10A    -11.317733    11A    -11.316818    12A    -11.294191
      13A    -11.293215    14A    -11.287260    15A    -11.250217
      16A    -11.227115    17A     -1.405966    18A     -1.372134
      19A     -1.369604    20A     -1.359932    21A     -1.293115
      22A     -1.225699    23A     -1.168246    24A     -1.098614
      25A     -1.066814    26A     -1.021173    27A     -0.920493
      28A     -0.897062    29A     -0.861410    30A     -0.822009
      31A     -0.802290    32A     -0.757427    33A     -0.726513
      34A     -0.717933    35A     -0.710763    36A     -0.688913
      37A     -0.682802    38A     -0.677757    39A     -0.647923
      40A     -0.643680    41A     -0.632301    42A     -0.615585
      43A     -0.608547    44A     -0.595646    45A     -0.584364
      46A     -0.563874    47A     -0.549255    48A     -0.539330
      49A     -0.530529    50A     -0.510394    51A     -0.505248
      52A     -0.478450    53A     -0.471562    54A     -0.464872
      55A     -0.454324    56A     -0.444041    57A     -0.436023
      58A     -0.412227    59A     -0.381430    60A     -0.352256

  @DF-RHF Final Energy:  -811.43817238541158

   => Energetics <=

    Nuclear Repulsion Energy =           1166.2769722185403225
    One-Electron Energy =               -3427.9734917778414456
    Two-Electron Energy =                1450.2583471738894332
    Total Energy =                       -811.4381723854116899
  Basis Set: (AUG-CC-PVTZ AUX)
    Blend: AUG-CC-PVTZ-RI
    Molecular point group: c1

    Geometry (in Angstrom), charge = 0, multiplicity = 1:

       Center              X                  Y                   Z               Mass
    ------------   -----------------  -----------------  -----------------  -----------------
         O            1.364631951316    -0.369776008655    -0.931229039413    15.994914619570
         O            3.204617951316     1.911447991345    -0.298898039413    15.994914619570
         O            2.801967951316    -2.738712008655    -0.399586039413    15.994914619570
         O           -1.359625048684     2.384239991345     0.155397960587    15.994914619570
         N           -0.795683048684     0.209652991345    -0.228641039413    14.003074004430
         N           -3.051611048684     0.815473991345     0.240626960587    14.003074004430
         N           -4.670849048684    -0.802200008655     0.413251960587    14.003074004430
         C            2.704155951316     0.885788991345     0.560088960587    12.000000000000
         C            1.239404951316     1.117460991345     0.888466960587    12.000000000000
         C            2.654379951316    -0.382056008655    -0.284855039413    12.000000000000
         C            0.576518951316     0.693238991345    -0.414301039413    12.000000000000
         C            2.804658951316    -1.649781008655     0.523084960587    12.000000000000
         C           -1.173240348684    -1.299273908655    -0.319298039413    12.000000000000
         C           -1.742127048684     1.214126991345     0.082659960587    12.000000000000
         C           -2.414746048684    -1.494326008655    -0.103927039413    12.000000000000
         C           -3.359431048684    -0.462925008655     0.169125960587    12.000000000000
         H            3.336941951316     0.767019991345     1.451467960587     1.007825032230
         H            0.907267951316     0.454063991345     1.694103960587     1.007825032230
         H            0.987889951316     2.144301991345     1.158761960587     1.007825032230
         H            0.530014951316     1.523488991345    -1.124298039413     1.007825032230
         H            3.420052951316    -0.354048008655    -1.066011039413     1.007825032230
         H            1.973309951316    -1.722949008655     1.243837960587     1.007825032230
         H            3.748649951316    -1.599280008655     1.088903960587     1.007825032230
         H            3.106411951316     2.756558991345     0.178597960587     1.007825032230
         H           -0.308179048684    -1.778966008655    -0.543083039413     1.007825032230
         H            2.912590951316    -3.554837008655     0.119826960587     1.007825032230
         H           -2.700907048684    -2.538849008655    -0.152635039413     1.007825032230
         H           -5.026150048684    -1.627507008655    -0.056104039413     1.007825032230
         H           -5.296910048684    -0.003563008655     0.386715960587     1.007825032230

  Basis Set: AUG-CC-PVTZ
    Blend: AUG-CC-PVTZ
  Basis Set: (AUG-CC-PVTZ AUX)
    Blend: AUG-CC-PVTZ-JKFIT
	 Reference Energy          =    -811.4381723854115762 [Eh]
	 Singles Energy            =      -0.0000000000000000 [Eh]
	 Same-Spin Energy          =      -0.8290709152910478 [Eh]
	 Opposite-Spin Energy      =      -2.5282209636916084 [Eh]
	 Correlation Energy        =      -3.3572918789826565 [Eh]
	 Total Energy              =    -814.7954642643942407 [Eh]

	 ================> DF-SCS-MP2 Energies <==================
	-----------------------------------------------------------
	 SCS Same-Spin Scale       =       0.3333333333333333 [-]
	 SCS Opposite-Spin Scale   =       1.2000000000000000 [-]
	 SCS Same-Spin Energy      =      -0.2763569717636826 [Eh]
	 SCS Opposite-Spin Energy  =      -3.0338651564299299 [Eh]
	 SCS Correlation Energy    =      -3.3102221281936126 [Eh]
	 SCS Total Energy          =    -814.7483945136051489 [Eh]
	-----------------------------------------------------------

  Dipole Moment: [D]
     X:     0.2037      Y:    -5.2052      Z:     2.5285     Total:     5.7904

*** Psi4 exiting successfully. Buy a developer a beer!
