                               Psi4 1.3.2 release

  ==> Input File <==

--------------------------------------------------------------------------
#psi4
#
memory 32 gb

molecule  {
0 1
  O        1.3620710    -0.3800110    -0.9318440
  O        3.2020570     1.9012130    -0.2995130
  O        2.7994070    -2.7489470    -0.4002010
  O       -1.3621860     2.3740050     0.1547830
  N       -0.7982440     0.1994180    -0.2292560
  N       -3.0541720     0.8052390     0.2400120
  N       -4.6734100    -0.8124350     0.4126370
  C        2.7015950     0.8755540     0.5594740
  C        1.2368440     1.1072260     0.8878520
  C        2.6518190    -0.3922910    -0.2854700
  C        0.5739580     0.6830040    -0.4149160
  C        2.8020980    -1.6600160     0.5224700
  C       -1.1273370    -1.1158190    -0.3082760
  C       -1.7446880     1.2038920     0.0820450
  C       -2.4173070    -1.5045610    -0.1045420
  C       -3.3619920    -0.4731600     0.1685110
  H        3.3343810     0.7567850     1.4508530
  H        0.9047070     0.4438290     1.6934890
  H        0.9853290     2.1340670     1.1581470
  H        0.5189479     1.6651166    -1.2547799
  H        3.4174920    -0.3642830    -1.0666260
  H        1.9707490    -1.7331840     1.2432230
  H        3.7460890    -1.6095150     1.0882890
  H        3.1038510     2.7463240     0.1779830
  H       -0.3107400    -1.7892010    -0.5436980
  H        2.9100300    -3.5650720     0.1192120
  H       -2.7034680    -2.5490840    -0.1532500
  H       -5.0287110    -1.6377420    -0.0567190
  H       -5.2994710    -0.0137980     0.3861010
units angstrom
no_reorient  #important for SAPT in psi4, default
symmetry c1  #important for SAPT in psi4, default
}

set PROPERTIES_ORIGIN ["COM"]
properties('MP2/aug-cc-pvtz', properties = ['dipole'])
--------------------------------------------------------------------------

    Molecular point group: c1
  Charge       = 0
  Multiplicity = 1
  Basis Set: AUG-CC-PVTZ
    Blend: AUG-CC-PVTZ
  Basis Set: (AUG-CC-PVTZ AUX)
    Blend: AUG-CC-PVTZ-JKFIT

    Orbital Energies [Eh]
    ---------------------

    Doubly Occupied:

       1A    -20.578256     2A    -20.575589     3A    -20.573507
       4A    -20.502603     5A    -15.623666     6A    -15.588505
       7A    -15.540952     8A    -11.369581     9A    -11.350121
      10A    -11.345192    11A    -11.318907    12A    -11.301204
      13A    -11.297537    14A    -11.293826    15A    -11.238663
      16A    -11.237658    17A     -1.417292    18A     -1.382208
      19A     -1.373651    20A     -1.365786    21A     -1.292373
      22A     -1.261807    23A     -1.169072    24A     -1.078538
      25A     -1.068655    26A     -1.026940    27A     -0.923630
      28A     -0.897917    29A     -0.869203    30A     -0.824558
      31A     -0.804052    32A     -0.753332    33A     -0.738192
      34A     -0.718145    35A     -0.706773    36A     -0.691815
      37A     -0.684788    38A     -0.672339    39A     -0.654981
      40A     -0.633407    41A     -0.626627    42A     -0.617643
      43A     -0.604919    44A     -0.595170    45A     -0.589002
      46A     -0.572640    47A     -0.562474    48A     -0.545374
      49A     -0.532687    50A     -0.522176    51A     -0.503885
      52A     -0.486357    53A     -0.482095    54A     -0.468953
      55A     -0.461281    56A     -0.444087    57A     -0.429670
      58A     -0.415152    59A     -0.381323    60A     -0.334769

  @DF-RHF Final Energy:  -811.45736855622295

   => Energetics <=

    Nuclear Repulsion Energy =           1168.7540534471415867
    One-Electron Energy =               -3432.5798352032666116
    Two-Electron Energy =                1452.3684131999023066
    Total Energy =                       -811.4573685562229457
  Basis Set: (AUG-CC-PVTZ AUX)
    Blend: AUG-CC-PVTZ-RI
    Molecular point group: c1

    Geometry (in Angstrom), charge = 0, multiplicity = 1:

       Center              X                  Y                   Z               Mass
    ------------   -----------------  -----------------  -----------------  -----------------
         O            1.362108734043    -0.380685001212    -0.931267618231    15.994914619570
         O            3.202094734043     1.900538998788    -0.298936618231    15.994914619570
         O            2.799444734043    -2.749621001212    -0.399624618231    15.994914619570
         O           -1.362148265957     2.373330998788     0.155359381769    15.994914619570
         N           -0.798206265957     0.198743998788    -0.228679618231    14.003074004430
         N           -3.054134265957     0.804564998788     0.240588381769    14.003074004430
         N           -4.673372265957    -0.813109001212     0.413213381769    14.003074004430
         C            2.701632734043     0.874879998788     0.560050381769    12.000000000000
         C            1.236881734043     1.106551998788     0.888428381769    12.000000000000
         C            2.651856734043    -0.392965001212    -0.284893618231    12.000000000000
         C            0.573995734043     0.682329998788    -0.414339618231    12.000000000000
         C            2.802135734043    -1.660690001212     0.523046381769    12.000000000000
         C           -1.127299265957    -1.116493001212    -0.307699618231    12.000000000000
         C           -1.744650265957     1.203217998788     0.082621381769    12.000000000000
         C           -2.417269265957    -1.505235001212    -0.103965618231    12.000000000000
         C           -3.361954265957    -0.473834001212     0.169087381769    12.000000000000
         H            3.334418734043     0.756110998788     1.451429381769     1.007825032230
         H            0.904744734043     0.443154998788     1.694065381769     1.007825032230
         H            0.985366734043     2.133392998788     1.158723381769     1.007825032230
         H            0.518985634043     1.664442598788    -1.254203518231     1.007825032230
         H            3.417529734043    -0.364957001212    -1.066049618231     1.007825032230
         H            1.970786734043    -1.733858001212     1.243799381769     1.007825032230
         H            3.746126734043    -1.610189001212     1.088865381769     1.007825032230
         H            3.103888734043     2.745649998788     0.178559381769     1.007825032230
         H           -0.310702265957    -1.789875001212    -0.543121618231     1.007825032230
         H            2.910067734043    -3.565746001212     0.119788381769     1.007825032230
         H           -2.703430265957    -2.549758001212    -0.152673618231     1.007825032230
         H           -5.028673265957    -1.638416001212    -0.056142618231     1.007825032230
         H           -5.299433265957    -0.014472001212     0.386677381769     1.007825032230

  Basis Set: AUG-CC-PVTZ
    Blend: AUG-CC-PVTZ
  Basis Set: (AUG-CC-PVTZ AUX)
    Blend: AUG-CC-PVTZ-JKFIT
	 Reference Energy          =    -811.4573685562229457 [Eh]
	 Singles Energy            =      -0.0000000000000000 [Eh]
	 Same-Spin Energy          =      -0.8306963387552040 [Eh]
	 Opposite-Spin Energy      =      -2.5280235776727569 [Eh]
	 Correlation Energy        =      -3.3587199164279609 [Eh]
	 Total Energy              =    -814.8160884726509039 [Eh]

	 ================> DF-SCS-MP2 Energies <==================
	-----------------------------------------------------------
	 SCS Same-Spin Scale       =       0.3333333333333333 [-]
	 SCS Opposite-Spin Scale   =       1.2000000000000000 [-]
	 SCS Same-Spin Energy      =      -0.2768987795850680 [Eh]
	 SCS Opposite-Spin Energy  =      -3.0336282932073080 [Eh]
	 SCS Correlation Energy    =      -3.3105270727923761 [Eh]
	 SCS Total Energy          =    -814.7678956290153565 [Eh]
	-----------------------------------------------------------

  Dipole Moment: [D]
     X:     1.0810      Y:    -4.7405      Z:     2.5363     Total:     5.4840

*** Psi4 exiting successfully. Buy a developer a beer!
