                               Psi4 1.3.2 release

  ==> Input File <==

--------------------------------------------------------------------------
#psi4
#
memory 32 gb

molecule  {
0 1
  O        1.3620710    -0.3800110    -0.9318440
  O        3.2020570     1.9012130    -0.2995130
  O        2.7994070    -2.7489470    -0.4002010
  O       -1.3621860     2.3740050     0.1547830
  N       -0.7982440     0.1994180    -0.2292560
  N       -3.0541720     0.8052390     0.2400120
  N       -4.6734100    -0.8124350     0.4126370
  C        2.7015950     0.8755540     0.5594740
  C        1.2368440     1.1072260     0.8878520
  C        2.6518190    -0.3922910    -0.2854700
  C        0.5739580     0.6830040    -0.4149160
  C        2.8020980    -1.6600160     0.5224700
  C       -1.1273370    -1.1158190    -0.3082760
  C       -1.7446880     1.2038920     0.0820450
  C       -2.4173070    -1.5045610    -0.1045420
  C       -3.3584473    -0.5112124     0.1393969
  H        3.3343810     0.7567850     1.4508530
  H        0.9047070     0.4438290     1.6934890
  H        0.9853290     2.1340670     1.1581470
  H        0.5274540     1.5132540    -1.1249130
  H        3.4174920    -0.3642830    -1.0666260
  H        1.9707490    -1.7331840     1.2432230
  H        3.7460890    -1.6095150     1.0882890
  H        3.1038510     2.7463240     0.1779830
  H       -0.3107400    -1.7892010    -0.5436980
  H        2.9100300    -3.5650720     0.1192120
  H       -2.7034680    -2.5490840    -0.1532500
  H       -4.9969870    -1.6420750    -0.0717811
  H       -5.2994710    -0.0137980     0.3861010
units angstrom
no_reorient  #important for SAPT in psi4, default
symmetry c1  #important for SAPT in psi4, default
}

set PROPERTIES_ORIGIN ["COM"]
properties('MP2/aug-cc-pvtz', properties = ['dipole'])
--------------------------------------------------------------------------

    Molecular point group: c1
  Charge       = 0
  Multiplicity = 1
  Basis Set: AUG-CC-PVTZ
    Blend: AUG-CC-PVTZ
  Basis Set: (AUG-CC-PVTZ AUX)
    Blend: AUG-CC-PVTZ-JKFIT

    Orbital Energies [Eh]
    ---------------------

    Doubly Occupied:

       1A    -20.578467     2A    -20.574660     3A    -20.573740
       4A    -20.499086     5A    -15.624489     6A    -15.589609
       7A    -15.539317     8A    -11.365857     9A    -11.344653
      10A    -11.331507    11A    -11.323676    12A    -11.301304
      13A    -11.297544    14A    -11.293701    15A    -11.237259
      16A    -11.236456    17A     -1.417307    18A     -1.380415
      19A     -1.374147    20A     -1.365599    21A     -1.289769
      22A     -1.260755    23A     -1.160889    24A     -1.081368
      25A     -1.071553    26A     -1.030566    27A     -0.929105
      28A     -0.901124    29A     -0.864774    30A     -0.829738
      31A     -0.807379    32A     -0.755594    33A     -0.740200
      34A     -0.721519    35A     -0.706472    36A     -0.693853
      37A     -0.688712    38A     -0.673568    39A     -0.657254
      40A     -0.636332    41A     -0.627273    42A     -0.622020
      43A     -0.604394    44A     -0.597192    45A     -0.586718
      46A     -0.572150    47A     -0.568991    48A     -0.545115
      49A     -0.532115    50A     -0.524316    51A     -0.510829
      52A     -0.486395    53A     -0.481691    54A     -0.469159
      55A     -0.461535    56A     -0.442896    57A     -0.437536
      58A     -0.414393    59A     -0.379619    60A     -0.336159

  @DF-RHF Final Energy:  -811.47463839020497

   => Energetics <=

    Nuclear Repulsion Energy =           1169.8301327946016954
    One-Electron Energy =               -3434.7099107079520763
    Two-Electron Energy =                1453.4051395231451806
    Total Energy =                       -811.4746383902049729
  Basis Set: (AUG-CC-PVTZ AUX)
    Blend: AUG-CC-PVTZ-RI
    Molecular point group: c1

    Geometry (in Angstrom), charge = 0, multiplicity = 1:

       Center              X                  Y                   Z               Mass
    ------------   -----------------  -----------------  -----------------  -----------------
         O            1.361742883146    -0.377981029231    -0.930238663080    15.994914619570
         O            3.201728883146     1.903242970769    -0.297907663080    15.994914619570
         O            2.799078883146    -2.746917029231    -0.398595663080    15.994914619570
         O           -1.362514116854     2.376034970769     0.156388336920    15.994914619570
         N           -0.798572116854     0.201447970769    -0.227650663080    14.003074004430
         N           -3.054500116854     0.807268970769     0.241617336920    14.003074004430
         N           -4.673738116854    -0.810405029231     0.414242336920    14.003074004430
         C            2.701266883146     0.877583970769     0.561079336920    12.000000000000
         C            1.236515883146     1.109255970769     0.889457336920    12.000000000000
         C            2.651490883146    -0.390261029231    -0.283864663080    12.000000000000
         C            0.573629883146     0.685033970769    -0.413310663080    12.000000000000
         C            2.801769883146    -1.657986029231     0.524075336920    12.000000000000
         C           -1.127665116854    -1.113789029231    -0.306670663080    12.000000000000
         C           -1.745016116854     1.205921970769     0.083650336920    12.000000000000
         C           -2.417635116854    -1.502531029231    -0.102936663080    12.000000000000
         C           -3.358775416854    -0.509182429231     0.141002236920    12.000000000000
         H            3.334052883146     0.758814970769     1.452458336920     1.007825032230
         H            0.904378883146     0.445858970769     1.695094336920     1.007825032230
         H            0.985000883146     2.136096970769     1.159752336920     1.007825032230
         H            0.527125883146     1.515283970769    -1.123307663080     1.007825032230
         H            3.417163883146    -0.362253029231    -1.065020663080     1.007825032230
         H            1.970420883146    -1.731154029231     1.244828336920     1.007825032230
         H            3.745760883146    -1.607485029231     1.089894336920     1.007825032230
         H            3.103522883146     2.748353970769     0.179588336920     1.007825032230
         H           -0.311068116854    -1.787171029231    -0.542092663080     1.007825032230
         H            2.909701883146    -3.563042029231     0.120817336920     1.007825032230
         H           -2.703796116854    -2.547054029231    -0.151644663080     1.007825032230
         H           -4.997315116854    -1.640045029231    -0.070175763080     1.007825032230
         H           -5.299799116854    -0.011768029231     0.387706336920     1.007825032230

  Basis Set: AUG-CC-PVTZ
    Blend: AUG-CC-PVTZ
  Basis Set: (AUG-CC-PVTZ AUX)
    Blend: AUG-CC-PVTZ-JKFIT
	 Reference Energy          =    -811.4746383902049729 [Eh]
	 Singles Energy            =      -0.0000000000000000 [Eh]
	 Same-Spin Energy          =      -0.8305270005880563 [Eh]
	 Opposite-Spin Energy      =      -2.5262778953939655 [Eh]
	 Correlation Energy        =      -3.3568048959820218 [Eh]
	 Total Energy              =    -814.8314432861869818 [Eh]

	 ================> DF-SCS-MP2 Energies <==================
	-----------------------------------------------------------
	 SCS Same-Spin Scale       =       0.3333333333333333 [-]
	 SCS Opposite-Spin Scale   =       1.2000000000000000 [-]
	 SCS Same-Spin Energy      =      -0.2768423335293521 [Eh]
	 SCS Opposite-Spin Energy  =      -3.0315334744727584 [Eh]
	 SCS Correlation Energy    =      -3.3083758080021104 [Eh]
	 SCS Total Energy          =    -814.7830141982070700 [Eh]
	-----------------------------------------------------------

  Dipole Moment: [D]
     X:     1.1907      Y:    -4.8269      Z:     2.4385     Total:     5.5374

*** Psi4 exiting successfully. Buy a developer a beer!
