                               Psi4 1.3.2 release

  ==> Input File <==

--------------------------------------------------------------------------
#psi4
#
memory 32 gb

molecule  {
0 1
  O        1.3620710    -0.3800110    -0.9318440
  O        3.2020570     1.9012130    -0.2995130
  O        2.7994070    -2.7489470    -0.4002010
  O       -1.3621860     2.3740050     0.1547830
  N       -0.7982440     0.1994180    -0.2292560
  N       -3.0541720     0.8052390     0.2400120
  N       -4.6734100    -0.8124350     0.4126370
  C        2.7218002     0.8843979     0.5445945
  C        1.2368440     1.1072260     0.8878520
  C        2.6518190    -0.3922910    -0.2854700
  C        0.5739580     0.6830040    -0.4149160
  C        2.8020980    -1.6600160     0.5224700
  C       -1.1273370    -1.1158190    -0.3082760
  C       -1.7446880     1.2038920     0.0820450
  C       -2.4173070    -1.5045610    -0.1045420
  C       -3.3619920    -0.4731600     0.1685110
  H        3.3343810     0.7567850     1.4508530
  H        0.9047070     0.4438290     1.6934890
  H        0.9853290     2.1340670     1.1581470
  H        0.5274540     1.5132540    -1.1249130
  H        3.4230597    -0.3471385    -1.0603205
  H        1.9707490    -1.7331840     1.2432230
  H        3.7460890    -1.6095150     1.0882890
  H        3.1038510     2.7463240     0.1779830
  H       -0.3107400    -1.7892010    -0.5436980
  H        2.9100300    -3.5650720     0.1192120
  H       -2.7034680    -2.5490840    -0.1532500
  H       -5.0287110    -1.6377420    -0.0567190
  H       -5.2994710    -0.0137980     0.3861010
units angstrom
no_reorient  #important for SAPT in psi4, default
symmetry c1  #important for SAPT in psi4, default
}

set PROPERTIES_ORIGIN ["COM"]
properties('MP2/aug-cc-pvtz', properties = ['dipole'])
--------------------------------------------------------------------------

    Molecular point group: c1
  Charge       = 0
  Multiplicity = 1
  Basis Set: AUG-CC-PVTZ
    Blend: AUG-CC-PVTZ
  Basis Set: (AUG-CC-PVTZ AUX)
    Blend: AUG-CC-PVTZ-JKFIT

    Orbital Energies [Eh]
    ---------------------

    Doubly Occupied:

       1A    -20.577524     2A    -20.576746     3A    -20.572781
       4A    -20.502707     5A    -15.621408     6A    -15.588132
       7A    -15.540532     8A    -11.369574     9A    -11.344766
      10A    -11.330149    11A    -11.318001    12A    -11.300855
      13A    -11.296940    14A    -11.292634    15A    -11.236735
      16A    -11.236337    17A     -1.417040    18A     -1.384482
      19A     -1.377142    20A     -1.367657    21A     -1.291935
      22A     -1.261121    23A     -1.168835    24A     -1.076420
      25A     -1.067631    26A     -1.026517    27A     -0.926269
      28A     -0.897339    29A     -0.869468    30A     -0.830860
      31A     -0.805588    32A     -0.753998    33A     -0.738328
      34A     -0.720311    35A     -0.708608    36A     -0.694439
      37A     -0.690544    38A     -0.675699    39A     -0.656535
      40A     -0.636998    41A     -0.627877    42A     -0.618797
      43A     -0.604445    44A     -0.596290    45A     -0.588811
      46A     -0.573154    47A     -0.569468    48A     -0.545176
      49A     -0.534121    50A     -0.522835    51A     -0.510949
      52A     -0.483944    53A     -0.480007    54A     -0.467985
      55A     -0.459112    56A     -0.443154    57A     -0.437825
      58A     -0.415937    59A     -0.383359    60A     -0.334579

  @DF-RHF Final Energy:  -811.47920081665779

   => Energetics <=

    Nuclear Repulsion Energy =           1169.7872338461479558
    One-Electron Energy =               -3434.6380537057157198
    Two-Electron Energy =                1453.3716190429099697
    Total Energy =                       -811.4792008166577943
  Basis Set: (AUG-CC-PVTZ AUX)
    Blend: AUG-CC-PVTZ-RI
    Molecular point group: c1

    Geometry (in Angstrom), charge = 0, multiplicity = 1:

       Center              X                  Y                   Z               Mass
    ------------   -----------------  -----------------  -----------------  -----------------
         O            1.360978584573    -0.380554456519    -0.931085681835    15.994914619570
         O            3.200964584573     1.900669543481    -0.298754681835    15.994914619570
         O            2.798314584573    -2.749490456519    -0.399442681835    15.994914619570
         O           -1.363278415427     2.373461543481     0.155541318165    15.994914619570
         N           -0.799336415427     0.198874543481    -0.228497681835    14.003074004430
         N           -3.055264415427     0.804695543481     0.240770318165    14.003074004430
         N           -4.674502415427    -0.812978456519     0.413395318165    14.003074004430
         C            2.720707784573     0.883854443481     0.545352818165    12.000000000000
         C            1.235751584573     1.106682543481     0.888610318165    12.000000000000
         C            2.650726584573    -0.392834456519    -0.284711681835    12.000000000000
         C            0.572865584573     0.682460543481    -0.414157681835    12.000000000000
         C            2.801005584573    -1.660559456519     0.523228318165    12.000000000000
         C           -1.128429415427    -1.116362456519    -0.307517681835    12.000000000000
         C           -1.745780415427     1.203348543481     0.082803318165    12.000000000000
         C           -2.418399415427    -1.505104456519    -0.103783681835    12.000000000000
         C           -3.363084415427    -0.473703456519     0.169269318165    12.000000000000
         H            3.333288584573     0.756241543481     1.451611318165     1.007825032230
         H            0.903614584573     0.443285543481     1.694247318165     1.007825032230
         H            0.984236584573     2.133523543481     1.158905318165     1.007825032230
         H            0.526361584573     1.512710543481    -1.124154681835     1.007825032230
         H            3.421967284573    -0.347681956519    -1.059562181835     1.007825032230
         H            1.969656584573    -1.733727456519     1.243981318165     1.007825032230
         H            3.744996584573    -1.610058456519     1.089047318165     1.007825032230
         H            3.102758584573     2.745780543481     0.178741318165     1.007825032230
         H           -0.311832415427    -1.789744456519    -0.542939681835     1.007825032230
         H            2.908937584573    -3.565615456519     0.119970318165     1.007825032230
         H           -2.704560415427    -2.549627456519    -0.152491681835     1.007825032230
         H           -5.029803415427    -1.638285456519    -0.055960681835     1.007825032230
         H           -5.300563415427    -0.014341456519     0.386859318165     1.007825032230

  Basis Set: AUG-CC-PVTZ
    Blend: AUG-CC-PVTZ
  Basis Set: (AUG-CC-PVTZ AUX)
    Blend: AUG-CC-PVTZ-JKFIT
	 Reference Energy          =    -811.4792008166577943 [Eh]
	 Singles Energy            =      -0.0000000000000000 [Eh]
	 Same-Spin Energy          =      -0.8295815022393435 [Eh]
	 Opposite-Spin Energy      =      -2.5248106565472188 [Eh]
	 Correlation Energy        =      -3.3543921587865624 [Eh]
	 Total Energy              =    -814.8335929754443896 [Eh]

	 ================> DF-SCS-MP2 Energies <==================
	-----------------------------------------------------------
	 SCS Same-Spin Scale       =       0.3333333333333333 [-]
	 SCS Opposite-Spin Scale   =       1.2000000000000000 [-]
	 SCS Same-Spin Energy      =      -0.2765271674131144 [Eh]
	 SCS Opposite-Spin Energy  =      -3.0297727878566625 [Eh]
	 SCS Correlation Energy    =      -3.3062999552697772 [Eh]
	 SCS Total Energy          =    -814.7855007719275591 [Eh]
	-----------------------------------------------------------

  Dipole Moment: [D]
     X:     1.1433      Y:    -4.6106      Z:     2.4566     Total:     5.3479

*** Psi4 exiting successfully. Buy a developer a beer!
