                               Psi4 1.3.2 release

  ==> Input File <==

--------------------------------------------------------------------------
#psi4
#
memory 32 gb

molecule  {
0 1
  O        1.3620710    -0.3800110    -0.9318440
  O        3.2020570     1.9012130    -0.2995130
  O        2.7994070    -2.7489470    -0.4002010
  O       -1.4028064     2.3860162     0.1624336
  N       -0.7982440     0.1994180    -0.2292560
  N       -3.0664274     0.8512041     0.2470974
  N       -4.6734100    -0.8124350     0.4126370
  C        2.7015950     0.8755540     0.5594740
  C        1.2368440     1.1072260     0.8878520
  C        2.6518190    -0.3922910    -0.2854700
  C        0.5739580     0.6830040    -0.4149160
  C        2.8020980    -1.6600160     0.5224700
  C       -1.1273370    -1.1158190    -0.3082760
  C       -1.7446880     1.2038920     0.0820450
  C       -2.4173070    -1.5045610    -0.1045420
  C       -3.3619920    -0.4731600     0.1685110
  H        3.3343810     0.7567850     1.4508530
  H        0.9047070     0.4438290     1.6934890
  H        0.9853290     2.1340670     1.1581470
  H        0.5274540     1.5132540    -1.1249130
  H        3.4174920    -0.3642830    -1.0666260
  H        1.9707490    -1.7331840     1.2432230
  H        3.7460890    -1.6095150     1.0882890
  H        3.1038510     2.7463240     0.1779830
  H       -0.3107400    -1.7892010    -0.5436980
  H        2.9100300    -3.5650720     0.1192120
  H       -2.7034680    -2.5490840    -0.1532500
  H       -5.0287110    -1.6377420    -0.0567190
  H       -5.2994710    -0.0137980     0.3861010
units angstrom
no_reorient  #important for SAPT in psi4, default
symmetry c1  #important for SAPT in psi4, default
}

set PROPERTIES_ORIGIN ["COM"]
properties('MP2/aug-cc-pvtz', properties = ['dipole'])
--------------------------------------------------------------------------

    Molecular point group: c1
  Charge       = 0
  Multiplicity = 1
  Basis Set: AUG-CC-PVTZ
    Blend: AUG-CC-PVTZ
  Basis Set: (AUG-CC-PVTZ AUX)
    Blend: AUG-CC-PVTZ-JKFIT

    Orbital Energies [Eh]
    ---------------------

    Doubly Occupied:

       1A    -20.578502     2A    -20.574915     3A    -20.574197
       4A    -20.497536     5A    -15.624490     6A    -15.590843
       7A    -15.543021     8A    -11.365046     9A    -11.349538
      10A    -11.332326    11A    -11.321577    12A    -11.301633
      13A    -11.297653    14A    -11.293968    15A    -11.239632
      16A    -11.237659    17A     -1.417420    18A     -1.379604
      19A     -1.374272    20A     -1.365702    21A     -1.287328
      22A     -1.261113    23A     -1.161638    24A     -1.080311
      25A     -1.070299    26A     -1.028741    27A     -0.927087
      28A     -0.899541    29A     -0.864130    30A     -0.830441
      31A     -0.807269    32A     -0.753381    33A     -0.739959
      34A     -0.721608    35A     -0.705977    36A     -0.693660
      37A     -0.689298    38A     -0.674855    39A     -0.656745
      40A     -0.637840    41A     -0.626581    42A     -0.618235
      43A     -0.603228    44A     -0.595515    45A     -0.585967
      46A     -0.572229    47A     -0.569162    48A     -0.545262
      49A     -0.531444    50A     -0.524424    51A     -0.510662
      52A     -0.486642    53A     -0.482165    54A     -0.469266
      55A     -0.461689    56A     -0.442256    57A     -0.437745
      58A     -0.417936    59A     -0.378484    60A     -0.335157

  @DF-RHF Final Energy:  -811.47461646759791

   => Energetics <=

    Nuclear Repulsion Energy =           1168.2074865920105822
    One-Electron Energy =               -3431.4746079317801559
    Two-Electron Energy =                1451.7925048721720032
    Total Energy =                       -811.4746164675977980
  Basis Set: (AUG-CC-PVTZ AUX)
    Blend: AUG-CC-PVTZ-RI
    Molecular point group: c1

    Geometry (in Angstrom), charge = 0, multiplicity = 1:

       Center              X                  Y                   Z               Mass
    ------------   -----------------  -----------------  -----------------  -----------------
         O            1.365687747975    -0.383691377821    -0.932819735218    15.994914619570
         O            3.205673747975     1.897532622179    -0.300488735218    15.994914619570
         O            2.803023747975    -2.752627377821    -0.401176735218    15.994914619570
         O           -1.399189652025     2.382335822179     0.161457864782    15.994914619570
         N           -0.794627252025     0.195737622179    -0.230231735218    14.003074004430
         N           -3.062810652025     0.847523722179     0.246121664782    14.003074004430
         N           -4.669793252025    -0.816115377821     0.411661264782    14.003074004430
         C            2.705211747975     0.871873622179     0.558498264782    12.000000000000
         C            1.240460747975     1.103545622179     0.886876264782    12.000000000000
         C            2.655435747975    -0.395971377821    -0.286445735218    12.000000000000
         C            0.577574747975     0.679323622179    -0.415891735218    12.000000000000
         C            2.805714747975    -1.663696377821     0.521494264782    12.000000000000
         C           -1.123720252025    -1.119499377821    -0.309251735218    12.000000000000
         C           -1.741071252025     1.200211622179     0.081069264782    12.000000000000
         C           -2.413690252025    -1.508241377821    -0.105517735218    12.000000000000
         C           -3.358375252025    -0.476840377821     0.167535264782    12.000000000000
         H            3.337997747975     0.753104622179     1.449877264782     1.007825032230
         H            0.908323747975     0.440148622179     1.692513264782     1.007825032230
         H            0.988945747975     2.130386622179     1.157171264782     1.007825032230
         H            0.531070747975     1.509573622179    -1.125888735218     1.007825032230
         H            3.421108747975    -0.367963377821    -1.067601735218     1.007825032230
         H            1.974365747975    -1.736864377821     1.242247264782     1.007825032230
         H            3.749705747975    -1.613195377821     1.087313264782     1.007825032230
         H            3.107467747975     2.742643622179     0.177007264782     1.007825032230
         H           -0.307123252025    -1.792881377821    -0.544673735218     1.007825032230
         H            2.913646747975    -3.568752377821     0.118236264782     1.007825032230
         H           -2.699851252025    -2.552764377821    -0.154225735218     1.007825032230
         H           -5.025094252025    -1.641422377821    -0.057694735218     1.007825032230
         H           -5.295854252025    -0.017478377821     0.385125264782     1.007825032230

  Basis Set: AUG-CC-PVTZ
    Blend: AUG-CC-PVTZ
  Basis Set: (AUG-CC-PVTZ AUX)
    Blend: AUG-CC-PVTZ-JKFIT
	 Reference Energy          =    -811.4746164675979117 [Eh]
	 Singles Energy            =      -0.0000000000000000 [Eh]
	 Same-Spin Energy          =      -0.8298828774652858 [Eh]
	 Opposite-Spin Energy      =      -2.5261460071610511 [Eh]
	 Correlation Energy        =      -3.3560288846263369 [Eh]
	 Total Energy              =    -814.8306453522242236 [Eh]

	 ================> DF-SCS-MP2 Energies <==================
	-----------------------------------------------------------
	 SCS Same-Spin Scale       =       0.3333333333333333 [-]
	 SCS Opposite-Spin Scale   =       1.2000000000000000 [-]
	 SCS Same-Spin Energy      =      -0.2766276258217619 [Eh]
	 SCS Opposite-Spin Energy  =      -3.0313752085932610 [Eh]
	 SCS Correlation Energy    =      -3.3080028344150230 [Eh]
	 SCS Total Energy          =    -814.7826193020129040 [Eh]
	-----------------------------------------------------------

  Dipole Moment: [D]
     X:     1.1515      Y:    -4.8825      Z:     2.4681     Total:     5.5907

*** Psi4 exiting successfully. Buy a developer a beer!
