                               Psi4 1.3.2 release

  ==> Input File <==

--------------------------------------------------------------------------
#psi4
#
memory 32 gb

molecule  {
0 1
  O        1.3620710    -0.3800110    -0.9318440
  O        3.2020570     1.9012130    -0.2995130
  O        2.7994070    -2.7489470    -0.4002010
  O       -1.3621860     2.3740050     0.1547830
  N       -0.7982440     0.1994180    -0.2292560
  N       -3.0541720     0.8052390     0.2400120
  N       -4.6734100    -0.8124350     0.4126370
  C        2.7015950     0.8755540     0.5594740
  C        1.2368440     1.1072260     0.8878520
  C        2.6518190    -0.3922910    -0.2854700
  C        0.5739580     0.6830040    -0.4149160
  C        2.8020980    -1.6600160     0.5224700
  C       -1.1273370    -1.1158190    -0.3082760
  C       -1.8067224     1.0141222     0.0702483
  C       -2.4173070    -1.5045610    -0.1045420
  C       -3.3619920    -0.4731600     0.1685110
  H        3.3343810     0.7567850     1.4508530
  H        0.9047070     0.4438290     1.6934890
  H        0.9853290     2.1340670     1.1581470
  H        0.5274540     1.5132540    -1.1249130
  H        3.4174920    -0.3642830    -1.0666260
  H        1.9707490    -1.7331840     1.2432230
  H        3.7460890    -1.6095150     1.0882890
  H        3.1038510     2.7463240     0.1779830
  H       -0.3107400    -1.7892010    -0.5436980
  H        2.9100300    -3.5650720     0.1192120
  H       -2.7034680    -2.5490840    -0.1532500
  H       -5.0287110    -1.6377420    -0.0567190
  H       -5.2994710    -0.0137980     0.3861010
units angstrom
no_reorient  #important for SAPT in psi4, default
symmetry c1  #important for SAPT in psi4, default
}

set PROPERTIES_ORIGIN ["COM"]
properties('MP2/aug-cc-pvtz', properties = ['dipole'])
--------------------------------------------------------------------------

    Molecular point group: c1
  Charge       = 0
  Multiplicity = 1
  Basis Set: AUG-CC-PVTZ
    Blend: AUG-CC-PVTZ
  Basis Set: (AUG-CC-PVTZ AUX)
    Blend: AUG-CC-PVTZ-JKFIT

    Orbital Energies [Eh]
    ---------------------

    Doubly Occupied:

       1A    -20.579620     2A    -20.576136     3A    -20.572383
       4A    -20.450380     5A    -15.641083     6A    -15.602859
       7A    -15.558592     8A    -11.362108     9A    -11.356717
      10A    -11.335898    11A    -11.330266    12A    -11.299635
      13A    -11.298449    14A    -11.294434    15A    -11.254615
      16A    -11.234529    17A     -1.421016    18A     -1.380647
      19A     -1.374065    20A     -1.363576    21A     -1.292057
      22A     -1.222609    23A     -1.179983    24A     -1.082023
      25A     -1.072690    26A     -1.036216    27A     -0.934815
      28A     -0.918822    29A     -0.880610    30A     -0.842396
      31A     -0.809142    32A     -0.774519    33A     -0.747365
      34A     -0.723290    35A     -0.713973    36A     -0.695139
      37A     -0.690062    38A     -0.682514    39A     -0.665427
      40A     -0.646156    41A     -0.638052    42A     -0.622527
      43A     -0.608511    44A     -0.599108    45A     -0.584143
      46A     -0.572135    47A     -0.550038    48A     -0.536628
      49A     -0.526127    50A     -0.513345    51A     -0.506450
      52A     -0.485883    53A     -0.470006    54A     -0.462362
      55A     -0.454173    56A     -0.443904    57A     -0.441885
      58A     -0.387790    59A     -0.372263    60A     -0.330596

  @DF-RHF Final Energy:  -811.41815228595669

   => Energetics <=

    Nuclear Repulsion Energy =           1171.2467702145543171
    One-Electron Energy =               -3437.3243602059965269
    Two-Electron Energy =                1454.6594377054857432
    Total Energy =                       -811.4181522859566940
  Basis Set: (AUG-CC-PVTZ AUX)
    Blend: AUG-CC-PVTZ-RI
    Molecular point group: c1

    Geometry (in Angstrom), charge = 0, multiplicity = 1:

       Center              X                  Y                   Z               Mass
    ------------   -----------------  -----------------  -----------------  -----------------
         O            1.365349027214    -0.369983155929    -0.931220600490    15.994914619570
         O            3.205335027214     1.911240844071    -0.298889600490    15.994914619570
         O            2.802685027214    -2.738919155929    -0.399577600490    15.994914619570
         O           -1.358907972786     2.384032844071     0.155406399510    15.994914619570
         N           -0.794965972786     0.209445844071    -0.228632600490    14.003074004430
         N           -3.050893972786     0.815266844071     0.240635399510    14.003074004430
         N           -4.670131972786    -0.802407155929     0.413260399510    14.003074004430
         C            2.704873027214     0.885581844071     0.560097399510    12.000000000000
         C            1.240122027214     1.117253844071     0.888475399510    12.000000000000
         C            2.655097027214    -0.382263155929    -0.284846600490    12.000000000000
         C            0.577236027214     0.693031844071    -0.414292600490    12.000000000000
         C            2.805376027214    -1.649988155929     0.523093399510    12.000000000000
         C           -1.124058972786    -1.105791155929    -0.307652600490    12.000000000000
         C           -1.803444372786     1.024150044071     0.070871699510    12.000000000000
         C           -2.414028972786    -1.494533155929    -0.103918600490    12.000000000000
         C           -3.358713972786    -0.463132155929     0.169134399510    12.000000000000
         H            3.337659027214     0.766812844071     1.451476399510     1.007825032230
         H            0.907985027214     0.453856844071     1.694112399510     1.007825032230
         H            0.988607027214     2.144094844071     1.158770399510     1.007825032230
         H            0.530732027214     1.523281844071    -1.124289600490     1.007825032230
         H            3.420770027214    -0.354255155929    -1.066002600490     1.007825032230
         H            1.974027027214    -1.723156155929     1.243846399510     1.007825032230
         H            3.749367027214    -1.599487155929     1.088912399510     1.007825032230
         H            3.107129027214     2.756351844071     0.178606399510     1.007825032230
         H           -0.307461972786    -1.779173155929    -0.543074600490     1.007825032230
         H            2.913308027214    -3.555044155929     0.119835399510     1.007825032230
         H           -2.700189972786    -2.539056155929    -0.152626600490     1.007825032230
         H           -5.025432972786    -1.627714155929    -0.056095600490     1.007825032230
         H           -5.296192972786    -0.003770155929     0.386724399510     1.007825032230

  Basis Set: AUG-CC-PVTZ
    Blend: AUG-CC-PVTZ
  Basis Set: (AUG-CC-PVTZ AUX)
    Blend: AUG-CC-PVTZ-JKFIT
	 Reference Energy          =    -811.4181522859566940 [Eh]
	 Singles Energy            =      -0.0000000000000000 [Eh]
	 Same-Spin Energy          =      -0.8327992635202559 [Eh]
	 Opposite-Spin Energy      =      -2.5304475288479278 [Eh]
	 Correlation Energy        =      -3.3632467923681837 [Eh]
	 Total Energy              =    -814.7813990783248528 [Eh]

	 ================> DF-SCS-MP2 Energies <==================
	-----------------------------------------------------------
	 SCS Same-Spin Scale       =       0.3333333333333333 [-]
	 SCS Opposite-Spin Scale   =       1.2000000000000000 [-]
	 SCS Same-Spin Energy      =      -0.2775997545067520 [Eh]
	 SCS Opposite-Spin Energy  =      -3.0365370346175133 [Eh]
	 SCS Correlation Energy    =      -3.3141367891242655 [Eh]
	 SCS Total Energy          =    -814.7322890750809847 [Eh]
	-----------------------------------------------------------

  Dipole Moment: [D]
     X:     0.4164      Y:    -6.4701      Z:     2.4022     Total:     6.9142

*** Psi4 exiting successfully. Buy a developer a beer!
