                               Psi4 1.3.2 release

  ==> Input File <==

--------------------------------------------------------------------------
#psi4
#
memory 32 gb

molecule  {
0 1
  O        1.3620710    -0.3800110    -0.9318440
  O        3.2020570     1.9012130    -0.2995130
  O        2.7994070    -2.7489470    -0.4002010
  O       -1.3621860     2.3740050     0.1547830
  N       -0.7982440     0.1994180    -0.2292560
  N       -3.0541720     0.8052390     0.2400120
  N       -4.6734100    -0.8124350     0.4126370
  C        2.7181582     0.8256581     0.5062915
  C        1.2368440     1.1072260     0.8878520
  C        2.6518190    -0.3922910    -0.2854700
  C        0.5739580     0.6830040    -0.4149160
  C        2.8020980    -1.6600160     0.5224700
  C       -1.1273370    -1.1158190    -0.3082760
  C       -1.7446880     1.2038920     0.0820450
  C       -2.4173070    -1.5045610    -0.1045420
  C       -3.3619920    -0.4731600     0.1685110
  H        3.3343810     0.7567850     1.4508530
  H        0.9047070     0.4438290     1.6934890
  H        0.9853290     2.1340670     1.1581470
  H        0.5274540     1.5132540    -1.1249130
  H        3.4174920    -0.3642830    -1.0666260
  H        1.9707490    -1.7331840     1.2432230
  H        3.7460890    -1.6095150     1.0882890
  H        3.1242647     2.7699818     0.1375780
  H       -0.3107400    -1.7892010    -0.5436980
  H        2.9100300    -3.5650720     0.1192120
  H       -2.7034680    -2.5490840    -0.1532500
  H       -5.0287110    -1.6377420    -0.0567190
  H       -5.2994710    -0.0137980     0.3861010
units angstrom
no_reorient  #important for SAPT in psi4, default
symmetry c1  #important for SAPT in psi4, default
}

set PROPERTIES_ORIGIN ["COM"]
properties('MP2/aug-cc-pvtz', properties = ['dipole'])
--------------------------------------------------------------------------

    Molecular point group: c1
  Charge       = 0
  Multiplicity = 1
  Basis Set: AUG-CC-PVTZ
    Blend: AUG-CC-PVTZ
  Basis Set: (AUG-CC-PVTZ AUX)
    Blend: AUG-CC-PVTZ-JKFIT

    Orbital Energies [Eh]
    ---------------------

    Doubly Occupied:

       1A    -20.578902     2A    -20.573317     3A    -20.570743
       4A    -20.502730     5A    -15.621187     6A    -15.588057
       7A    -15.540488     8A    -11.369514     9A    -11.344675
      10A    -11.329715    11A    -11.317927    12A    -11.302905
      13A    -11.298937    14A    -11.291764    15A    -11.237079
      16A    -11.236652    17A     -1.418356    18A     -1.382134
      19A     -1.373177    20A     -1.363595    21A     -1.291923
      22A     -1.261193    23A     -1.168825    24A     -1.080079
      25A     -1.073407    26A     -1.027495    27A     -0.928088
      28A     -0.898398    29A     -0.872065    30A     -0.831883
      31A     -0.803868    32A     -0.754042    33A     -0.737218
      34A     -0.724487    35A     -0.707236    36A     -0.693863
      37A     -0.692121    38A     -0.675913    39A     -0.656368
      40A     -0.635931    41A     -0.625382    42A     -0.616494
      43A     -0.603988    44A     -0.597039    45A     -0.587318
      46A     -0.569743    47A     -0.566486    48A     -0.546591
      49A     -0.533655    50A     -0.526927    51A     -0.509885
      52A     -0.490635    53A     -0.481264    54A     -0.468777
      55A     -0.455219    56A     -0.441975    57A     -0.437904
      58A     -0.415841    59A     -0.383010    60A     -0.334317

  @DF-RHF Final Energy:  -811.47325308302800

   => Energetics <=

    Nuclear Repulsion Energy =           1170.5782114422224822
    One-Electron Energy =               -3436.2055169976351863
    Two-Electron Energy =                1454.1540524723850467
    Total Energy =                       -811.4732530830278847
  Basis Set: (AUG-CC-PVTZ AUX)
    Blend: AUG-CC-PVTZ-RI
    Molecular point group: c1

    Geometry (in Angstrom), charge = 0, multiplicity = 1:

       Center              X                  Y                   Z               Mass
    ------------   -----------------  -----------------  -----------------  -----------------
         O            1.361105150044    -0.377479413717    -0.928854360952    15.994914619570
         O            3.201091150044     1.903744586283    -0.296523360952    15.994914619570
         O            2.798441150044    -2.746415413717    -0.397211360952    15.994914619570
         O           -1.363151849956     2.376536586283     0.157772639048    15.994914619570
         N           -0.799209849956     0.201949586283    -0.226266360952    14.003074004430
         N           -3.055137849956     0.807770586283     0.243001639048    14.003074004430
         N           -4.674375849956    -0.809903413717     0.415626639048    14.003074004430
         C            2.717192350044     0.828189686283     0.509281139048    12.000000000000
         C            1.235878150044     1.109757586283     0.890841639048    12.000000000000
         C            2.650853150044    -0.389759413717    -0.282480360952    12.000000000000
         C            0.572992150044     0.685535586283    -0.411926360952    12.000000000000
         C            2.801132150044    -1.657484413717     0.525459639048    12.000000000000
         C           -1.128302849956    -1.113287413717    -0.305286360952    12.000000000000
         C           -1.745653849956     1.206423586283     0.085034639048    12.000000000000
         C           -2.418272849956    -1.502029413717    -0.101552360952    12.000000000000
         C           -3.362957849956    -0.470628413717     0.171500639048    12.000000000000
         H            3.333415150044     0.759316586283     1.453842639048     1.007825032230
         H            0.903741150044     0.446360586283     1.696478639048     1.007825032230
         H            0.984363150044     2.136598586283     1.161136639048     1.007825032230
         H            0.526488150044     1.515785586283    -1.121923360952     1.007825032230
         H            3.416526150044    -0.361751413717    -1.063636360952     1.007825032230
         H            1.969783150044    -1.730652413717     1.246212639048     1.007825032230
         H            3.745123150044    -1.606983413717     1.091278639048     1.007825032230
         H            3.123298850044     2.772513386283     0.140567639048     1.007825032230
         H           -0.311705849956    -1.786669413717    -0.540708360952     1.007825032230
         H            2.909064150044    -3.562540413717     0.122201639048     1.007825032230
         H           -2.704433849956    -2.546552413717    -0.150260360952     1.007825032230
         H           -5.029676849956    -1.635210413717    -0.053729360952     1.007825032230
         H           -5.300436849956    -0.011266413717     0.389090639048     1.007825032230

  Basis Set: AUG-CC-PVTZ
    Blend: AUG-CC-PVTZ
  Basis Set: (AUG-CC-PVTZ AUX)
    Blend: AUG-CC-PVTZ-JKFIT
	 Reference Energy          =    -811.4732530830279984 [Eh]
	 Singles Energy            =      -0.0000000000000000 [Eh]
	 Same-Spin Energy          =      -0.8299586223711061 [Eh]
	 Opposite-Spin Energy      =      -2.5252420341846098 [Eh]
	 Correlation Energy        =      -3.3552006565557160 [Eh]
	 Total Energy              =    -814.8284537395836651 [Eh]

	 ================> DF-SCS-MP2 Energies <==================
	-----------------------------------------------------------
	 SCS Same-Spin Scale       =       0.3333333333333333 [-]
	 SCS Opposite-Spin Scale   =       1.2000000000000000 [-]
	 SCS Same-Spin Energy      =      -0.2766528741237020 [Eh]
	 SCS Opposite-Spin Energy  =      -3.0302904410215317 [Eh]
	 SCS Correlation Energy    =      -3.3069433151452339 [Eh]
	 SCS Total Energy          =    -814.7801963981731888 [Eh]
	-----------------------------------------------------------

  Dipole Moment: [D]
     X:     1.1443      Y:    -4.6915      Z:     2.4176     Total:     5.4004

*** Psi4 exiting successfully. Buy a developer a beer!
