                               Psi4 1.3.2 release

  ==> Input File <==

--------------------------------------------------------------------------
#psi4
#
memory 32 gb

molecule  {
0 1
  O        1.3620710    -0.3800110    -0.9318440
  O        3.2020570     1.9012130    -0.2995130
  O        2.7994070    -2.7489470    -0.4002010
  O       -1.3621860     2.3740050     0.1547830
  N       -0.7982440     0.1994180    -0.2292560
  N       -3.0541720     0.8052390     0.2400120
  N       -4.6734100    -0.8124350     0.4126370
  C        2.7015950     0.8755540     0.5594740
  C        1.2368440     1.1072260     0.8878520
  C        2.6518190    -0.3922910    -0.2854700
  C        0.5739580     0.6830040    -0.4149160
  C        2.8020980    -1.6600160     0.5224700
  C       -1.1273370    -1.1158190    -0.3082760
  C       -1.7382827     1.1809147     0.0789865
  C       -2.4173070    -1.5045610    -0.1045420
  C       -3.3398536    -0.4780749     0.1647717
  H        3.3343810     0.7567850     1.4508530
  H        0.9047070     0.4438290     1.6934890
  H        0.9853290     2.1340670     1.1581470
  H        0.5274540     1.5132540    -1.1249130
  H        3.4174920    -0.3642830    -1.0666260
  H        1.9707490    -1.7331840     1.2432230
  H        3.7460890    -1.6095150     1.0882890
  H        3.1038510     2.7463240     0.1779830
  H       -0.3107400    -1.7892010    -0.5436980
  H        2.9100300    -3.5650720     0.1192120
  H       -2.7034680    -2.5490840    -0.1532500
  H       -5.0287110    -1.6377420    -0.0567190
  H       -5.2994710    -0.0137980     0.3861010
units angstrom
no_reorient  #important for SAPT in psi4, default
symmetry c1  #important for SAPT in psi4, default
}

set PROPERTIES_ORIGIN ["COM"]
properties('MP2/aug-cc-pvtz', properties = ['dipole'])
--------------------------------------------------------------------------

    Molecular point group: c1
  Charge       = 0
  Multiplicity = 1
  Basis Set: AUG-CC-PVTZ
    Blend: AUG-CC-PVTZ
  Basis Set: (AUG-CC-PVTZ AUX)
    Blend: AUG-CC-PVTZ-JKFIT

    Orbital Energies [Eh]
    ---------------------

    Doubly Occupied:

       1A    -20.578781     2A    -20.575025     3A    -20.574620
       4A    -20.497787     5A    -15.627139     6A    -15.585531
       7A    -15.544005     8A    -11.368746     9A    -11.344463
      10A    -11.333038    11A    -11.322164    12A    -11.301781
      13A    -11.297953    14A    -11.294283    15A    -11.239381
      16A    -11.237869    17A     -1.418449    18A     -1.379074
      19A     -1.374489    20A     -1.364701    21A     -1.287486
      22A     -1.260876    23A     -1.167053    24A     -1.081949
      25A     -1.071884    26A     -1.031510    27A     -0.929046
      28A     -0.904474    29A     -0.869341    30A     -0.831377
      31A     -0.807925    32A     -0.755094    33A     -0.741965
      34A     -0.722229    35A     -0.704447    36A     -0.693668
      37A     -0.688612    38A     -0.674432    39A     -0.657863
      40A     -0.639096    41A     -0.629689    42A     -0.619228
      43A     -0.603795    44A     -0.595977    45A     -0.586885
      46A     -0.571130    47A     -0.569634    48A     -0.545474
      49A     -0.531267    50A     -0.524869    51A     -0.508760
      52A     -0.486944    53A     -0.479085    54A     -0.469485
      55A     -0.461822    56A     -0.443538    57A     -0.439499
      58A     -0.418278    59A     -0.384293    60A     -0.337490

  @DF-RHF Final Energy:  -811.47617086240405

   => Energetics <=

    Nuclear Repulsion Energy =           1170.4494157205399461
    One-Electron Energy =               -3435.8776689505948525
    Two-Electron Energy =                1453.9520823676507462
    Total Energy =                       -811.4761708624041603
  Basis Set: (AUG-CC-PVTZ AUX)
    Blend: AUG-CC-PVTZ-RI
    Molecular point group: c1

    Geometry (in Angstrom), charge = 0, multiplicity = 1:

       Center              X                  Y                   Z               Mass
    ------------   -----------------  -----------------  -----------------  -----------------
         O            1.360562668061    -0.378537147813    -0.931484754086    15.994914619570
         O            3.200548668061     1.902686852187    -0.299153754086    15.994914619570
         O            2.797898668061    -2.747473147813    -0.399841754086    15.994914619570
         O           -1.363694331939     2.375478852187     0.155142245914    15.994914619570
         N           -0.799752331939     0.200891852187    -0.228896754086    14.003074004430
         N           -3.055680331939     0.806712852187     0.240371245914    14.003074004430
         N           -4.674918331939    -0.810961147813     0.412996245914    14.003074004430
         C            2.700086668061     0.877027852187     0.559833245914    12.000000000000
         C            1.235335668061     1.108699852187     0.888211245914    12.000000000000
         C            2.650310668061    -0.390817147813    -0.285110754086    12.000000000000
         C            0.572449668061     0.684477852187    -0.414556754086    12.000000000000
         C            2.800589668061    -1.658542147813     0.522829245914    12.000000000000
         C           -1.128845331939    -1.114345147813    -0.307916754086    12.000000000000
         C           -1.739791031939     1.182388552187     0.079345745914    12.000000000000
         C           -2.418815331939    -1.503087147813    -0.104182754086    12.000000000000
         C           -3.341361931939    -0.476601047813     0.165130945914    12.000000000000
         H            3.332872668061     0.758258852187     1.451212245914     1.007825032230
         H            0.903198668061     0.445302852187     1.693848245914     1.007825032230
         H            0.983820668061     2.135540852187     1.158506245914     1.007825032230
         H            0.525945668061     1.514727852187    -1.124553754086     1.007825032230
         H            3.415983668061    -0.362809147813    -1.066266754086     1.007825032230
         H            1.969240668061    -1.731710147813     1.243582245914     1.007825032230
         H            3.744580668061    -1.608041147813     1.088648245914     1.007825032230
         H            3.102342668061     2.747797852187     0.178342245914     1.007825032230
         H           -0.312248331939    -1.787727147813    -0.543338754086     1.007825032230
         H            2.908521668061    -3.563598147813     0.119571245914     1.007825032230
         H           -2.704976331939    -2.547610147813    -0.152890754086     1.007825032230
         H           -5.030219331939    -1.636268147813    -0.056359754086     1.007825032230
         H           -5.300979331939    -0.012324147813     0.386460245914     1.007825032230

  Basis Set: AUG-CC-PVTZ
    Blend: AUG-CC-PVTZ
  Basis Set: (AUG-CC-PVTZ AUX)
    Blend: AUG-CC-PVTZ-JKFIT
	 Reference Energy          =    -811.4761708624040466 [Eh]
	 Singles Energy            =      -0.0000000000000000 [Eh]
	 Same-Spin Energy          =      -0.8301544394248737 [Eh]
	 Opposite-Spin Energy      =      -2.5260545629618689 [Eh]
	 Correlation Energy        =      -3.3562090023867426 [Eh]
	 Total Energy              =    -814.8323798647908234 [Eh]

	 ================> DF-SCS-MP2 Energies <==================
	-----------------------------------------------------------
	 SCS Same-Spin Scale       =       0.3333333333333333 [-]
	 SCS Opposite-Spin Scale   =       1.2000000000000000 [-]
	 SCS Same-Spin Energy      =      -0.2767181464749578 [Eh]
	 SCS Opposite-Spin Energy  =      -3.0312654755542425 [Eh]
	 SCS Correlation Energy    =      -3.3079836220292003 [Eh]
	 SCS Total Energy          =    -814.7841544844332020 [Eh]
	-----------------------------------------------------------

  Dipole Moment: [D]
     X:     1.2935      Y:    -4.8618      Z:     2.4379     Total:     5.5905

*** Psi4 exiting successfully. Buy a developer a beer!
