                               Psi4 1.3.2 release

  ==> Input File <==

--------------------------------------------------------------------------
#psi4
#
memory 32 gb

molecule  {
0 1
  O        1.3594390    -0.3911883    -0.9266819
  O        3.2020570     1.9012130    -0.2995130
  O        2.7994070    -2.7489470    -0.4002010
  O       -1.3621860     2.3740050     0.1547830
  N       -0.7982440     0.1994180    -0.2292560
  N       -3.0541720     0.8052390     0.2400120
  N       -4.6734100    -0.8124350     0.4126370
  C        2.7015950     0.8755540     0.5594740
  C        1.2368440     1.1072260     0.8878520
  C        2.6518190    -0.3922910    -0.2854700
  C        0.5739580     0.6830040    -0.4149160
  C        2.7900475    -1.6637907     0.5186810
  C       -1.1273370    -1.1158190    -0.3082760
  C       -1.7446880     1.2038920     0.0820450
  C       -2.4173070    -1.5045610    -0.1045420
  C       -3.3619920    -0.4731600     0.1685110
  H        3.3343810     0.7567850     1.4508530
  H        0.9047070     0.4438290     1.6934890
  H        0.9853290     2.1340670     1.1581470
  H        0.5274540     1.5132540    -1.1249130
  H        3.4174920    -0.3642830    -1.0666260
  H        1.9707490    -1.7331840     1.2432230
  H        3.7460890    -1.6095150     1.0882890
  H        3.1038510     2.7463240     0.1779830
  H       -0.3107400    -1.7892010    -0.5436980
  H        2.9100300    -3.5650720     0.1192120
  H       -2.7034680    -2.5490840    -0.1532500
  H       -5.0287110    -1.6377420    -0.0567190
  H       -5.2994710    -0.0137980     0.3861010
units angstrom
no_reorient  #important for SAPT in psi4, default
symmetry c1  #important for SAPT in psi4, default
}

set PROPERTIES_ORIGIN ["COM"]
properties('MP2/aug-cc-pvtz', properties = ['dipole'])
--------------------------------------------------------------------------

    Molecular point group: c1
  Charge       = 0
  Multiplicity = 1
  Basis Set: AUG-CC-PVTZ
    Blend: AUG-CC-PVTZ
  Basis Set: (AUG-CC-PVTZ AUX)
    Blend: AUG-CC-PVTZ-JKFIT

    Orbital Energies [Eh]
    ---------------------

    Doubly Occupied:

       1A    -20.577988     2A    -20.574507     3A    -20.572764
       4A    -20.503158     5A    -15.621797     6A    -15.588364
       7A    -15.540807     8A    -11.369945     9A    -11.345040
      10A    -11.331291    11A    -11.318171    12A    -11.301016
      13A    -11.296642    14A    -11.292740    15A    -11.236986
      16A    -11.236978    17A     -1.415811    18A     -1.382658
      19A     -1.374816    20A     -1.365859    21A     -1.292243
      22A     -1.261425    23A     -1.169137    24A     -1.079149
      25A     -1.068485    26A     -1.027688    27A     -0.926318
      28A     -0.897361    29A     -0.869170    30A     -0.830692
      31A     -0.806219    32A     -0.754137    33A     -0.738533
      34A     -0.721829    35A     -0.706859    36A     -0.692573
      37A     -0.689098    38A     -0.675800    39A     -0.656685
      40A     -0.636858    41A     -0.627592    42A     -0.618377
      43A     -0.604935    44A     -0.595337    45A     -0.588468
      46A     -0.572837    47A     -0.568473    48A     -0.544930
      49A     -0.532732    50A     -0.523716    51A     -0.510437
      52A     -0.486159    53A     -0.482048    54A     -0.467797
      55A     -0.461310    56A     -0.444267    57A     -0.437527
      58A     -0.416470    59A     -0.383805    60A     -0.334977

  @DF-RHF Final Energy:  -811.47890971867491

   => Energetics <=

    Nuclear Repulsion Energy =           1170.0710203991677645
    One-Electron Energy =               -3435.2002730030735620
    Two-Electron Energy =                1453.6503428852311117
    Total Energy =                       -811.4789097186749132
  Basis Set: (AUG-CC-PVTZ AUX)
    Blend: AUG-CC-PVTZ-RI
    Molecular point group: c1

    Geometry (in Angstrom), charge = 0, multiplicity = 1:

       Center              X                  Y                   Z               Mass
    ------------   -----------------  -----------------  -----------------  -----------------
         O            1.360261143218    -0.390201610373    -0.926845233821    15.994914619570
         O            3.202879143218     1.902199689627    -0.299676333821    15.994914619570
         O            2.800229143218    -2.747960310373    -0.400364333821    15.994914619570
         O           -1.361363856782     2.374991689627     0.154619666179    15.994914619570
         N           -0.797421856782     0.200404689627    -0.229419333821    14.003074004430
         N           -3.053349856782     0.806225689627     0.239848666179    14.003074004430
         N           -4.672587856782    -0.811448310373     0.412473666179    14.003074004430
         C            2.702417143218     0.876540689627     0.559310666179    12.000000000000
         C            1.237666143218     1.108212689627     0.887688666179    12.000000000000
         C            2.652641143218    -0.391304310373    -0.285633333821    12.000000000000
         C            0.574780143218     0.683990689627    -0.415079333821    12.000000000000
         C            2.790869643218    -1.662804010373     0.518517666179    12.000000000000
         C           -1.126514856782    -1.114832310373    -0.308439333821    12.000000000000
         C           -1.743865856782     1.204878689627     0.081881666179    12.000000000000
         C           -2.416484856782    -1.503574310373    -0.104705333821    12.000000000000
         C           -3.361169856782    -0.472173310373     0.168347666179    12.000000000000
         H            3.335203143218     0.757771689627     1.450689666179     1.007825032230
         H            0.905529143218     0.444815689627     1.693325666179     1.007825032230
         H            0.986151143218     2.135053689627     1.157983666179     1.007825032230
         H            0.528276143218     1.514240689627    -1.125076333821     1.007825032230
         H            3.418314143218    -0.363296310373    -1.066789333821     1.007825032230
         H            1.971571143218    -1.732197310373     1.243059666179     1.007825032230
         H            3.746911143218    -1.608528310373     1.088125666179     1.007825032230
         H            3.104673143218     2.747310689627     0.177819666179     1.007825032230
         H           -0.309917856782    -1.788214310373    -0.543861333821     1.007825032230
         H            2.910852143218    -3.564085310373     0.119048666179     1.007825032230
         H           -2.702645856782    -2.548097310373    -0.153413333821     1.007825032230
         H           -5.027888856782    -1.636755310373    -0.056882333821     1.007825032230
         H           -5.298648856782    -0.012811310373     0.385937666179     1.007825032230

  Basis Set: AUG-CC-PVTZ
    Blend: AUG-CC-PVTZ
  Basis Set: (AUG-CC-PVTZ AUX)
    Blend: AUG-CC-PVTZ-JKFIT
	 Reference Energy          =    -811.4789097186749132 [Eh]
	 Singles Energy            =      -0.0000000000000000 [Eh]
	 Same-Spin Energy          =      -0.8297034363811966 [Eh]
	 Opposite-Spin Energy      =      -2.5252363092269450 [Eh]
	 Correlation Energy        =      -3.3549397456081413 [Eh]
	 Total Energy              =    -814.8338494642830483 [Eh]

	 ================> DF-SCS-MP2 Energies <==================
	-----------------------------------------------------------
	 SCS Same-Spin Scale       =       0.3333333333333333 [-]
	 SCS Opposite-Spin Scale   =       1.2000000000000000 [-]
	 SCS Same-Spin Energy      =      -0.2765678121270655 [Eh]
	 SCS Opposite-Spin Energy  =      -3.0302835710723337 [Eh]
	 SCS Correlation Energy    =      -3.3068513831993993 [Eh]
	 SCS Total Energy          =    -814.7857611018743000 [Eh]
	-----------------------------------------------------------

  Dipole Moment: [D]
     X:     1.0529      Y:    -4.6684      Z:     2.4701     Total:     5.3855

*** Psi4 exiting successfully. Buy a developer a beer!
