                               Psi4 1.3.2 release

  ==> Input File <==

--------------------------------------------------------------------------
#psi4
#
memory 32 gb

molecule  {
0 1
  O        1.3620710    -0.3800110    -0.9318440
  O        3.2020570     1.9012130    -0.2995130
  O        2.7994070    -2.7489470    -0.4002010
  O       -1.3621860     2.3740050     0.1547830
  N       -0.7982440     0.1994180    -0.2292560
  N       -3.0541720     0.8052390     0.2400120
  N       -4.6734100    -0.8124350     0.4126370
  C        2.7015950     0.8755540     0.5594740
  C        1.2368440     1.1072260     0.8878520
  C        2.6518190    -0.3922910    -0.2854700
  C        0.5739580     0.6830040    -0.4149160
  C        2.8020980    -1.6600160     0.5224700
  C       -1.1273370    -1.1158190    -0.3082760
  C       -1.7446880     1.2038920     0.0820450
  C       -2.5119775    -1.5330906    -0.0895900
  C       -3.3619920    -0.4731600     0.1685110
  H        3.3343810     0.7567850     1.4508530
  H        0.9047070     0.4438290     1.6934890
  H        0.9853290     2.1340670     1.1581470
  H        0.5274540     1.5132540    -1.1249130
  H        3.4174920    -0.3642830    -1.0666260
  H        1.9707490    -1.7331840     1.2432230
  H        3.7460890    -1.6095150     1.0882890
  H        3.1038510     2.7463240     0.1779830
  H       -0.3107400    -1.7892010    -0.5436980
  H        2.9100300    -3.5650720     0.1192120
  H       -2.7034680    -2.5490840    -0.1532500
  H       -5.0287110    -1.6377420    -0.0567190
  H       -5.2994710    -0.0137980     0.3861010
units angstrom
no_reorient  #important for SAPT in psi4, default
symmetry c1  #important for SAPT in psi4, default
}

set PROPERTIES_ORIGIN ["COM"]
properties('MP2/aug-cc-pvtz', properties = ['dipole'])
--------------------------------------------------------------------------

    Molecular point group: c1
  Charge       = 0
  Multiplicity = 1
  Basis Set: AUG-CC-PVTZ
    Blend: AUG-CC-PVTZ
  Basis Set: (AUG-CC-PVTZ AUX)
    Blend: AUG-CC-PVTZ-JKFIT

    Orbital Energies [Eh]
    ---------------------

    Doubly Occupied:

       1A    -20.579729     2A    -20.576539     3A    -20.576440
       4A    -20.503806     5A    -15.633165     6A    -15.578767
       7A    -15.537513     8A    -11.370805     9A    -11.337522
      10A    -11.336358    11A    -11.335194    12A    -11.303452
      13A    -11.299060    14A    -11.295694    15A    -11.240144
      16A    -11.236590    17A     -1.420216    18A     -1.384145
      19A     -1.375673    20A     -1.367951    21A     -1.291293
      22A     -1.262415    23A     -1.165429    24A     -1.079312
      25A     -1.063012    26A     -1.028826    27A     -0.931211
      28A     -0.905281    29A     -0.868043    30A     -0.831166
      31A     -0.808089    32A     -0.750624    33A     -0.742708
      34A     -0.723505    35A     -0.705245    36A     -0.695001
      37A     -0.690758    38A     -0.675708    39A     -0.662145
      40A     -0.645469    41A     -0.628785    42A     -0.623330
      43A     -0.605327    44A     -0.592299    45A     -0.589194
      46A     -0.571126    47A     -0.563775    48A     -0.546970
      49A     -0.532890    50A     -0.527159    51A     -0.512074
      52A     -0.488418    53A     -0.480931    54A     -0.470416
      55A     -0.462658    56A     -0.445348    57A     -0.439301
      58A     -0.417615    59A     -0.382079    60A     -0.327538

  @DF-RHF Final Energy:  -811.46366209742416

   => Energetics <=

    Nuclear Repulsion Energy =           1168.5536780345707939
    One-Electron Energy =               -3431.9922121955523835
    Two-Electron Energy =                1451.9748720635573136
    Total Energy =                       -811.4636620974240486
  Basis Set: (AUG-CC-PVTZ AUX)
    Blend: AUG-CC-PVTZ-RI
    Molecular point group: c1

    Geometry (in Angstrom), charge = 0, multiplicity = 1:

       Center              X                  Y                   Z               Mass
    ------------   -----------------  -----------------  -----------------  -----------------
         O            1.367073595249    -0.378503466103    -0.932634064507    15.994914619570
         O            3.207059595249     1.902720533897    -0.300303064507    15.994914619570
         O            2.804409595249    -2.747439466103    -0.400991064507    15.994914619570
         O           -1.357183404751     2.375512533897     0.153992935493    15.994914619570
         N           -0.793241404751     0.200925533897    -0.230046064507    14.003074004430
         N           -3.049169404751     0.806746533897     0.239221935493    14.003074004430
         N           -4.668407404751    -0.810927466103     0.411846935493    14.003074004430
         C            2.706597595249     0.877061533897     0.558683935493    12.000000000000
         C            1.241846595249     1.108733533897     0.887061935493    12.000000000000
         C            2.656821595249    -0.390783466103    -0.286260064507    12.000000000000
         C            0.578960595249     0.684511533897    -0.415706064507    12.000000000000
         C            2.807100595249    -1.658508466103     0.521679935493    12.000000000000
         C           -1.122334404751    -1.114311466103    -0.309066064507    12.000000000000
         C           -1.739685404751     1.205399533897     0.081254935493    12.000000000000
         C           -2.506974904751    -1.531583066103    -0.090380064507    12.000000000000
         C           -3.356989404751    -0.471652466103     0.167720935493    12.000000000000
         H            3.339383595249     0.758292533897     1.450062935493     1.007825032230
         H            0.909709595249     0.445336533897     1.692698935493     1.007825032230
         H            0.990331595249     2.135574533897     1.157356935493     1.007825032230
         H            0.532456595249     1.514761533897    -1.125703064507     1.007825032230
         H            3.422494595249    -0.362775466103    -1.067416064507     1.007825032230
         H            1.975751595249    -1.731676466103     1.242432935493     1.007825032230
         H            3.751091595249    -1.608007466103     1.087498935493     1.007825032230
         H            3.108853595249     2.747831533897     0.177192935493     1.007825032230
         H           -0.305737404751    -1.787693466103    -0.544488064507     1.007825032230
         H            2.915032595249    -3.563564466103     0.118421935493     1.007825032230
         H           -2.698465404751    -2.547576466103    -0.154040064507     1.007825032230
         H           -5.023708404751    -1.636234466103    -0.057509064507     1.007825032230
         H           -5.294468404751    -0.012290466103     0.385310935493     1.007825032230

  Basis Set: AUG-CC-PVTZ
    Blend: AUG-CC-PVTZ
  Basis Set: (AUG-CC-PVTZ AUX)
    Blend: AUG-CC-PVTZ-JKFIT
	 Reference Energy          =    -811.4636620974241623 [Eh]
	 Singles Energy            =      -0.0000000000000000 [Eh]
	 Same-Spin Energy          =      -0.8308691925686985 [Eh]
	 Opposite-Spin Energy      =      -2.5268633517556633 [Eh]
	 Correlation Energy        =      -3.3577325443243620 [Eh]
	 Total Energy              =    -814.8213946417484976 [Eh]

	 ================> DF-SCS-MP2 Energies <==================
	-----------------------------------------------------------
	 SCS Same-Spin Scale       =       0.3333333333333333 [-]
	 SCS Opposite-Spin Scale   =       1.2000000000000000 [-]
	 SCS Same-Spin Energy      =      -0.2769563975228995 [Eh]
	 SCS Opposite-Spin Energy  =      -3.0322360221067961 [Eh]
	 SCS Correlation Energy    =      -3.3091924196296958 [Eh]
	 SCS Total Energy          =    -814.7728545170538155 [Eh]
	-----------------------------------------------------------

  Dipole Moment: [D]
     X:     1.4933      Y:    -4.6411      Z:     2.4435     Total:     5.4535

*** Psi4 exiting successfully. Buy a developer a beer!
