                               Psi4 1.3.2 release

  ==> Input File <==

--------------------------------------------------------------------------
#psi4
#
memory 32 gb

molecule  {
0 1
  O        1.3620710    -0.3800110    -0.9318440
  O        3.2020570     1.9012130    -0.2995130
  O        2.7994070    -2.7489470    -0.4002010
  O       -1.3621860     2.3740050     0.1547830
  N       -0.7982440     0.1994180    -0.2292560
  N       -3.0541720     0.8052390     0.2400120
  N       -4.6734100    -0.8124350     0.4126370
  C        2.7015950     0.8755540     0.5594740
  C        1.2368440     1.1072260     0.8878520
  C        2.6518190    -0.3922910    -0.2854700
  C        0.5739580     0.6830040    -0.4149160
  C        2.8020980    -1.6600160     0.5224700
  C       -1.1160829    -1.1184223    -0.3109268
  C       -1.7358269     1.2124426     0.0811504
  C       -2.4173070    -1.5045610    -0.1045420
  C       -3.3619920    -0.4731600     0.1685110
  H        3.3343810     0.7567850     1.4508530
  H        0.9047070     0.4438290     1.6934890
  H        0.9853290     2.1340670     1.1581470
  H        0.5274540     1.5132540    -1.1249130
  H        3.4174920    -0.3642830    -1.0666260
  H        1.9707490    -1.7331840     1.2432230
  H        3.7460890    -1.6095150     1.0882890
  H        3.1038510     2.7463240     0.1779830
  H       -0.3107400    -1.7892010    -0.5436980
  H        2.9100300    -3.5650720     0.1192120
  H       -2.7034680    -2.5490840    -0.1532500
  H       -5.0287110    -1.6377420    -0.0567190
  H       -5.2994710    -0.0137980     0.3861010
units angstrom
no_reorient  #important for SAPT in psi4, default
symmetry c1  #important for SAPT in psi4, default
}

set PROPERTIES_ORIGIN ["COM"]
properties('MP2/aug-cc-pvtz', properties = ['dipole'])
--------------------------------------------------------------------------

    Molecular point group: c1
  Charge       = 0
  Multiplicity = 1
  Basis Set: AUG-CC-PVTZ
    Blend: AUG-CC-PVTZ
  Basis Set: (AUG-CC-PVTZ AUX)
    Blend: AUG-CC-PVTZ-JKFIT

    Orbital Energies [Eh]
    ---------------------

    Doubly Occupied:

       1A    -20.577920     2A    -20.574700     3A    -20.573111
       4A    -20.506324     5A    -15.621769     6A    -15.586839
       7A    -15.539666     8A    -11.370585     9A    -11.343175
      10A    -11.330678    11A    -11.318806    12A    -11.301221
      13A    -11.297069    14A    -11.293329    15A    -11.237270
      16A    -11.237036    17A     -1.417346    18A     -1.386768
      19A     -1.373816    20A     -1.366736    21A     -1.293247
      22A     -1.261175    23A     -1.165863    24A     -1.078593
      25A     -1.067611    26A     -1.027337    27A     -0.926539
      28A     -0.898778    29A     -0.867851    30A     -0.829634
      31A     -0.806452    32A     -0.752661    33A     -0.738934
      34A     -0.721198    35A     -0.706987    36A     -0.693071
      37A     -0.689440    38A     -0.676124    39A     -0.656943
      40A     -0.636704    41A     -0.627639    42A     -0.620355
      43A     -0.606140    44A     -0.594929    45A     -0.590034
      46A     -0.572169    47A     -0.568824    48A     -0.545096
      49A     -0.532639    50A     -0.524076    51A     -0.511558
      52A     -0.486265    53A     -0.483398    54A     -0.468713
      55A     -0.461601    56A     -0.446380    57A     -0.438145
      58A     -0.415171    59A     -0.382776    60A     -0.333329

  @DF-RHF Final Energy:  -811.47891482495493

   => Energetics <=

    Nuclear Repulsion Energy =           1169.8939542348646228
    One-Electron Energy =               -3434.8286412962270333
    Two-Electron Energy =                1453.4557722364077108
    Total Energy =                       -811.4789148249549271
  Basis Set: (AUG-CC-PVTZ AUX)
    Blend: AUG-CC-PVTZ-RI
    Molecular point group: c1

    Geometry (in Angstrom), charge = 0, multiplicity = 1:

       Center              X                  Y                   Z               Mass
    ------------   -----------------  -----------------  -----------------  -----------------
         O            1.361008049761    -0.380325306326    -0.931656618526    15.994914619570
         O            3.200994049761     1.900898693674    -0.299325618526    15.994914619570
         O            2.798344049761    -2.749261306326    -0.400013618526    15.994914619570
         O           -1.363248950239     2.373690693674     0.154970381474    15.994914619570
         N           -0.799306950239     0.199103693674    -0.229068618526    14.003074004430
         N           -3.055234950239     0.804924693674     0.240199381474    14.003074004430
         N           -4.674472950239    -0.812749306326     0.412824381474    14.003074004430
         C            2.700532049761     0.875239693674     0.559661381474    12.000000000000
         C            1.235781049761     1.106911693674     0.888039381474    12.000000000000
         C            2.650756049761    -0.392605306326    -0.285282618526    12.000000000000
         C            0.572895049761     0.682689693674    -0.414728618526    12.000000000000
         C            2.801035049761    -1.660330306326     0.522657381474    12.000000000000
         C           -1.117145850239    -1.118736606326    -0.310739418526    12.000000000000
         C           -1.736889850239     1.212128293674     0.081337781474    12.000000000000
         C           -2.418369950239    -1.504875306326    -0.104354618526    12.000000000000
         C           -3.363054950239    -0.473474306326     0.168698381474    12.000000000000
         H            3.333318049761     0.756470693674     1.451040381474     1.007825032230
         H            0.903644049761     0.443514693674     1.693676381474     1.007825032230
         H            0.984266049761     2.133752693674     1.158334381474     1.007825032230
         H            0.526391049761     1.512939693674    -1.124725618526     1.007825032230
         H            3.416429049761    -0.364597306326    -1.066438618526     1.007825032230
         H            1.969686049761    -1.733498306326     1.243410381474     1.007825032230
         H            3.745026049761    -1.609829306326     1.088476381474     1.007825032230
         H            3.102788049761     2.746009693674     0.178170381474     1.007825032230
         H           -0.311802950239    -1.789515306326    -0.543510618526     1.007825032230
         H            2.908967049761    -3.565386306326     0.119399381474     1.007825032230
         H           -2.704530950239    -2.549398306326    -0.153062618526     1.007825032230
         H           -5.029773950239    -1.638056306326    -0.056531618526     1.007825032230
         H           -5.300533950239    -0.014112306326     0.386288381474     1.007825032230

  Basis Set: AUG-CC-PVTZ
    Blend: AUG-CC-PVTZ
  Basis Set: (AUG-CC-PVTZ AUX)
    Blend: AUG-CC-PVTZ-JKFIT
	 Reference Energy          =    -811.4789148249549271 [Eh]
	 Singles Energy            =      -0.0000000000000000 [Eh]
	 Same-Spin Energy          =      -0.8295946596739427 [Eh]
	 Opposite-Spin Energy      =      -2.5251770005115644 [Eh]
	 Correlation Energy        =      -3.3547716601855071 [Eh]
	 Total Energy              =    -814.8336864851404471 [Eh]

	 ================> DF-SCS-MP2 Energies <==================
	-----------------------------------------------------------
	 SCS Same-Spin Scale       =       0.3333333333333333 [-]
	 SCS Opposite-Spin Scale   =       1.2000000000000000 [-]
	 SCS Same-Spin Energy      =      -0.2765315532246476 [Eh]
	 SCS Opposite-Spin Energy  =      -3.0302124006138773 [Eh]
	 SCS Correlation Energy    =      -3.3067439538385250 [Eh]
	 SCS Total Energy          =    -814.7856587787935041 [Eh]
	-----------------------------------------------------------

  Dipole Moment: [D]
     X:     1.1617      Y:    -4.5738      Z:     2.4870     Total:     5.3343

*** Psi4 exiting successfully. Buy a developer a beer!
