                               Psi4 1.3.2 release

  ==> Input File <==

--------------------------------------------------------------------------
#psi4
#
memory 32 gb

molecule  {
0 1
  O        1.3620710    -0.3800110    -0.9318440
  O        3.2020570     1.9012130    -0.2995130
  O        2.7994070    -2.7489470    -0.4002010
  O       -1.3621860     2.3740050     0.1547830
  N       -0.7982440     0.1994180    -0.2292560
  N       -3.0541720     0.8052390     0.2400120
  N       -4.6734100    -0.8124350     0.4126370
  C        2.7015950     0.8755540     0.5594740
  C        1.2435867     1.1288753     0.9015844
  C        2.6782901    -0.3913773    -0.2879816
  C        0.5739580     0.6830040    -0.4149160
  C        2.8020980    -1.6600160     0.5224700
  C       -1.1273370    -1.1158190    -0.3082760
  C       -1.7446880     1.2038920     0.0820450
  C       -2.4173070    -1.5045610    -0.1045420
  C       -3.3619920    -0.4731600     0.1685110
  H        3.3343810     0.7567850     1.4508530
  H        0.9047070     0.4438290     1.6934890
  H        0.9853290     2.1340670     1.1581470
  H        0.5274540     1.5132540    -1.1249130
  H        3.4174920    -0.3642830    -1.0666260
  H        1.9707490    -1.7331840     1.2432230
  H        3.7460890    -1.6095150     1.0882890
  H        3.1038510     2.7463240     0.1779830
  H       -0.3107400    -1.7892010    -0.5436980
  H        2.9100300    -3.5650720     0.1192120
  H       -2.7034680    -2.5490840    -0.1532500
  H       -5.0287110    -1.6377420    -0.0567190
  H       -5.2994710    -0.0137980     0.3861010
units angstrom
no_reorient  #important for SAPT in psi4, default
symmetry c1  #important for SAPT in psi4, default
}

set PROPERTIES_ORIGIN ["COM"]
properties('MP2/aug-cc-pvtz', properties = ['dipole'])
--------------------------------------------------------------------------

    Molecular point group: c1
  Charge       = 0
  Multiplicity = 1
  Basis Set: AUG-CC-PVTZ
    Blend: AUG-CC-PVTZ
  Basis Set: (AUG-CC-PVTZ AUX)
    Blend: AUG-CC-PVTZ-JKFIT

    Orbital Energies [Eh]
    ---------------------

    Doubly Occupied:

       1A    -20.578399     2A    -20.574206     3A    -20.570765
       4A    -20.502622     5A    -15.621153     6A    -15.587942
       7A    -15.540314     8A    -11.369355     9A    -11.344528
      10A    -11.330246    11A    -11.317614    12A    -11.301615
      13A    -11.297989    14A    -11.293984    15A    -11.236702
      16A    -11.236437    17A     -1.410982    18A     -1.381854
      19A     -1.374100    20A     -1.363962    21A     -1.291543
      22A     -1.260291    23A     -1.168449    24A     -1.076711
      25A     -1.069051    26A     -1.027241    27A     -0.926097
      28A     -0.896887    29A     -0.869466    30A     -0.830004
      31A     -0.807912    32A     -0.753648    33A     -0.736813
      34A     -0.720419    35A     -0.706504    36A     -0.693680
      37A     -0.688935    38A     -0.675096    39A     -0.655653
      40A     -0.636399    41A     -0.625685    42A     -0.618197
      43A     -0.604257    44A     -0.594542    45A     -0.586927
      46A     -0.571735    47A     -0.570051    48A     -0.546712
      49A     -0.531671    50A     -0.525218    51A     -0.508743
      52A     -0.487928    53A     -0.482050    54A     -0.468757
      55A     -0.461410    56A     -0.443876    57A     -0.436809
      58A     -0.415933    59A     -0.382928    60A     -0.334191

  @DF-RHF Final Energy:  -811.47774435573103

   => Energetics <=

    Nuclear Repulsion Energy =           1168.8985150559594786
    One-Electron Energy =               -3432.9061396388965477
    Two-Electron Energy =                1452.5298802272059220
    Total Energy =                       -811.4777443557309198
  Basis Set: (AUG-CC-PVTZ AUX)
    Blend: AUG-CC-PVTZ-RI
    Molecular point group: c1

    Geometry (in Angstrom), charge = 0, multiplicity = 1:

       Center              X                  Y                   Z               Mass
    ------------   -----------------  -----------------  -----------------  -----------------
         O            1.360315889029    -0.381203318867    -0.932436899152    15.994914619570
         O            3.200301889029     1.900020681133    -0.300105899152    15.994914619570
         O            2.797651889029    -2.750139318867    -0.400793899152    15.994914619570
         O           -1.363941110971     2.372812681133     0.154190100848    15.994914619570
         N           -0.799999110971     0.198225681133    -0.229848899152    14.003074004430
         N           -3.055927110971     0.804046681133     0.239419100848    14.003074004430
         N           -4.675165110971    -0.813627318867     0.412044100848    14.003074004430
         C            2.699839889029     0.874361681133     0.558881100848    12.000000000000
         C            1.241831589029     1.127682981133     0.900991500848    12.000000000000
         C            2.676534989029    -0.392569618867    -0.288574499152    12.000000000000
         C            0.572202889029     0.681811681133    -0.415508899152    12.000000000000
         C            2.800342889029    -1.661208318867     0.521877100848    12.000000000000
         C           -1.129092110971    -1.117011318867    -0.308868899152    12.000000000000
         C           -1.746443110971     1.202699681133     0.081452100848    12.000000000000
         C           -2.419062110971    -1.505753318867    -0.105134899152    12.000000000000
         C           -3.363747110971    -0.474352318867     0.167918100848    12.000000000000
         H            3.332625889029     0.755592681133     1.450260100848     1.007825032230
         H            0.902951889029     0.442636681133     1.692896100848     1.007825032230
         H            0.983573889029     2.132874681133     1.157554100848     1.007825032230
         H            0.525698889029     1.512061681133    -1.125505899152     1.007825032230
         H            3.415736889029    -0.365475318867    -1.067218899152     1.007825032230
         H            1.968993889029    -1.734376318867     1.242630100848     1.007825032230
         H            3.744333889029    -1.610707318867     1.087696100848     1.007825032230
         H            3.102095889029     2.745131681133     0.177390100848     1.007825032230
         H           -0.312495110971    -1.790393318867    -0.544290899152     1.007825032230
         H            2.908274889029    -3.566264318867     0.118619100848     1.007825032230
         H           -2.705223110971    -2.550276318867    -0.153842899152     1.007825032230
         H           -5.030466110971    -1.638934318867    -0.057311899152     1.007825032230
         H           -5.301226110971    -0.014990318867     0.385508100848     1.007825032230

  Basis Set: AUG-CC-PVTZ
    Blend: AUG-CC-PVTZ
  Basis Set: (AUG-CC-PVTZ AUX)
    Blend: AUG-CC-PVTZ-JKFIT
	 Reference Energy          =    -811.4777443557310335 [Eh]
	 Singles Energy            =      -0.0000000000000000 [Eh]
	 Same-Spin Energy          =      -0.8294814063213646 [Eh]
	 Opposite-Spin Energy      =      -2.5252884379245568 [Eh]
	 Correlation Energy        =      -3.3547698442459213 [Eh]
	 Total Energy              =    -814.8325141999769130 [Eh]

	 ================> DF-SCS-MP2 Energies <==================
	-----------------------------------------------------------
	 SCS Same-Spin Scale       =       0.3333333333333333 [-]
	 SCS Opposite-Spin Scale   =       1.2000000000000000 [-]
	 SCS Same-Spin Energy      =      -0.2764938021071215 [Eh]
	 SCS Opposite-Spin Energy  =      -3.0303461255094679 [Eh]
	 SCS Correlation Energy    =      -3.3068399276165894 [Eh]
	 SCS Total Energy          =    -814.7845842833476127 [Eh]
	-----------------------------------------------------------

  Dipole Moment: [D]
     X:     1.1690      Y:    -4.7047      Z:     2.4862     Total:     5.4481

*** Psi4 exiting successfully. Buy a developer a beer!
