                               Psi4 1.3.2 release

  ==> Input File <==

--------------------------------------------------------------------------
#psi4
#
memory 32 gb

molecule  {
0 1
  O        1.3620710    -0.3800110    -0.9318440
  O        3.1926345     1.8991275    -0.3074024
  O        2.7994070    -2.7489470    -0.4002010
  O       -1.3621860     2.3740050     0.1547830
  N       -0.7982440     0.1994180    -0.2292560
  N       -3.0541720     0.8052390     0.2400120
  N       -4.6734100    -0.8124350     0.4126370
  C        2.7015950     0.8755540     0.5594740
  C        1.2368440     1.1072260     0.8878520
  C        2.6518190    -0.3922910    -0.2854700
  C        0.5739580     0.6830040    -0.4149160
  C        2.8020980    -1.6600160     0.5224700
  C       -1.1273370    -1.1158190    -0.3082760
  C       -1.7446880     1.2038920     0.0820450
  C       -2.4173070    -1.5045610    -0.1045420
  C       -3.3619920    -0.4731600     0.1685110
  H        3.3285940     0.7497980     1.4539786
  H        0.9047070     0.4438290     1.6934890
  H        0.9853290     2.1340670     1.1581470
  H        0.5274540     1.5132540    -1.1249130
  H        3.4174920    -0.3642830    -1.0666260
  H        1.9707490    -1.7331840     1.2432230
  H        3.7460890    -1.6095150     1.0882890
  H        3.1038510     2.7463240     0.1779830
  H       -0.3107400    -1.7892010    -0.5436980
  H        2.9100300    -3.5650720     0.1192120
  H       -2.7034680    -2.5490840    -0.1532500
  H       -5.0287110    -1.6377420    -0.0567190
  H       -5.2994710    -0.0137980     0.3861010
units angstrom
no_reorient  #important for SAPT in psi4, default
symmetry c1  #important for SAPT in psi4, default
}

set PROPERTIES_ORIGIN ["COM"]
properties('MP2/aug-cc-pvtz', properties = ['dipole'])
--------------------------------------------------------------------------

    Molecular point group: c1
  Charge       = 0
  Multiplicity = 1
  Basis Set: AUG-CC-PVTZ
    Blend: AUG-CC-PVTZ
  Basis Set: (AUG-CC-PVTZ AUX)
    Blend: AUG-CC-PVTZ-JKFIT

    Orbital Energies [Eh]
    ---------------------

    Doubly Occupied:

       1A    -20.577701     2A    -20.575329     3A    -20.572676
       4A    -20.502910     5A    -15.621571     6A    -15.588260
       7A    -15.540682     8A    -11.369758     9A    -11.344920
      10A    -11.330474    11A    -11.318157    12A    -11.300855
      13A    -11.296782    14A    -11.292868    15A    -11.236897
      16A    -11.236497    17A     -1.416520    18A     -1.382270
      19A     -1.373355    20A     -1.365331    21A     -1.292097
      22A     -1.261286    23A     -1.168993    24A     -1.078774
      25A     -1.068796    26A     -1.027821    27A     -0.926621
      28A     -0.897318    29A     -0.868742    30A     -0.830508
      31A     -0.806302    32A     -0.754091    33A     -0.738717
      34A     -0.720677    35A     -0.706824    36A     -0.692702
      37A     -0.688652    38A     -0.675703    39A     -0.656522
      40A     -0.636858    41A     -0.627408    42A     -0.618480
      43A     -0.604491    44A     -0.594862    45A     -0.588537
      46A     -0.572293    47A     -0.568948    48A     -0.544754
      49A     -0.532591    50A     -0.523559    51A     -0.510299
      52A     -0.486149    53A     -0.481871    54A     -0.468468
      55A     -0.460982    56A     -0.444344    57A     -0.437691
      58A     -0.416206    59A     -0.383616    60A     -0.334793

  @DF-RHF Final Energy:  -811.47878248943471

   => Energetics <=

    Nuclear Repulsion Energy =           1170.1120631099961429
    One-Electron Energy =               -3435.2973789023967583
    Two-Electron Energy =                1453.7065333029659087
    Total Energy =                       -811.4787824894347068
  Basis Set: (AUG-CC-PVTZ AUX)
    Blend: AUG-CC-PVTZ-RI
    Molecular point group: c1

    Geometry (in Angstrom), charge = 0, multiplicity = 1:

       Center              X                  Y                   Z               Mass
    ------------   -----------------  -----------------  -----------------  -----------------
         O            1.362760331697    -0.379833138596    -0.931302154628    15.994914619570
         O            3.193323831697     1.899305361404    -0.306860554628    15.994914619570
         O            2.800096331697    -2.748769138596    -0.399659154628    15.994914619570
         O           -1.361496668303     2.374182861404     0.155324845372    15.994914619570
         N           -0.797554668303     0.199595861404    -0.228714154628    14.003074004430
         N           -3.053482668303     0.805416861404     0.240553845372    14.003074004430
         N           -4.672720668303    -0.812257138596     0.413178845372    14.003074004430
         C            2.702284331697     0.875731861404     0.560015845372    12.000000000000
         C            1.237533331697     1.107403861404     0.888393845372    12.000000000000
         C            2.652508331697    -0.392113138596    -0.284928154628    12.000000000000
         C            0.574647331696     0.683181861404    -0.414374154628    12.000000000000
         C            2.802787331697    -1.659838138596     0.523011845372    12.000000000000
         C           -1.126647668304    -1.115641138596    -0.307734154628    12.000000000000
         C           -1.743998668304     1.204069861404     0.082586845372    12.000000000000
         C           -2.416617668303    -1.504383138596    -0.104000154628    12.000000000000
         C           -3.361302668303    -0.472982138596     0.169052845372    12.000000000000
         H            3.329283331697     0.749975861404     1.454520445372     1.007825032230
         H            0.905396331697     0.444006861404     1.694030845372     1.007825032230
         H            0.986018331697     2.134244861404     1.158688845372     1.007825032230
         H            0.528143331697     1.513431861404    -1.124371154628     1.007825032230
         H            3.418181331697    -0.364105138596    -1.066084154628     1.007825032230
         H            1.971438331697    -1.733006138596     1.243764845372     1.007825032230
         H            3.746778331697    -1.609337138596     1.088830845372     1.007825032230
         H            3.104540331697     2.746501861404     0.178524845372     1.007825032230
         H           -0.310050668303    -1.789023138596    -0.543156154628     1.007825032230
         H            2.910719331697    -3.564894138596     0.119753845372     1.007825032230
         H           -2.702778668303    -2.548906138596    -0.152708154628     1.007825032230
         H           -5.028021668304    -1.637564138596    -0.056177154628     1.007825032230
         H           -5.298781668303    -0.013620138596     0.386642845372     1.007825032230

  Basis Set: AUG-CC-PVTZ
    Blend: AUG-CC-PVTZ
  Basis Set: (AUG-CC-PVTZ AUX)
    Blend: AUG-CC-PVTZ-JKFIT
	 Reference Energy          =    -811.4787824894347068 [Eh]
	 Singles Energy            =      -0.0000000000000000 [Eh]
	 Same-Spin Energy          =      -0.8297749168038377 [Eh]
	 Opposite-Spin Energy      =      -2.5253996892403263 [Eh]
	 Correlation Energy        =      -3.3551746060441641 [Eh]
	 Total Energy              =    -814.8339570954789224 [Eh]

	 ================> DF-SCS-MP2 Energies <==================
	-----------------------------------------------------------
	 SCS Same-Spin Scale       =       0.3333333333333333 [-]
	 SCS Opposite-Spin Scale   =       1.2000000000000000 [-]
	 SCS Same-Spin Energy      =      -0.2765916389346126 [Eh]
	 SCS Opposite-Spin Energy  =      -3.0304796270883916 [Eh]
	 SCS Correlation Energy    =      -3.3070712660230042 [Eh]
	 SCS Total Energy          =    -814.7858537554577651 [Eh]
	-----------------------------------------------------------

  Dipole Moment: [D]
     X:     1.1060      Y:    -4.6694      Z:     2.4998     Total:     5.4107

*** Psi4 exiting successfully. Buy a developer a beer!
