                               Psi4 1.3.2 release

  ==> Input File <==

--------------------------------------------------------------------------
#psi4
#
memory 32 gb

molecule  {
0 1
  O        1.3818015    -0.3649953    -0.9320463
  O        3.2020570     1.9012130    -0.2995130
  O        2.7994070    -2.7489470    -0.4002010
  O       -1.3621860     2.3740050     0.1547830
  N       -0.8049721     0.2225305    -0.2205473
  N       -3.0541720     0.8052390     0.2400120
  N       -4.6734100    -0.8124350     0.4126370
  C        2.7015950     0.8755540     0.5594740
  C        1.2368440     1.1072260     0.8878520
  C        2.6518190    -0.3922910    -0.2854700
  C        0.5739580     0.6830040    -0.4149160
  C        2.8020980    -1.6600160     0.5224700
  C       -1.1273370    -1.1158190    -0.3082760
  C       -1.7446880     1.2038920     0.0820450
  C       -2.4173070    -1.5045610    -0.1045420
  C       -3.3619920    -0.4731600     0.1685110
  H        3.3343810     0.7567850     1.4508530
  H        0.9047070     0.4438290     1.6934890
  H        0.9853290     2.1340670     1.1581470
  H        0.5274540     1.5132540    -1.1249130
  H        3.4174920    -0.3642830    -1.0666260
  H        1.9707490    -1.7331840     1.2432230
  H        3.7460890    -1.6095150     1.0882890
  H        3.1038510     2.7463240     0.1779830
  H       -0.3107400    -1.7892010    -0.5436980
  H        2.9100300    -3.5650720     0.1192120
  H       -2.7034680    -2.5490840    -0.1532500
  H       -5.0287110    -1.6377420    -0.0567190
  H       -5.2994710    -0.0137980     0.3861010
units angstrom
no_reorient  #important for SAPT in psi4, default
symmetry c1  #important for SAPT in psi4, default
}

set PROPERTIES_ORIGIN ["COM"]
properties('MP2/aug-cc-pvtz', properties = ['dipole'])
--------------------------------------------------------------------------

    Molecular point group: c1
  Charge       = 0
  Multiplicity = 1
  Basis Set: AUG-CC-PVTZ
    Blend: AUG-CC-PVTZ
  Basis Set: (AUG-CC-PVTZ AUX)
    Blend: AUG-CC-PVTZ-JKFIT

    Orbital Energies [Eh]
    ---------------------

    Doubly Occupied:

       1A    -20.577568     2A    -20.573242     3A    -20.572750
       4A    -20.499511     5A    -15.621978     6A    -15.589576
       7A    -15.541559     8A    -11.367171     9A    -11.346334
      10A    -11.330606    11A    -11.321307    12A    -11.299208
      13A    -11.296128    14A    -11.291325    15A    -11.240848
      16A    -11.235571    17A     -1.419505    18A     -1.383306
      19A     -1.373028    20A     -1.365758    21A     -1.291484
      22A     -1.260536    23A     -1.169748    24A     -1.078765
      25A     -1.068576    26A     -1.029898    27A     -0.926779
      28A     -0.899943    29A     -0.869045    30A     -0.830779
      31A     -0.806276    32A     -0.755645    33A     -0.737929
      34A     -0.721173    35A     -0.707712    36A     -0.692945
      37A     -0.688927    38A     -0.676651    39A     -0.658746
      40A     -0.637853    41A     -0.628290    42A     -0.618568
      43A     -0.606200    44A     -0.596637    45A     -0.589107
      46A     -0.570748    47A     -0.568170    48A     -0.545153
      49A     -0.532972    50A     -0.523645    51A     -0.509820
      52A     -0.483099    53A     -0.479051    54A     -0.468129
      55A     -0.459355    56A     -0.443211    57A     -0.437484
      58A     -0.416888    59A     -0.384023    60A     -0.337497

  @DF-RHF Final Energy:  -811.47918895127430

   => Energetics <=

    Nuclear Repulsion Energy =           1170.1457728613540894
    One-Electron Energy =               -3435.3424542544526048
    Two-Electron Energy =                1453.7174924418243336
    Total Energy =                       -811.4791889512741818
  Basis Set: (AUG-CC-PVTZ AUX)
    Blend: AUG-CC-PVTZ-RI
    Molecular point group: c1

    Geometry (in Angstrom), charge = 0, multiplicity = 1:

       Center              X                  Y                   Z               Mass
    ------------   -----------------  -----------------  -----------------  -----------------
         O            1.380826659171    -0.367478138509    -0.932569020993    15.994914619570
         O            3.201082159171     1.898730161491    -0.300035720993    15.994914619570
         O            2.798432159171    -2.751429838509    -0.400723720993    15.994914619570
         O           -1.363160840829     2.371522161491     0.154260279007    15.994914619570
         N           -0.805946940829     0.220047661491    -0.221070020993    14.003074004430
         N           -3.055146840829     0.802756161491     0.239489279007    14.003074004430
         N           -4.674384840829    -0.814917838509     0.412114279007    14.003074004430
         C            2.700620159171     0.873071161491     0.558951279007    12.000000000000
         C            1.235869159171     1.104743161491     0.887329279007    12.000000000000
         C            2.650844159171    -0.394773838509    -0.285992720993    12.000000000000
         C            0.572983159171     0.680521161491    -0.415438720993    12.000000000000
         C            2.801123159171    -1.662498838509     0.521947279007    12.000000000000
         C           -1.128311840829    -1.118301838509    -0.308798720993    12.000000000000
         C           -1.745662840829     1.201409161491     0.081522279007    12.000000000000
         C           -2.418281840829    -1.507043838509    -0.105064720993    12.000000000000
         C           -3.362966840829    -0.475642838509     0.167988279007    12.000000000000
         H            3.333406159171     0.754302161491     1.450330279007     1.007825032230
         H            0.903732159171     0.441346161491     1.692966279007     1.007825032230
         H            0.984354159171     2.131584161491     1.157624279007     1.007825032230
         H            0.526479159171     1.510771161491    -1.125435720993     1.007825032230
         H            3.416517159171    -0.366765838509    -1.067148720993     1.007825032230
         H            1.969774159171    -1.735666838509     1.242700279007     1.007825032230
         H            3.745114159171    -1.611997838509     1.087766279007     1.007825032230
         H            3.102876159171     2.743841161491     0.177460279007     1.007825032230
         H           -0.311714840829    -1.791683838509    -0.544220720993     1.007825032230
         H            2.909055159171    -3.567554838509     0.118689279007     1.007825032230
         H           -2.704442840829    -2.551566838509    -0.153772720993     1.007825032230
         H           -5.029685840829    -1.640224838509    -0.057241720993     1.007825032230
         H           -5.300445840829    -0.016280838509     0.385578279007     1.007825032230

  Basis Set: AUG-CC-PVTZ
    Blend: AUG-CC-PVTZ
  Basis Set: (AUG-CC-PVTZ AUX)
    Blend: AUG-CC-PVTZ-JKFIT
	 Reference Energy          =    -811.4791889512742955 [Eh]
	 Singles Energy            =      -0.0000000000000000 [Eh]
	 Same-Spin Energy          =      -0.8293682830285993 [Eh]
	 Opposite-Spin Energy      =      -2.5246113764124098 [Eh]
	 Correlation Energy        =      -3.3539796594410092 [Eh]
	 Total Energy              =    -814.8331686107153473 [Eh]

	 ================> DF-SCS-MP2 Energies <==================
	-----------------------------------------------------------
	 SCS Same-Spin Scale       =       0.3333333333333333 [-]
	 SCS Opposite-Spin Scale   =       1.2000000000000000 [-]
	 SCS Same-Spin Energy      =      -0.2764560943428664 [Eh]
	 SCS Opposite-Spin Energy  =      -3.0295336516948916 [Eh]
	 SCS Correlation Energy    =      -3.3059897460377581 [Eh]
	 SCS Total Energy          =    -814.7851786973120625 [Eh]
	-----------------------------------------------------------

  Dipole Moment: [D]
     X:     0.9323      Y:    -4.8280      Z:     2.4663     Total:     5.5010

*** Psi4 exiting successfully. Buy a developer a beer!
