                               Psi4 1.3.2 release

  ==> Input File <==

--------------------------------------------------------------------------
#psi4
#
memory 32 gb

molecule  {
0 1
  O        1.3620710    -0.3800110    -0.9318440
  O        3.2063331     1.8505066    -0.3543116
  O        2.7994070    -2.7489470    -0.4002010
  O       -1.3621860     2.3740050     0.1547830
  N       -0.7982440     0.1994180    -0.2292560
  N       -3.0541720     0.8052390     0.2400120
  N       -4.6734100    -0.8124350     0.4126370
  C        2.7015950     0.8755540     0.5594740
  C        1.2368440     1.1072260     0.8878520
  C        2.6802178    -0.3499658    -0.3468831
  C        0.5739580     0.6830040    -0.4149160
  C        2.8020980    -1.6600160     0.5224700
  C       -1.1273370    -1.1158190    -0.3082760
  C       -1.7446880     1.2038920     0.0820450
  C       -2.4173070    -1.5045610    -0.1045420
  C       -3.3619920    -0.4731600     0.1685110
  H        3.3343810     0.7567850     1.4508530
  H        0.9047070     0.4438290     1.6934890
  H        0.9853290     2.1340670     1.1581470
  H        0.5274540     1.5132540    -1.1249130
  H        3.4174920    -0.3642830    -1.0666260
  H        1.9707490    -1.7331840     1.2432230
  H        3.7460890    -1.6095150     1.0882890
  H        3.1038510     2.7463240     0.1779830
  H       -0.3107400    -1.7892010    -0.5436980
  H        2.9100300    -3.5650720     0.1192120
  H       -2.7034680    -2.5490840    -0.1532500
  H       -5.0287110    -1.6377420    -0.0567190
  H       -5.2994710    -0.0137980     0.3861010
units angstrom
no_reorient  #important for SAPT in psi4, default
symmetry c1  #important for SAPT in psi4, default
}

set PROPERTIES_ORIGIN ["COM"]
properties('MP2/aug-cc-pvtz', properties = ['dipole'])
--------------------------------------------------------------------------

    Molecular point group: c1
  Charge       = 0
  Multiplicity = 1
  Basis Set: AUG-CC-PVTZ
    Blend: AUG-CC-PVTZ
  Basis Set: (AUG-CC-PVTZ AUX)
    Blend: AUG-CC-PVTZ-JKFIT

    Orbital Energies [Eh]
    ---------------------

    Doubly Occupied:

       1A    -20.582076     2A    -20.574634     3A    -20.572244
       4A    -20.503234     5A    -15.622074     6A    -15.588394
       7A    -15.540896     8A    -11.370119     9A    -11.345099
      10A    -11.331028    11A    -11.318268    12A    -11.299549
      13A    -11.295112    14A    -11.289946    15A    -11.237689
      16A    -11.236987    17A     -1.415481    18A     -1.381571
      19A     -1.368426    20A     -1.358945    21A     -1.292293
      22A     -1.261445    23A     -1.169176    24A     -1.077415
      25A     -1.062268    26A     -1.023365    27A     -0.920311
      28A     -0.896959    29A     -0.868304    30A     -0.829520
      31A     -0.813219    32A     -0.754496    33A     -0.738837
      34A     -0.718096    35A     -0.703632    36A     -0.693053
      37A     -0.676526    38A     -0.675349    39A     -0.655377
      40A     -0.634620    41A     -0.628034    42A     -0.618305
      43A     -0.601448    44A     -0.594255    45A     -0.583910
      46A     -0.576920    47A     -0.571806    48A     -0.544243
      49A     -0.532366    50A     -0.523338    51A     -0.509817
      52A     -0.486618    53A     -0.482346    54A     -0.466541
      55A     -0.458751    56A     -0.444258    57A     -0.430800
      58A     -0.416377    59A     -0.383736    60A     -0.335025

  @DF-RHF Final Energy:  -811.46112538701118

   => Energetics <=

    Nuclear Repulsion Energy =           1169.5771846036166153
    One-Electron Energy =               -3434.3067638892425748
    Two-Electron Energy =                1453.2684538986145526
    Total Energy =                       -811.4611253870111796
  Basis Set: (AUG-CC-PVTZ AUX)
    Blend: AUG-CC-PVTZ-RI
    Molecular point group: c1

    Geometry (in Angstrom), charge = 0, multiplicity = 1:

       Center              X                  Y                   Z               Mass
    ------------   -----------------  -----------------  -----------------  -----------------
         O            1.360269141810    -0.378676141944    -0.924739065412    15.994914619570
         O            3.204531241810     1.851841458056    -0.347206665412    15.994914619570
         O            2.797605141810    -2.747612141944    -0.393096065412    15.994914619570
         O           -1.363987858190     2.375339858056     0.161887934588    15.994914619570
         N           -0.800045858190     0.200752858056    -0.222151065412    14.003074004430
         N           -3.055973858190     0.806573858056     0.247116934588    14.003074004430
         N           -4.675211858190    -0.811100141944     0.419741934588    14.003074004430
         C            2.699793141810     0.876888858056     0.566578934588    12.000000000000
         C            1.235042141810     1.108560858056     0.894956934588    12.000000000000
         C            2.678415941810    -0.348630941944    -0.339778165412    12.000000000000
         C            0.572156141810     0.684338858056    -0.407811065412    12.000000000000
         C            2.800296141810    -1.658681141944     0.529574934588    12.000000000000
         C           -1.129138858190    -1.114484141944    -0.301171065412    12.000000000000
         C           -1.746489858190     1.205226858056     0.089149934588    12.000000000000
         C           -2.419108858190    -1.503226141944    -0.097437065412    12.000000000000
         C           -3.363793858190    -0.471825141944     0.175615934588    12.000000000000
         H            3.332579141810     0.758119858056     1.457957934588     1.007825032230
         H            0.902905141810     0.445163858056     1.700593934588     1.007825032230
         H            0.983527141810     2.135401858056     1.165251934588     1.007825032230
         H            0.525652141810     1.514588858056    -1.117808065412     1.007825032230
         H            3.415690141810    -0.362948141944    -1.059521065412     1.007825032230
         H            1.968947141810    -1.731849141944     1.250327934588     1.007825032230
         H            3.744287141810    -1.608180141944     1.095393934588     1.007825032230
         H            3.102049141810     2.747658858056     0.185087934588     1.007825032230
         H           -0.312541858190    -1.787866141944    -0.536593065412     1.007825032230
         H            2.908228141810    -3.563737141944     0.126316934588     1.007825032230
         H           -2.705269858190    -2.547749141944    -0.146145065412     1.007825032230
         H           -5.030512858190    -1.636407141944    -0.049614065412     1.007825032230
         H           -5.301272858190    -0.012463141944     0.393205934588     1.007825032230

  Basis Set: AUG-CC-PVTZ
    Blend: AUG-CC-PVTZ
  Basis Set: (AUG-CC-PVTZ AUX)
    Blend: AUG-CC-PVTZ-JKFIT
	 Reference Energy          =    -811.4611253870111796 [Eh]
	 Singles Energy            =      -0.0000000000000000 [Eh]
	 Same-Spin Energy          =      -0.8305183445565050 [Eh]
	 Opposite-Spin Energy      =      -2.5282112903468770 [Eh]
	 Correlation Energy        =      -3.3587296349033817 [Eh]
	 Total Energy              =    -814.8198550219145773 [Eh]

	 ================> DF-SCS-MP2 Energies <==================
	-----------------------------------------------------------
	 SCS Same-Spin Scale       =       0.3333333333333333 [-]
	 SCS Opposite-Spin Scale   =       1.2000000000000000 [-]
	 SCS Same-Spin Energy      =      -0.2768394481855017 [Eh]
	 SCS Opposite-Spin Energy  =      -3.0338535484162521 [Eh]
	 SCS Correlation Energy    =      -3.3106929966017535 [Eh]
	 SCS Total Energy          =    -814.7718183836129811 [Eh]
	-----------------------------------------------------------

  Dipole Moment: [D]
     X:     1.0727      Y:    -4.5330      Z:     2.4614     Total:     5.2685

*** Psi4 exiting successfully. Buy a developer a beer!
