                               Psi4 1.3.2 release

  ==> Input File <==

--------------------------------------------------------------------------
#psi4
#
memory 32 gb

molecule  {
0 1
  O        1.3640925    -0.3734270    -0.9421527
  O        3.2020570     1.9012130    -0.2995130
  O        2.7994070    -2.7489470    -0.4002010
  O       -1.3621860     2.3740050     0.1547830
  N       -0.7982440     0.1994180    -0.2292560
  N       -3.0541720     0.8052390     0.2400120
  N       -4.6734100    -0.8124350     0.4126370
  C        2.7015950     0.8755540     0.5594740
  C        1.2368440     1.1072260     0.8878520
  C        2.6518190    -0.3922910    -0.2854700
  C        0.5739580     0.6830040    -0.4149160
  C        2.8020980    -1.6600160     0.5224700
  C       -1.1273370    -1.1158190    -0.3082760
  C       -1.7446880     1.2038920     0.0820450
  C       -2.4173070    -1.5045610    -0.1045420
  C       -3.3619920    -0.4731600     0.1685110
  H        3.3343810     0.7567850     1.4508530
  H        0.9047070     0.4438290     1.6934890
  H        0.9853290     2.1340670     1.1581470
  H        0.5329646     1.5083394    -1.1309568
  H        3.4174920    -0.3642830    -1.0666260
  H        1.9707490    -1.7331840     1.2432230
  H        3.7460890    -1.6095150     1.0882890
  H        3.1038510     2.7463240     0.1779830
  H       -0.3107400    -1.7892010    -0.5436980
  H        2.9100300    -3.5650720     0.1192120
  H       -2.7034680    -2.5490840    -0.1532500
  H       -5.0287110    -1.6377420    -0.0567190
  H       -5.2994710    -0.0137980     0.3861010
units angstrom
no_reorient  #important for SAPT in psi4, default
symmetry c1  #important for SAPT in psi4, default
}

set PROPERTIES_ORIGIN ["COM"]
properties('MP2/aug-cc-pvtz', properties = ['dipole'])
--------------------------------------------------------------------------

    Molecular point group: c1
  Charge       = 0
  Multiplicity = 1
  Basis Set: AUG-CC-PVTZ
    Blend: AUG-CC-PVTZ
  Basis Set: (AUG-CC-PVTZ AUX)
    Blend: AUG-CC-PVTZ-JKFIT

    Orbital Energies [Eh]
    ---------------------

    Doubly Occupied:

       1A    -20.577899     2A    -20.574316     3A    -20.572631
       4A    -20.502954     5A    -15.621762     6A    -15.588376
       7A    -15.540808     8A    -11.369865     9A    -11.345063
      10A    -11.330442    11A    -11.318419    12A    -11.300949
      13A    -11.297202    14A    -11.293231    15A    -11.237094
      16A    -11.237001    17A     -1.415804    18A     -1.382334
      19A     -1.373644    20A     -1.365532    21A     -1.292202
      22A     -1.261383    23A     -1.169089    24A     -1.079048
      25A     -1.069027    26A     -1.027835    27A     -0.926855
      28A     -0.897431    29A     -0.868947    30A     -0.830709
      31A     -0.806227    32A     -0.754309    33A     -0.738682
      34A     -0.720880    35A     -0.706842    36A     -0.692821
      37A     -0.689429    38A     -0.675397    39A     -0.656282
      40A     -0.637164    41A     -0.627544    42A     -0.618605
      43A     -0.604532    44A     -0.595048    45A     -0.588767
      46A     -0.572691    47A     -0.568056    48A     -0.545029
      49A     -0.532519    50A     -0.523508    51A     -0.510555
      52A     -0.486024    53A     -0.482150    54A     -0.468635
      55A     -0.461090    56A     -0.444442    57A     -0.437827
      58A     -0.416284    59A     -0.383754    60A     -0.334943

  @DF-RHF Final Energy:  -811.47928782052691

   => Energetics <=

    Nuclear Repulsion Energy =           1169.7407854218490684
    One-Electron Energy =               -3434.5443663670871501
    Two-Electron Energy =                1453.3242931247111756
    Total Energy =                       -811.4792878205269062
  Basis Set: (AUG-CC-PVTZ AUX)
    Blend: AUG-CC-PVTZ-RI
    Molecular point group: c1

    Geometry (in Angstrom), charge = 0, multiplicity = 1:

       Center              X                  Y                   Z               Mass
    ------------   -----------------  -----------------  -----------------  -----------------
         O            1.363925645655    -0.373868964010    -0.941399759820    15.994914619570
         O            3.201890145655     1.900771035990    -0.298760059820    15.994914619570
         O            2.799240145655    -2.749388964010    -0.399448059820    15.994914619570
         O           -1.362352854345     2.373563035990     0.155535940180    15.994914619570
         N           -0.798410854345     0.198976035990    -0.228503059820    14.003074004430
         N           -3.054338854345     0.804797035990     0.240764940180    14.003074004430
         N           -4.673576854345    -0.812876964010     0.413389940180    14.003074004430
         C            2.701428145655     0.875112035990     0.560226940180    12.000000000000
         C            1.236677145655     1.106784035990     0.888604940180    12.000000000000
         C            2.651652145655    -0.392732964010    -0.284717059820    12.000000000000
         C            0.573791145655     0.682562035990    -0.414163059820    12.000000000000
         C            2.801931145655    -1.660457964010     0.523222940180    12.000000000000
         C           -1.127503854345    -1.116260964010    -0.307523059820    12.000000000000
         C           -1.744854854345     1.203450035990     0.082797940180    12.000000000000
         C           -2.417473854345    -1.505002964010    -0.103789059820    12.000000000000
         C           -3.362158854345    -0.473601964010     0.169263940180    12.000000000000
         H            3.334214145655     0.756343035990     1.451605940180     1.007825032230
         H            0.904540145655     0.443387035990     1.694241940180     1.007825032230
         H            0.985162145655     2.133625035990     1.158899940180     1.007825032230
         H            0.532797745655     1.507897435990    -1.130203859820     1.007825032230
         H            3.417325145655    -0.364724964010    -1.065873059820     1.007825032230
         H            1.970582145655    -1.733625964010     1.243975940180     1.007825032230
         H            3.745922145655    -1.609956964010     1.089041940180     1.007825032230
         H            3.103684145655     2.745882035990     0.178735940180     1.007825032230
         H           -0.310906854345    -1.789642964010    -0.542945059820     1.007825032230
         H            2.909863145655    -3.565513964010     0.119964940180     1.007825032230
         H           -2.703634854345    -2.549525964010    -0.152497059820     1.007825032230
         H           -5.028877854345    -1.638183964010    -0.055966059820     1.007825032230
         H           -5.299637854345    -0.014239964010     0.386853940180     1.007825032230

  Basis Set: AUG-CC-PVTZ
    Blend: AUG-CC-PVTZ
  Basis Set: (AUG-CC-PVTZ AUX)
    Blend: AUG-CC-PVTZ-JKFIT
	 Reference Energy          =    -811.4792878205269062 [Eh]
	 Singles Energy            =      -0.0000000000000000 [Eh]
	 Same-Spin Energy          =      -0.8296362281380640 [Eh]
	 Opposite-Spin Energy      =      -2.5251996375301777 [Eh]
	 Correlation Energy        =      -3.3548358656682415 [Eh]
	 Total Energy              =    -814.8341236861951984 [Eh]

	 ================> DF-SCS-MP2 Energies <==================
	-----------------------------------------------------------
	 SCS Same-Spin Scale       =       0.3333333333333333 [-]
	 SCS Opposite-Spin Scale   =       1.2000000000000000 [-]
	 SCS Same-Spin Energy      =      -0.2765454093793547 [Eh]
	 SCS Opposite-Spin Energy  =      -3.0302395650362133 [Eh]
	 SCS Correlation Energy    =      -3.3067849744155682 [Eh]
	 SCS Total Energy          =    -814.7860727949424700 [Eh]
	-----------------------------------------------------------

  Dipole Moment: [D]
     X:     1.0777      Y:    -4.6902      Z:     2.5079     Total:     5.4267

*** Psi4 exiting successfully. Buy a developer a beer!
