                               Psi4 1.3.2 release

  ==> Input File <==

--------------------------------------------------------------------------
#psi4
#
memory 32 gb

molecule  {
0 1
  O        1.3620710    -0.3800110    -0.9318440
  O        3.2020570     1.9012130    -0.2995130
  O        2.7994070    -2.7489470    -0.4002010
  O       -1.3621860     2.3740050     0.1547830
  N       -0.7982440     0.1994180    -0.2292560
  N       -3.0541720     0.8052390     0.2400120
  N       -4.6734100    -0.8124350     0.4126370
  C        2.6913123     0.9103885     0.5936297
  C        1.2368440     1.1072260     0.8878520
  C        2.6518190    -0.3922910    -0.2854700
  C        0.5739580     0.6830040    -0.4149160
  C        2.8020980    -1.6600160     0.5224700
  C       -1.1273370    -1.1158190    -0.3082760
  C       -1.7446880     1.2038920     0.0820450
  C       -2.4173070    -1.5045610    -0.1045420
  C       -3.3619920    -0.4731600     0.1685110
  H        3.3343810     0.7567850     1.4508530
  H        0.9047070     0.4438290     1.6934890
  H        0.9853290     2.1340670     1.1581470
  H        0.5274540     1.5132540    -1.1249130
  H        3.4174920    -0.3642830    -1.0666260
  H        1.9707490    -1.7331840     1.2432230
  H        3.7460890    -1.6095150     1.0882890
  H        3.0903880     2.7292610     0.2041993
  H       -0.3107400    -1.7892010    -0.5436980
  H        2.9100300    -3.5650720     0.1192120
  H       -2.7034680    -2.5490840    -0.1532500
  H       -5.0287110    -1.6377420    -0.0567190
  H       -5.2994710    -0.0137980     0.3861010
units angstrom
no_reorient  #important for SAPT in psi4, default
symmetry c1  #important for SAPT in psi4, default
}

set PROPERTIES_ORIGIN ["COM"]
properties('MP2/aug-cc-pvtz', properties = ['dipole'])
--------------------------------------------------------------------------

    Molecular point group: c1
  Charge       = 0
  Multiplicity = 1
  Basis Set: AUG-CC-PVTZ
    Blend: AUG-CC-PVTZ
  Basis Set: (AUG-CC-PVTZ AUX)
    Blend: AUG-CC-PVTZ-JKFIT

    Orbital Energies [Eh]
    ---------------------

    Doubly Occupied:

       1A    -20.576950     2A    -20.576727     3A    -20.572618
       4A    -20.503243     5A    -15.622106     6A    -15.588547
       7A    -15.540996     8A    -11.370137     9A    -11.345267
      10A    -11.331447    11A    -11.318517    12A    -11.300421
      13A    -11.295579    14A    -11.293480    15A    -11.237261
      16A    -11.236888    17A     -1.415721    18A     -1.382874
      19A     -1.374507    20A     -1.366410    21A     -1.292422
      22A     -1.261588    23A     -1.169302    24A     -1.080196
      25A     -1.065981    26A     -1.027401    27A     -0.926568
      28A     -0.896907    29A     -0.866949    30A     -0.829881
      31A     -0.807899    32A     -0.754436    33A     -0.739614
      34A     -0.719875    35A     -0.706372    36A     -0.692112
      37A     -0.686506    38A     -0.675753    39A     -0.656978
      40A     -0.638374    41A     -0.629387    42A     -0.620125
      43A     -0.604813    44A     -0.594536    45A     -0.589626
      46A     -0.574641    47A     -0.570333    48A     -0.544395
      49A     -0.533331    50A     -0.521683    51A     -0.511021
      52A     -0.483950    53A     -0.476798    54A     -0.469323
      55A     -0.463534    56A     -0.445216    57A     -0.436948
      58A     -0.416565    59A     -0.384136    60A     -0.335302

  @DF-RHF Final Energy:  -811.47600322243147

   => Energetics <=

    Nuclear Repulsion Energy =           1169.5062929924690707
    One-Electron Energy =               -3434.0636441662854850
    Two-Electron Energy =                1453.0813479513851689
    Total Energy =                       -811.4760032224314728
  Basis Set: (AUG-CC-PVTZ AUX)
    Blend: AUG-CC-PVTZ-RI
    Molecular point group: c1

    Geometry (in Angstrom), charge = 0, multiplicity = 1:

       Center              X                  Y                   Z               Mass
    ------------   -----------------  -----------------  -----------------  -----------------
         O            1.362674094672    -0.381776048333    -0.933765180620    15.994914619570
         O            3.202660094672     1.899447951667    -0.301434180620    15.994914619570
         O            2.800010094672    -2.750712048333    -0.402122180620    15.994914619570
         O           -1.361582905328     2.372239951667     0.152861819380    15.994914619570
         N           -0.797640905328     0.197652951667    -0.231177180620    14.003074004430
         N           -3.053568905328     0.803473951667     0.238090819380    14.003074004430
         N           -4.672806905328    -0.814200048333     0.410715819380    14.003074004430
         C            2.691915394672     0.908623451667     0.591708519380    12.000000000000
         C            1.237447094672     1.105460951667     0.885930819380    12.000000000000
         C            2.652422094672    -0.394056048333    -0.287391180620    12.000000000000
         C            0.574561094672     0.681238951667    -0.416837180620    12.000000000000
         C            2.802701094672    -1.661781048333     0.520548819380    12.000000000000
         C           -1.126733905328    -1.117584048333    -0.310197180620    12.000000000000
         C           -1.744084905328     1.202126951667     0.080123819380    12.000000000000
         C           -2.416703905328    -1.506326048333    -0.106463180620    12.000000000000
         C           -3.361388905328    -0.474925048333     0.166589819380    12.000000000000
         H            3.334984094672     0.755019951667     1.448931819380     1.007825032230
         H            0.905310094672     0.442063951667     1.691567819380     1.007825032230
         H            0.985932094672     2.132301951667     1.156225819380     1.007825032230
         H            0.528057094672     1.511488951667    -1.126834180620     1.007825032230
         H            3.418095094672    -0.366048048333    -1.068547180620     1.007825032230
         H            1.971352094672    -1.734949048333     1.241301819380     1.007825032230
         H            3.746692094672    -1.611280048333     1.086367819380     1.007825032230
         H            3.090991094672     2.727495951667     0.202278119380     1.007825032230
         H           -0.310136905328    -1.790966048333    -0.545619180620     1.007825032230
         H            2.910633094672    -3.566837048333     0.117290819380     1.007825032230
         H           -2.702864905328    -2.550849048333    -0.155171180620     1.007825032230
         H           -5.028107905328    -1.639507048333    -0.058640180620     1.007825032230
         H           -5.298867905328    -0.015563048333     0.384179819380     1.007825032230

  Basis Set: AUG-CC-PVTZ
    Blend: AUG-CC-PVTZ
  Basis Set: (AUG-CC-PVTZ AUX)
    Blend: AUG-CC-PVTZ-JKFIT
	 Reference Energy          =    -811.4760032224314728 [Eh]
	 Singles Energy            =      -0.0000000000000000 [Eh]
	 Same-Spin Energy          =      -0.8298349584238507 [Eh]
	 Opposite-Spin Energy      =      -2.5257098519976866 [Eh]
	 Correlation Energy        =      -3.3555448104215371 [Eh]
	 Total Energy              =    -814.8315480328529929 [Eh]

	 ================> DF-SCS-MP2 Energies <==================
	-----------------------------------------------------------
	 SCS Same-Spin Scale       =       0.3333333333333333 [-]
	 SCS Opposite-Spin Scale   =       1.2000000000000000 [-]
	 SCS Same-Spin Energy      =      -0.2766116528079502 [Eh]
	 SCS Opposite-Spin Energy  =      -3.0308518223972238 [Eh]
	 SCS Correlation Energy    =      -3.3074634752051741 [Eh]
	 SCS Total Energy          =    -814.7834666976366407 [Eh]
	-----------------------------------------------------------

  Dipole Moment: [D]
     X:     1.0269      Y:    -4.6699      Z:     2.5305     Total:     5.4098

*** Psi4 exiting successfully. Buy a developer a beer!
