                               Psi4 1.3.2 release

  ==> Input File <==

--------------------------------------------------------------------------
#psi4
#
memory 32 gb

molecule  {
0 1
  O        1.3564789    -0.3803843    -0.9205703
  O        3.2020570     1.9012130    -0.2995130
  O        2.7994070    -2.7489470    -0.4002010
  O       -1.3621860     2.3740050     0.1547830
  N       -0.7982440     0.1994180    -0.2292560
  N       -3.0541720     0.8052390     0.2400120
  N       -4.6734100    -0.8124350     0.4126370
  C        2.7015950     0.8755540     0.5594740
  C        1.2368440     1.1072260     0.8878520
  C        2.6518190    -0.3922910    -0.2854700
  C        0.5739580     0.6830040    -0.4149160
  C        2.8020980    -1.6600160     0.5224700
  C       -1.1273370    -1.1158190    -0.3082760
  C       -1.7446880     1.2038920     0.0820450
  C       -2.4173070    -1.5045610    -0.1045420
  C       -3.3619920    -0.4731600     0.1685110
  H        3.3343810     0.7567850     1.4508530
  H        0.9047070     0.4438290     1.6934890
  H        0.9853290     2.1340670     1.1581470
  H        0.5274540     1.5132540    -1.1249130
  H        3.4242838    -0.3644478    -1.0599164
  H        1.9707490    -1.7331840     1.2432230
  H        3.7460890    -1.6095150     1.0882890
  H        3.1038510     2.7463240     0.1779830
  H       -0.3107400    -1.7892010    -0.5436980
  H        2.9100300    -3.5650720     0.1192120
  H       -2.7034680    -2.5490840    -0.1532500
  H       -5.0287110    -1.6377420    -0.0567190
  H       -5.2994710    -0.0137980     0.3861010
units angstrom
no_reorient  #important for SAPT in psi4, default
symmetry c1  #important for SAPT in psi4, default
}

set PROPERTIES_ORIGIN ["COM"]
properties('MP2/aug-cc-pvtz', properties = ['dipole'])
--------------------------------------------------------------------------

    Molecular point group: c1
  Charge       = 0
  Multiplicity = 1
  Basis Set: AUG-CC-PVTZ
    Blend: AUG-CC-PVTZ
  Basis Set: (AUG-CC-PVTZ AUX)
    Blend: AUG-CC-PVTZ-JKFIT

    Orbital Energies [Eh]
    ---------------------

    Doubly Occupied:

       1A    -20.577861     2A    -20.574374     3A    -20.572969
       4A    -20.502872     5A    -15.621417     6A    -15.588221
       7A    -15.540617     8A    -11.369679     9A    -11.344866
      10A    -11.330343    11A    -11.318074    12A    -11.300748
      13A    -11.296876    14A    -11.293601    15A    -11.236841
      16A    -11.236352    17A     -1.418590    18A     -1.382318
      19A     -1.373663    20A     -1.366267    21A     -1.292046
      22A     -1.261203    23A     -1.168934    24A     -1.078612
      25A     -1.069277    26A     -1.028205    27A     -0.926731
      28A     -0.897386    29A     -0.868928    30A     -0.830992
      31A     -0.806510    32A     -0.754087    33A     -0.739014
      34A     -0.721273    35A     -0.706742    36A     -0.693149
      37A     -0.689224    38A     -0.676364    39A     -0.656986
      40A     -0.637117    41A     -0.627480    42A     -0.618469
      43A     -0.604380    44A     -0.595243    45A     -0.588796
      46A     -0.572874    47A     -0.570086    48A     -0.544625
      49A     -0.532363    50A     -0.523659    51A     -0.510276
      52A     -0.485738    53A     -0.481876    54A     -0.468560
      55A     -0.461260    56A     -0.444296    57A     -0.437750
      58A     -0.416165    59A     -0.383567    60A     -0.334739

  @DF-RHF Final Energy:  -811.47960365438962

   => Energetics <=

    Nuclear Repulsion Energy =           1170.2455930474955039
    One-Electron Energy =               -3435.5473319883226395
    Two-Electron Energy =                1453.8221352864372875
    Total Energy =                       -811.4796036543896207
  Basis Set: (AUG-CC-PVTZ AUX)
    Blend: AUG-CC-PVTZ-RI
    Molecular point group: c1

    Geometry (in Angstrom), charge = 0, multiplicity = 1:

       Center              X                  Y                   Z               Mass
    ------------   -----------------  -----------------  -----------------  -----------------
         O            1.356842616508    -0.380357312634    -0.921394095413    15.994914619570
         O            3.202420716508     1.901239987366    -0.300336795413    15.994914619570
         O            2.799770716508    -2.748920012634    -0.401024795413    15.994914619570
         O           -1.361822283492     2.374031987366     0.153959204587    15.994914619570
         N           -0.797880283492     0.199444987366    -0.230079795413    14.003074004430
         N           -3.053808283492     0.805265987366     0.239188204587    14.003074004430
         N           -4.673046283492    -0.812408012634     0.411813204587    14.003074004430
         C            2.701958716508     0.875580987366     0.558650204587    12.000000000000
         C            1.237207716508     1.107252987366     0.887028204587    12.000000000000
         C            2.652182716508    -0.392264012634    -0.286293795413    12.000000000000
         C            0.574321716508     0.683030987366    -0.415739795413    12.000000000000
         C            2.802461716508    -1.659989012634     0.521646204587    12.000000000000
         C           -1.126973283492    -1.115792012634    -0.309099795413    12.000000000000
         C           -1.744324283492     1.203918987366     0.081221204587    12.000000000000
         C           -2.416943283492    -1.504534012634    -0.105365795413    12.000000000000
         C           -3.361628283492    -0.473133012634     0.167687204587    12.000000000000
         H            3.334744716508     0.756811987366     1.450029204587     1.007825032230
         H            0.905070716508     0.443855987366     1.692665204587     1.007825032230
         H            0.985692716508     2.134093987366     1.157323204587     1.007825032230
         H            0.527817716508     1.513280987366    -1.125736795413     1.007825032230
         H            3.424647516508    -0.364420812634    -1.060740195413     1.007825032230
         H            1.971112716508    -1.733157012634     1.242399204587     1.007825032230
         H            3.746452716508    -1.609488012634     1.087465204587     1.007825032230
         H            3.104214716508     2.746350987366     0.177159204587     1.007825032230
         H           -0.310376283492    -1.789174012634    -0.544521795413     1.007825032230
         H            2.910393716508    -3.565045012634     0.118388204587     1.007825032230
         H           -2.703104283492    -2.549057012634    -0.154073795413     1.007825032230
         H           -5.028347283492    -1.637715012634    -0.057542795413     1.007825032230
         H           -5.299107283492    -0.013771012634     0.385277204587     1.007825032230

  Basis Set: AUG-CC-PVTZ
    Blend: AUG-CC-PVTZ
  Basis Set: (AUG-CC-PVTZ AUX)
    Blend: AUG-CC-PVTZ-JKFIT
	 Reference Energy          =    -811.4796036543896207 [Eh]
	 Singles Energy            =      -0.0000000000000000 [Eh]
	 Same-Spin Energy          =      -0.8296357022785446 [Eh]
	 Opposite-Spin Energy      =      -2.5249532980070413 [Eh]
	 Correlation Energy        =      -3.3545890002855856 [Eh]
	 Total Energy              =    -814.8341926546752347 [Eh]

	 ================> DF-SCS-MP2 Energies <==================
	-----------------------------------------------------------
	 SCS Same-Spin Scale       =       0.3333333333333333 [-]
	 SCS Opposite-Spin Scale   =       1.2000000000000000 [-]
	 SCS Same-Spin Energy      =      -0.2765452340928481 [Eh]
	 SCS Opposite-Spin Energy  =      -3.0299439576084493 [Eh]
	 SCS Correlation Energy    =      -3.3064891917012975 [Eh]
	 SCS Total Energy          =    -814.7860928460909236 [Eh]
	-----------------------------------------------------------

  Dipole Moment: [D]
     X:     1.1013      Y:    -4.6865      Z:     2.4688     Total:     5.4103

*** Psi4 exiting successfully. Buy a developer a beer!
