                               Psi4 1.3.2 release

  ==> Input File <==

--------------------------------------------------------------------------
#psi4
#
memory 32 gb

molecule  {
0 1
  O        1.3620710    -0.3800110    -0.9318440
  O        3.2020570     1.9012130    -0.2995130
  O        2.7994070    -2.7489470    -0.4002010
  O       -1.3621860     2.3740050     0.1547830
  N       -0.7533800     0.1879471    -0.2393926
  N       -3.0541720     0.8052390     0.2400120
  N       -4.6734100    -0.8124350     0.4126370
  C        2.7015950     0.8755540     0.5594740
  C        1.2368440     1.1072260     0.8878520
  C        2.6518190    -0.3922910    -0.2854700
  C        0.5739580     0.6830040    -0.4149160
  C        2.8020980    -1.6600160     0.5224700
  C       -1.1273370    -1.1158190    -0.3082760
  C       -1.7446880     1.2038920     0.0820450
  C       -2.4173070    -1.5045610    -0.1045420
  C       -3.3619920    -0.4731600     0.1685110
  H        3.3343810     0.7567850     1.4508530
  H        0.9047070     0.4438290     1.6934890
  H        0.9853290     2.1340670     1.1581470
  H        0.5274540     1.5132540    -1.1249130
  H        3.4174920    -0.3642830    -1.0666260
  H        1.9707490    -1.7331840     1.2432230
  H        3.7460890    -1.6095150     1.0882890
  H        3.1038510     2.7463240     0.1779830
  H       -0.2874377    -1.7594084    -0.5450446
  H        2.9100300    -3.5650720     0.1192120
  H       -2.7034680    -2.5490840    -0.1532500
  H       -5.0287110    -1.6377420    -0.0567190
  H       -5.2994710    -0.0137980     0.3861010
units angstrom
no_reorient  #important for SAPT in psi4, default
symmetry c1  #important for SAPT in psi4, default
}

set PROPERTIES_ORIGIN ["COM"]
properties('MP2/aug-cc-pvtz', properties = ['dipole'])
--------------------------------------------------------------------------

    Molecular point group: c1
  Charge       = 0
  Multiplicity = 1
  Basis Set: AUG-CC-PVTZ
    Blend: AUG-CC-PVTZ
  Basis Set: (AUG-CC-PVTZ AUX)
    Blend: AUG-CC-PVTZ-JKFIT

    Orbital Energies [Eh]
    ---------------------

    Doubly Occupied:

       1A    -20.577098     2A    -20.573823     3A    -20.571117
       4A    -20.507344     5A    -15.620666     6A    -15.589605
       7A    -15.542870     8A    -11.374387     9A    -11.346761
      10A    -11.327435    11A    -11.318344    12A    -11.300149
      13A    -11.296169    14A    -11.291987    15A    -11.236684
      16A    -11.235787    17A     -1.417239    18A     -1.381271
      19A     -1.372959    20A     -1.365359    21A     -1.292388
      22A     -1.263140    23A     -1.171565    24A     -1.079440
      25A     -1.069228    26A     -1.025193    27A     -0.929269
      28A     -0.892682    29A     -0.868881    30A     -0.831827
      31A     -0.805481    32A     -0.754440    33A     -0.738547
      34A     -0.720395    35A     -0.707336    36A     -0.693154
      37A     -0.689301    38A     -0.675442    39A     -0.654433
      40A     -0.636824    41A     -0.626054    42A     -0.619034
      43A     -0.603554    44A     -0.595550    45A     -0.588175
      46A     -0.577378    47A     -0.567366    48A     -0.544776
      49A     -0.532322    50A     -0.524212    51A     -0.510177
      52A     -0.485272    53A     -0.483453    54A     -0.467841
      55A     -0.460540    56A     -0.445822    57A     -0.437420
      58A     -0.417031    59A     -0.384728    60A     -0.333774

  @DF-RHF Final Energy:  -811.47568864229982

   => Energetics <=

    Nuclear Repulsion Energy =           1170.1573905875445689
    One-Electron Energy =               -3435.3651620408918461
    Two-Electron Energy =                1453.7320828110473485
    Total Energy =                       -811.4756886422997013
  Basis Set: (AUG-CC-PVTZ AUX)
    Blend: AUG-CC-PVTZ-RI
    Molecular point group: c1

    Geometry (in Angstrom), charge = 0, multiplicity = 1:

       Center              X                  Y                   Z               Mass
    ------------   -----------------  -----------------  -----------------  -----------------
         O            1.359201122734    -0.379435926808    -0.931212937042    15.994914619570
         O            3.199187122734     1.901788073192    -0.298881937042    15.994914619570
         O            2.796537122734    -2.748371926808    -0.399569937042    15.994914619570
         O           -1.365055877266     2.374580073192     0.155414062958    15.994914619570
         N           -0.756249877266     0.188522173192    -0.238761537042    14.003074004430
         N           -3.057041877266     0.805814073192     0.240643062958    14.003074004430
         N           -4.676279877266    -0.811859926808     0.413268062958    14.003074004430
         C            2.698725122734     0.876129073192     0.560105062958    12.000000000000
         C            1.233974122734     1.107801073192     0.888483062958    12.000000000000
         C            2.648949122734    -0.391715926808    -0.284838937042    12.000000000000
         C            0.571088122734     0.683579073192    -0.414284937042    12.000000000000
         C            2.799228122734    -1.659440926808     0.523101062958    12.000000000000
         C           -1.130206877266    -1.115243926808    -0.307644937042    12.000000000000
         C           -1.747557877266     1.204467073192     0.082676062958    12.000000000000
         C           -2.420176877266    -1.503985926808    -0.103910937042    12.000000000000
         C           -3.364861877266    -0.472584926808     0.169142062958    12.000000000000
         H            3.331511122734     0.757360073192     1.451484062958     1.007825032230
         H            0.901837122734     0.444404073192     1.694120062958     1.007825032230
         H            0.982459122734     2.134642073192     1.158778062958     1.007825032230
         H            0.524584122734     1.513829073192    -1.124281937042     1.007825032230
         H            3.414622122734    -0.363707926808    -1.065994937042     1.007825032230
         H            1.967879122734    -1.732608926808     1.243854062958     1.007825032230
         H            3.743219122734    -1.608939926808     1.088920062958     1.007825032230
         H            3.100981122734     2.746899073192     0.178614062958     1.007825032230
         H           -0.290307577266    -1.758833326808    -0.544413537042     1.007825032230
         H            2.907160122734    -3.564496926808     0.119843062958     1.007825032230
         H           -2.706337877266    -2.548508926808    -0.152618937042     1.007825032230
         H           -5.031580877266    -1.637166926808    -0.056087937042     1.007825032230
         H           -5.302340877266    -0.013222926808     0.386732062958     1.007825032230

  Basis Set: AUG-CC-PVTZ
    Blend: AUG-CC-PVTZ
  Basis Set: (AUG-CC-PVTZ AUX)
    Blend: AUG-CC-PVTZ-JKFIT
	 Reference Energy          =    -811.4756886422998150 [Eh]
	 Singles Energy            =      -0.0000000000000000 [Eh]
	 Same-Spin Energy          =      -0.8300270183003287 [Eh]
	 Opposite-Spin Energy      =      -2.5258576929136094 [Eh]
	 Correlation Energy        =      -3.3558847112139381 [Eh]
	 Total Energy              =    -814.8315733535137042 [Eh]

	 ================> DF-SCS-MP2 Energies <==================
	-----------------------------------------------------------
	 SCS Same-Spin Scale       =       0.3333333333333333 [-]
	 SCS Opposite-Spin Scale   =       1.2000000000000000 [-]
	 SCS Same-Spin Energy      =      -0.2766756727667762 [Eh]
	 SCS Opposite-Spin Energy  =      -3.0310292314963312 [Eh]
	 SCS Correlation Energy    =      -3.3077049042631073 [Eh]
	 SCS Total Energy          =    -814.7833935465629338 [Eh]
	-----------------------------------------------------------

  Dipole Moment: [D]
     X:     0.9544      Y:    -4.5357      Z:     2.5187     Total:     5.2752

*** Psi4 exiting successfully. Buy a developer a beer!
