                               Psi4 1.3.2 release

  ==> Input File <==

--------------------------------------------------------------------------
#psi4
#
memory 32 gb

molecule  {
0 1
  O        1.3620710    -0.3800110    -0.9318440
  O        3.2020570     1.9012130    -0.2995130
  O        2.7994070    -2.7489470    -0.4002010
  O       -1.3621860     2.3740050     0.1547830
  N       -0.7869717     0.1966907    -0.2316960
  N       -3.0541720     0.8052390     0.2400120
  N       -4.6734100    -0.8124350     0.4126370
  C        2.7015950     0.8755540     0.5594740
  C        1.2368440     1.1072260     0.8878520
  C        2.6518190    -0.3922910    -0.2854700
  C        0.5739580     0.6830040    -0.4149160
  C        2.8020980    -1.6600160     0.5224700
  C       -1.1273370    -1.1158190    -0.3082760
  C       -1.7446880     1.2038920     0.0820450
  C       -2.4141310    -1.5158738    -0.1063653
  C       -3.3619920    -0.4731600     0.1685110
  H        3.3343810     0.7567850     1.4508530
  H        0.9047070     0.4438290     1.6934890
  H        0.9853290     2.1340670     1.1581470
  H        0.5274540     1.5132540    -1.1249130
  H        3.4174920    -0.3642830    -1.0666260
  H        1.9707490    -1.7331840     1.2432230
  H        3.7460890    -1.6095150     1.0882890
  H        3.1038510     2.7463240     0.1779830
  H       -0.3107400    -1.7892010    -0.5436980
  H        2.9100300    -3.5650720     0.1192120
  H       -2.7034680    -2.5490840    -0.1532500
  H       -5.0287110    -1.6377420    -0.0567190
  H       -5.2994710    -0.0137980     0.3861010
units angstrom
no_reorient  #important for SAPT in psi4, default
symmetry c1  #important for SAPT in psi4, default
}

set PROPERTIES_ORIGIN ["COM"]
properties('MP2/aug-cc-pvtz', properties = ['dipole'])
--------------------------------------------------------------------------

    Molecular point group: c1
  Charge       = 0
  Multiplicity = 1
  Basis Set: AUG-CC-PVTZ
    Blend: AUG-CC-PVTZ
  Basis Set: (AUG-CC-PVTZ AUX)
    Blend: AUG-CC-PVTZ-JKFIT

    Orbital Energies [Eh]
    ---------------------

    Doubly Occupied:

       1A    -20.577391     2A    -20.574084     3A    -20.572098
       4A    -20.504526     5A    -15.621307     6A    -15.589019
       7A    -15.541755     8A    -11.371368     9A    -11.346600
      10A    -11.329773    11A    -11.317724    12A    -11.300517
      13A    -11.296481    14A    -11.292579    15A    -11.236998
      16A    -11.236378    17A     -1.416473    18A     -1.382141
      19A     -1.373244    20A     -1.365461    21A     -1.291925
      22A     -1.261675    23A     -1.169893    24A     -1.078790
      25A     -1.068677    26A     -1.026929    27A     -0.926807
      28A     -0.895139    29A     -0.869092    30A     -0.831284
      31A     -0.805901    32A     -0.753748    33A     -0.738930
      34A     -0.720651    35A     -0.706666    36A     -0.692718
      37A     -0.689239    38A     -0.675763    39A     -0.656850
      40A     -0.638305    41A     -0.626973    42A     -0.618090
      43A     -0.603997    44A     -0.594430    45A     -0.588217
      46A     -0.574764    47A     -0.568204    48A     -0.544631
      49A     -0.532323    50A     -0.523820    51A     -0.510183
      52A     -0.485523    53A     -0.482465    54A     -0.468144
      55A     -0.460852    56A     -0.444989    57A     -0.437650
      58A     -0.416597    59A     -0.383975    60A     -0.334791

  @DF-RHF Final Energy:  -811.47917450764623

   => Energetics <=

    Nuclear Repulsion Energy =           1169.7511060553947573
    One-Electron Energy =               -3434.5695346543852793
    Two-Electron Energy =                1453.3392540913441735
    Total Energy =                       -811.4791745076463485
  Basis Set: (AUG-CC-PVTZ AUX)
    Blend: AUG-CC-PVTZ-RI
    Molecular point group: c1

    Geometry (in Angstrom), charge = 0, multiplicity = 1:

       Center              X                  Y                   Z               Mass
    ------------   -----------------  -----------------  -----------------  -----------------
         O            1.361208073662    -0.379245068846    -0.931597160758    15.994914619570
         O            3.201194073662     1.901978931154    -0.299266160758    15.994914619570
         O            2.798544073662    -2.748181068846    -0.399954160758    15.994914619570
         O           -1.363048926338     2.374770931154     0.155029839242    15.994914619570
         N           -0.787834626338     0.197456631154    -0.231449160758    14.003074004430
         N           -3.055034926338     0.806004931154     0.240258839242    14.003074004430
         N           -4.674272926338    -0.811669068846     0.412883839242    14.003074004430
         C            2.700732073662     0.876319931154     0.559720839242    12.000000000000
         C            1.235981073662     1.107991931154     0.888098839242    12.000000000000
         C            2.650956073662    -0.391525068846    -0.285223160758    12.000000000000
         C            0.573095073662     0.683769931154    -0.414669160758    12.000000000000
         C            2.801235073662    -1.659250068846     0.522716839242    12.000000000000
         C           -1.128199926338    -1.115053068846    -0.308029160758    12.000000000000
         C           -1.745550926338     1.204657931154     0.082291839242    12.000000000000
         C           -2.414993926338    -1.515107868846    -0.106118460758    12.000000000000
         C           -3.362854926338    -0.472394068846     0.168757839242    12.000000000000
         H            3.333518073662     0.757550931154     1.451099839242     1.007825032230
         H            0.903844073662     0.444594931154     1.693735839242     1.007825032230
         H            0.984466073662     2.134832931154     1.158393839242     1.007825032230
         H            0.526591073662     1.514019931154    -1.124666160758     1.007825032230
         H            3.416629073662    -0.363517068846    -1.066379160758     1.007825032230
         H            1.969886073662    -1.732418068846     1.243469839242     1.007825032230
         H            3.745226073662    -1.608749068846     1.088535839242     1.007825032230
         H            3.102988073662     2.747089931154     0.178229839242     1.007825032230
         H           -0.311602926338    -1.788435068846    -0.543451160758     1.007825032230
         H            2.909167073662    -3.564306068846     0.119458839242     1.007825032230
         H           -2.704330926338    -2.548318068846    -0.153003160758     1.007825032230
         H           -5.029573926338    -1.636976068846    -0.056472160758     1.007825032230
         H           -5.300333926338    -0.013032068846     0.386347839242     1.007825032230

  Basis Set: AUG-CC-PVTZ
    Blend: AUG-CC-PVTZ
  Basis Set: (AUG-CC-PVTZ AUX)
    Blend: AUG-CC-PVTZ-JKFIT
	 Reference Energy          =    -811.4791745076462348 [Eh]
	 Singles Energy            =      -0.0000000000000000 [Eh]
	 Same-Spin Energy          =      -0.8295222231244830 [Eh]
	 Opposite-Spin Energy      =      -2.5251086451383866 [Eh]
	 Correlation Energy        =      -3.3546308682628698 [Eh]
	 Total Energy              =    -814.8338053759091508 [Eh]

	 ================> DF-SCS-MP2 Energies <==================
	-----------------------------------------------------------
	 SCS Same-Spin Scale       =       0.3333333333333333 [-]
	 SCS Opposite-Spin Scale   =       1.2000000000000000 [-]
	 SCS Same-Spin Energy      =      -0.2765074077081610 [Eh]
	 SCS Opposite-Spin Energy  =      -3.0301303741660637 [Eh]
	 SCS Correlation Energy    =      -3.3066377818742247 [Eh]
	 SCS Total Energy          =    -814.7858122895204360 [Eh]
	-----------------------------------------------------------

  Dipole Moment: [D]
     X:     1.0067      Y:    -4.6354      Z:     2.5026     Total:     5.3632

*** Psi4 exiting successfully. Buy a developer a beer!
