                               Psi4 1.3.2 release

  ==> Input File <==

--------------------------------------------------------------------------
#psi4
#
memory 32 gb

molecule  {
0 1
  O        1.3620710    -0.3800110    -0.9318440
  O        3.2020570     1.9012130    -0.2995130
  O        2.7994070    -2.7489470    -0.4002010
  O       -1.3621860     2.3740050     0.1547830
  N       -0.7982440     0.1994180    -0.2292560
  N       -3.0541720     0.8052390     0.2400120
  N       -4.6734100    -0.8124350     0.4126370
  C        2.7015950     0.8755540     0.5594740
  C        1.2368440     1.1072260     0.8878520
  C        2.6518190    -0.3922910    -0.2854700
  C        0.5739580     0.6830040    -0.4149160
  C        2.8020980    -1.6600160     0.5224700
  C       -1.1515691    -1.2126640    -0.3140945
  C       -1.7446880     1.2038920     0.0820450
  C       -2.4173070    -1.5045610    -0.1045420
  C       -3.3619920    -0.4731600     0.1685110
  H        3.3343810     0.7567850     1.4508530
  H        0.9047070     0.4438290     1.6934890
  H        0.9853290     2.1340670     1.1581470
  H        0.5274540     1.5132540    -1.1249130
  H        3.4174920    -0.3642830    -1.0666260
  H        1.9707490    -1.7331840     1.2432230
  H        3.7460890    -1.6095150     1.0882890
  H        3.1038510     2.7463240     0.1779830
  H       -0.3107400    -1.7892010    -0.5436980
  H        2.9100300    -3.5650720     0.1192120
  H       -2.7034680    -2.5490840    -0.1532500
  H       -5.0287110    -1.6377420    -0.0567190
  H       -5.2994710    -0.0137980     0.3861010
units angstrom
no_reorient  #important for SAPT in psi4, default
symmetry c1  #important for SAPT in psi4, default
}

set PROPERTIES_ORIGIN ["COM"]
properties('MP2/aug-cc-pvtz', properties = ['dipole'])
--------------------------------------------------------------------------

    Molecular point group: c1
  Charge       = 0
  Multiplicity = 1
  Basis Set: AUG-CC-PVTZ
    Blend: AUG-CC-PVTZ
  Basis Set: (AUG-CC-PVTZ AUX)
    Blend: AUG-CC-PVTZ-JKFIT

    Orbital Energies [Eh]
    ---------------------

    Doubly Occupied:

       1A    -20.576376     2A    -20.571272     3A    -20.568804
       4A    -20.499851     5A    -15.609836     6A    -15.594495
       7A    -15.544625     8A    -11.366558     9A    -11.352240
      10A    -11.323945    11A    -11.316710    12A    -11.297305
      13A    -11.294899    14A    -11.289978    15A    -11.243707
      16A    -11.231619    17A     -1.410608    18A     -1.376326
      19A     -1.371523    20A     -1.362675    21A     -1.290982
      22A     -1.242063    23A     -1.169532    24A     -1.086049
      25A     -1.069537    26A     -1.025238    27A     -0.922434
      28A     -0.895503    29A     -0.864977    30A     -0.826223
      31A     -0.804279    32A     -0.753790    33A     -0.731105
      34A     -0.718422    35A     -0.710688    36A     -0.690489
      37A     -0.685944    38A     -0.677392    39A     -0.651882
      40A     -0.635714    41A     -0.627633    42A     -0.619873
      43A     -0.609694    44A     -0.597796    45A     -0.586525
      46A     -0.566455    47A     -0.562511    48A     -0.542308
      49A     -0.531611    50A     -0.517715    51A     -0.507868
      52A     -0.482039    53A     -0.475166    54A     -0.466444
      55A     -0.457136    56A     -0.443687    57A     -0.436949
      58A     -0.414961    59A     -0.382944    60A     -0.345334

  @DF-RHF Final Energy:  -811.46737470272058

   => Energetics <=

    Nuclear Repulsion Energy =           1168.0523154693028118
    One-Electron Energy =               -3431.3788909603895263
    Two-Electron Energy =                1451.8592007883660244
    Total Energy =                       -811.4673747027206900
  Basis Set: (AUG-CC-PVTZ AUX)
    Blend: AUG-CC-PVTZ-RI
    Molecular point group: c1

    Geometry (in Angstrom), charge = 0, multiplicity = 1:

       Center              X                  Y                   Z               Mass
    ------------   -----------------  -----------------  -----------------  -----------------
         O            1.363351465059    -0.374893520211    -0.931536502593    15.994914619570
         O            3.203337465059     1.906330479789    -0.299205502593    15.994914619570
         O            2.800687465059    -2.743829520211    -0.399893502593    15.994914619570
         O           -1.360905534941     2.379122479789     0.155090497407    15.994914619570
         N           -0.796963534941     0.204535479789    -0.228948502593    14.003074004430
         N           -3.052891534941     0.810356479789     0.240319497407    14.003074004430
         N           -4.672129534941    -0.807317520211     0.412944497407    14.003074004430
         C            2.702875465059     0.880671479789     0.559781497407    12.000000000000
         C            1.238124465059     1.112343479789     0.888159497407    12.000000000000
         C            2.653099465059    -0.387173520211    -0.285162502593    12.000000000000
         C            0.575238465059     0.688121479789    -0.414608502593    12.000000000000
         C            2.803378465059    -1.654898520211     0.522777497407    12.000000000000
         C           -1.150288634941    -1.207546520211    -0.313787002593    12.000000000000
         C           -1.743407534941     1.209009479789     0.082352497407    12.000000000000
         C           -2.416026534941    -1.499443520211    -0.104234502593    12.000000000000
         C           -3.360711534941    -0.468042520211     0.168818497407    12.000000000000
         H            3.335661465059     0.761902479789     1.451160497407     1.007825032230
         H            0.905987465059     0.448946479789     1.693796497407     1.007825032230
         H            0.986609465059     2.139184479789     1.158454497407     1.007825032230
         H            0.528734465059     1.518371479789    -1.124605502593     1.007825032230
         H            3.418772465059    -0.359165520211    -1.066318502593     1.007825032230
         H            1.972029465059    -1.728066520211     1.243530497407     1.007825032230
         H            3.747369465059    -1.604397520211     1.088596497407     1.007825032230
         H            3.105131465059     2.751441479789     0.178290497407     1.007825032230
         H           -0.309459534941    -1.784083520211    -0.543390502593     1.007825032230
         H            2.911310465059    -3.559954520211     0.119519497407     1.007825032230
         H           -2.702187534941    -2.543966520211    -0.152942502593     1.007825032230
         H           -5.027430534941    -1.632624520211    -0.056411502593     1.007825032230
         H           -5.298190534941    -0.008680520211     0.386408497407     1.007825032230

  Basis Set: AUG-CC-PVTZ
    Blend: AUG-CC-PVTZ
  Basis Set: (AUG-CC-PVTZ AUX)
    Blend: AUG-CC-PVTZ-JKFIT
	 Reference Energy          =    -811.4673747027205764 [Eh]
	 Singles Energy            =      -0.0000000000000000 [Eh]
	 Same-Spin Energy          =      -0.8291008479378881 [Eh]
	 Opposite-Spin Energy      =      -2.5262416174988083 [Eh]
	 Correlation Energy        =      -3.3553424654366966 [Eh]
	 Total Energy              =    -814.8227171681572827 [Eh]

	 ================> DF-SCS-MP2 Energies <==================
	-----------------------------------------------------------
	 SCS Same-Spin Scale       =       0.3333333333333333 [-]
	 SCS Opposite-Spin Scale   =       1.2000000000000000 [-]
	 SCS Same-Spin Energy      =      -0.2763669493126293 [Eh]
	 SCS Opposite-Spin Energy  =      -3.0314899409985698 [Eh]
	 SCS Correlation Energy    =      -3.3078568903111991 [Eh]
	 SCS Total Energy          =    -814.7752315930317764 [Eh]
	-----------------------------------------------------------

  Dipole Moment: [D]
     X:     0.6081      Y:    -4.9426      Z:     2.5132     Total:     5.5781

*** Psi4 exiting successfully. Buy a developer a beer!
