                               Psi4 1.3.2 release

  ==> Input File <==

--------------------------------------------------------------------------
#psi4
#
memory 32 gb

molecule  {
0 1
  O        1.3620710    -0.3800110    -0.9318440
  O        3.2020570     1.9012130    -0.2995130
  O        2.7994070    -2.7489470    -0.4002010
  O       -1.3621860     2.3740050     0.1547830
  N       -0.7982440     0.1994180    -0.2292560
  N       -3.0541720     0.8052390     0.2400120
  N       -4.6734100    -0.8124350     0.4126370
  C        2.7015950     0.8755540     0.5594740
  C        1.2368440     1.1072260     0.8878520
  C        2.6518190    -0.3922910    -0.2854700
  C        0.5739580     0.6830040    -0.4149160
  C        2.8020980    -1.6600160     0.5224700
  C       -1.1273370    -1.1158190    -0.3082760
  C       -1.7446880     1.2038920     0.0820450
  C       -2.4173070    -1.5045610    -0.1045420
  C       -3.3619920    -0.4731600     0.1685110
  H        3.3343810     0.7567850     1.4508530
  H        0.9047070     0.4438290     1.6934890
  H        0.9853290     2.1340670     1.1581470
  H        0.5274540     1.5132540    -1.1249130
  H        3.4174920    -0.3642830    -1.0666260
  H        1.9707490    -1.7331840     1.2432230
  H        3.7460890    -1.6095150     1.0882890
  H        3.1038510     2.7463240     0.1779830
  H       -0.3107400    -1.7892010    -0.5436980
  H        2.9100300    -3.5650720     0.1192120
  H       -2.7562600    -2.7417813    -0.1622358
  H       -5.0287110    -1.6377420    -0.0567190
  H       -5.2994710    -0.0137980     0.3861010
units angstrom
no_reorient  #important for SAPT in psi4, default
symmetry c1  #important for SAPT in psi4, default
}

set PROPERTIES_ORIGIN ["COM"]
properties('MP2/aug-cc-pvtz', properties = ['dipole'])
--------------------------------------------------------------------------

    Molecular point group: c1
  Charge       = 0
  Multiplicity = 1
  Basis Set: AUG-CC-PVTZ
    Blend: AUG-CC-PVTZ
  Basis Set: (AUG-CC-PVTZ AUX)
    Blend: AUG-CC-PVTZ-JKFIT

    Orbital Energies [Eh]
    ---------------------

    Doubly Occupied:

       1A    -20.577833     2A    -20.574625     3A    -20.573313
       4A    -20.503805     5A    -15.622920     6A    -15.588195
       7A    -15.542465     8A    -11.370868     9A    -11.347340
      10A    -11.331438    11A    -11.320075    12A    -11.301173
      13A    -11.297019    14A    -11.293353    15A    -11.257755
      16A    -11.237217    17A     -1.417160    18A     -1.383206
      19A     -1.373738    20A     -1.366048    21A     -1.293024
      22A     -1.262161    23A     -1.169837    24A     -1.078466
      25A     -1.067377    26A     -1.026445    27A     -0.926601
      28A     -0.896604    29A     -0.868609    30A     -0.829050
      31A     -0.806717    32A     -0.754962    33A     -0.733882
      34A     -0.720216    35A     -0.707254    36A     -0.692961
      37A     -0.689303    38A     -0.675632    39A     -0.653649
      40A     -0.629059    41A     -0.626638    42A     -0.609418
      43A     -0.603841    44A     -0.594481    45A     -0.586269
      46A     -0.569160    47A     -0.559170    48A     -0.545063
      49A     -0.532788    50A     -0.522291    51A     -0.510793
      52A     -0.486220    53A     -0.482944    54A     -0.468678
      55A     -0.461397    56A     -0.444828    57A     -0.437780
      58A     -0.416791    59A     -0.384444    60A     -0.336010

  @DF-RHF Final Energy:  -811.45669617473379

   => Energetics <=

    Nuclear Repulsion Energy =           1168.8868086380693967
    One-Electron Energy =               -3432.8063008693984557
    Two-Electron Energy =                1452.4627960565951525
    Total Energy =                       -811.4566961747339064
  Basis Set: (AUG-CC-PVTZ AUX)
    Blend: AUG-CC-PVTZ-RI
    Molecular point group: c1

    Geometry (in Angstrom), charge = 0, multiplicity = 1:

       Center              X                  Y                   Z               Mass
    ------------   -----------------  -----------------  -----------------  -----------------
         O            1.362305274267    -0.379155849044    -0.931804086915    15.994914619570
         O            3.202291274267     1.902068150956    -0.299473086915    15.994914619570
         O            2.799641274267    -2.748091849044    -0.400161086915    15.994914619570
         O           -1.361951725733     2.374860150956     0.154822913085    15.994914619570
         N           -0.798009725733     0.200273150956    -0.229216086915    14.003074004430
         N           -3.053937725733     0.806094150956     0.240051913085    14.003074004430
         N           -4.673175725733    -0.811579849044     0.412676913085    14.003074004430
         C            2.701829274267     0.876409150956     0.559513913085    12.000000000000
         C            1.237078274267     1.108081150956     0.887891913085    12.000000000000
         C            2.652053274267    -0.391435849044    -0.285430086915    12.000000000000
         C            0.574192274267     0.683859150956    -0.414876086915    12.000000000000
         C            2.802332274267    -1.659160849044     0.522509913085    12.000000000000
         C           -1.127102725733    -1.114963849044    -0.308236086915    12.000000000000
         C           -1.744453725733     1.204747150956     0.082084913085    12.000000000000
         C           -2.417072725733    -1.503705849044    -0.104502086915    12.000000000000
         C           -3.361757725733    -0.472304849044     0.168550913085    12.000000000000
         H            3.334615274267     0.757640150956     1.450892913085     1.007825032230
         H            0.904941274267     0.444684150956     1.693528913085     1.007825032230
         H            0.985563274267     2.134922150956     1.158186913085     1.007825032230
         H            0.527688274267     1.514109150956    -1.124873086915     1.007825032230
         H            3.417726274267    -0.363427849044    -1.066586086915     1.007825032230
         H            1.970983274267    -1.732328849044     1.243262913085     1.007825032230
         H            3.746323274267    -1.608659849044     1.088328913085     1.007825032230
         H            3.104085274267     2.747179150956     0.178022913085     1.007825032230
         H           -0.310505725733    -1.788345849044    -0.543658086915     1.007825032230
         H            2.910264274267    -3.564216849044     0.119251913085     1.007825032230
         H           -2.756025725733    -2.740926149044    -0.162195886915     1.007825032230
         H           -5.028476725733    -1.636886849044    -0.056679086915     1.007825032230
         H           -5.299236725733    -0.012942849044     0.386140913085     1.007825032230

  Basis Set: AUG-CC-PVTZ
    Blend: AUG-CC-PVTZ
  Basis Set: (AUG-CC-PVTZ AUX)
    Blend: AUG-CC-PVTZ-JKFIT
	 Reference Energy          =    -811.4566961747337928 [Eh]
	 Singles Energy            =      -0.0000000000000000 [Eh]
	 Same-Spin Energy          =      -0.8301527048931461 [Eh]
	 Opposite-Spin Energy      =      -2.5272653556945981 [Eh]
	 Correlation Energy        =      -3.3574180605877442 [Eh]
	 Total Energy              =    -814.8141142353215400 [Eh]

	 ================> DF-SCS-MP2 Energies <==================
	-----------------------------------------------------------
	 SCS Same-Spin Scale       =       0.3333333333333333 [-]
	 SCS Opposite-Spin Scale   =       1.2000000000000000 [-]
	 SCS Same-Spin Energy      =      -0.2767175682977153 [Eh]
	 SCS Opposite-Spin Energy  =      -3.0327184268335174 [Eh]
	 SCS Correlation Energy    =      -3.3094359951312327 [Eh]
	 SCS Total Energy          =    -814.7661321698650454 [Eh]
	-----------------------------------------------------------

  Dipole Moment: [D]
     X:     1.0893      Y:    -4.6264      Z:     2.4983     Total:     5.3695

*** Psi4 exiting successfully. Buy a developer a beer!
