                               Psi4 1.3.2 release

  ==> Input File <==

--------------------------------------------------------------------------
#psi4
#
memory 32 gb

molecule  {
0 1
  O        1.3620710    -0.3800110    -0.9318440
  O        3.2020570     1.9012130    -0.2995130
  O        2.7994070    -2.7489470    -0.4002010
  O       -1.3621860     2.3740050     0.1547830
  N       -0.7982440     0.1994180    -0.2292560
  N       -3.0541720     0.8052390     0.2400120
  N       -4.6734100    -0.8124350     0.4126370
  C        2.7015950     0.8755540     0.5594740
  C        1.2368440     1.1072260     0.8878520
  C        2.6518190    -0.3922910    -0.2854700
  C        0.5739580     0.6830040    -0.4149160
  C        2.7918416    -1.6564101     0.5299281
  C       -1.1273370    -1.1158190    -0.3082760
  C       -1.7446880     1.2038920     0.0820450
  C       -2.4173070    -1.5045610    -0.1045420
  C       -3.3619920    -0.4731600     0.1685110
  H        3.3343810     0.7567850     1.4508530
  H        0.9047070     0.4438290     1.6934890
  H        0.9853290     2.1340670     1.1581470
  H        0.5274540     1.5132540    -1.1249130
  H        3.4140904    -0.3558712    -1.0696002
  H        1.9707490    -1.7331840     1.2432230
  H        3.7460890    -1.6095150     1.0882890
  H        3.1038510     2.7463240     0.1779830
  H       -0.3107400    -1.7892010    -0.5436980
  H        2.9100300    -3.5650720     0.1192120
  H       -2.7034680    -2.5490840    -0.1532500
  H       -5.0287110    -1.6377420    -0.0567190
  H       -5.2994710    -0.0137980     0.3861010
units angstrom
no_reorient  #important for SAPT in psi4, default
symmetry c1  #important for SAPT in psi4, default
}

set PROPERTIES_ORIGIN ["COM"]
properties('MP2/aug-cc-pvtz', properties = ['dipole'])
--------------------------------------------------------------------------

    Molecular point group: c1
  Charge       = 0
  Multiplicity = 1
  Basis Set: AUG-CC-PVTZ
    Blend: AUG-CC-PVTZ
  Basis Set: (AUG-CC-PVTZ AUX)
    Blend: AUG-CC-PVTZ-JKFIT

    Orbital Energies [Eh]
    ---------------------

    Doubly Occupied:

       1A    -20.577019     2A    -20.574435     3A    -20.572713
       4A    -20.503101     5A    -15.621784     6A    -15.588404
       7A    -15.540855     8A    -11.369946     9A    -11.345092
      10A    -11.330747    11A    -11.318353    12A    -11.300755
      13A    -11.296760    14A    -11.293225    15A    -11.237093
      16A    -11.236901    17A     -1.416633    18A     -1.382310
      19A     -1.371925    20A     -1.364715    21A     -1.292281
      22A     -1.261480    23A     -1.169163    24A     -1.079110
      25A     -1.069122    26A     -1.028018    27A     -0.927049
      28A     -0.897704    29A     -0.869190    30A     -0.830854
      31A     -0.806776    32A     -0.754303    33A     -0.738733
      34A     -0.720282    35A     -0.706777    36A     -0.691661
      37A     -0.689176    38A     -0.675962    39A     -0.656891
      40A     -0.636955    41A     -0.627660    42A     -0.618515
      43A     -0.604153    44A     -0.595164    45A     -0.588206
      46A     -0.572801    47A     -0.568449    48A     -0.544842
      49A     -0.532555    50A     -0.523629    51A     -0.510658
      52A     -0.485679    53A     -0.482135    54A     -0.469505
      55A     -0.461668    56A     -0.444538    57A     -0.437927
      58A     -0.416410    59A     -0.383788    60A     -0.334993

  @DF-RHF Final Energy:  -811.47903794456602

   => Energetics <=

    Nuclear Repulsion Energy =           1169.9905903672158729
    One-Electron Energy =               -3435.0442080606053423
    Two-Electron Energy =                1453.5745797488232256
    Total Energy =                       -811.4790379445660164
  Basis Set: (AUG-CC-PVTZ AUX)
    Blend: AUG-CC-PVTZ-RI
    Molecular point group: c1

    Geometry (in Angstrom), charge = 0, multiplicity = 1:

       Center              X                  Y                   Z               Mass
    ------------   -----------------  -----------------  -----------------  -----------------
         O            1.362628052562    -0.380238912715    -0.932224869803    15.994914619570
         O            3.202614052562     1.900985087285    -0.299893869803    15.994914619570
         O            2.799964052562    -2.749174912715    -0.400581869803    15.994914619570
         O           -1.361628947438     2.373777087285     0.154402130197    15.994914619570
         N           -0.797686947438     0.199190087285    -0.229636869803    14.003074004430
         N           -3.053614947438     0.805011087285     0.239631130197    14.003074004430
         N           -4.672852947438    -0.812662912715     0.412256130197    14.003074004430
         C            2.702152052562     0.875326087285     0.559093130197    12.000000000000
         C            1.237401052562     1.106998087285     0.887471130197    12.000000000000
         C            2.652376052562    -0.392518912715    -0.285850869803    12.000000000000
         C            0.574515052562     0.682776087285    -0.415296869803    12.000000000000
         C            2.792398652562    -1.656638012715     0.529547230197    12.000000000000
         C           -1.126779947438    -1.116046912715    -0.308656869803    12.000000000000
         C           -1.744130947438     1.203664087285     0.081664130197    12.000000000000
         C           -2.416749947438    -1.504788912715    -0.104922869803    12.000000000000
         C           -3.361434947438    -0.473387912715     0.168130130197    12.000000000000
         H            3.334938052562     0.756557087285     1.450472130197     1.007825032230
         H            0.905264052562     0.443601087285     1.693108130197     1.007825032230
         H            0.985886052562     2.133839087285     1.157766130197     1.007825032230
         H            0.528011052562     1.513026087285    -1.125293869803     1.007825032230
         H            3.414647452562    -0.356099112715    -1.069981069803     1.007825032230
         H            1.971306052562    -1.733411912715     1.242842130197     1.007825032230
         H            3.746646052562    -1.609742912715     1.087908130197     1.007825032230
         H            3.104408052562     2.746096087285     0.177602130197     1.007825032230
         H           -0.310182947438    -1.789428912715    -0.544078869803     1.007825032230
         H            2.910587052562    -3.565299912715     0.118831130197     1.007825032230
         H           -2.702910947438    -2.549311912715    -0.153630869803     1.007825032230
         H           -5.028153947438    -1.637969912715    -0.057099869803     1.007825032230
         H           -5.298913947438    -0.014025912715     0.385720130197     1.007825032230

  Basis Set: AUG-CC-PVTZ
    Blend: AUG-CC-PVTZ
  Basis Set: (AUG-CC-PVTZ AUX)
    Blend: AUG-CC-PVTZ-JKFIT
	 Reference Energy          =    -811.4790379445660164 [Eh]
	 Singles Energy            =      -0.0000000000000000 [Eh]
	 Same-Spin Energy          =      -0.8296806507724570 [Eh]
	 Opposite-Spin Energy      =      -2.5253098523103672 [Eh]
	 Correlation Energy        =      -3.3549905030828242 [Eh]
	 Total Energy              =    -814.8340284476488478 [Eh]

	 ================> DF-SCS-MP2 Energies <==================
	-----------------------------------------------------------
	 SCS Same-Spin Scale       =       0.3333333333333333 [-]
	 SCS Opposite-Spin Scale   =       1.2000000000000000 [-]
	 SCS Same-Spin Energy      =      -0.2765602169241523 [Eh]
	 SCS Opposite-Spin Energy  =      -3.0303718227724405 [Eh]
	 SCS Correlation Energy    =      -3.3069320396965929 [Eh]
	 SCS Total Energy          =    -814.7859699842625787 [Eh]
	-----------------------------------------------------------

  Dipole Moment: [D]
     X:     1.0577      Y:    -4.6539      Z:     2.5048     Total:     5.3900

*** Psi4 exiting successfully. Buy a developer a beer!
