                               Psi4 1.3.2 release

  ==> Input File <==

--------------------------------------------------------------------------
#psi4
#
memory 32 gb

molecule  {
0 1
  O        1.3620710    -0.3800110    -0.9318440
  O        3.2020570     1.9012130    -0.2995130
  O        2.7994070    -2.7489470    -0.4002010
  O       -1.3621860     2.3740050     0.1547830
  N       -0.7982440     0.1994180    -0.2292560
  N       -3.0541720     0.8052390     0.2400120
  N       -4.6734100    -0.8124350     0.4126370
  C        2.7015950     0.8755540     0.5594740
  C        1.2368440     1.1072260     0.8878520
  C        2.6518190    -0.3922910    -0.2854700
  C        0.5739580     0.6830040    -0.4149160
  C        2.8020980    -1.6600160     0.5224700
  C       -1.1273370    -1.1158190    -0.3082760
  C       -1.7446880     1.2038920     0.0820450
  C       -2.4173070    -1.5045610    -0.1045420
  C       -3.3619920    -0.4731600     0.1685110
  H        3.3343810     0.7567850     1.4508530
  H        0.9047070     0.4438290     1.6934890
  H        0.9853290     2.1340670     1.1581470
  H        0.5274540     1.5132540    -1.1249130
  H        3.4174920    -0.3642830    -1.0666260
  H        1.9707490    -1.7331840     1.2432230
  H        3.7460890    -1.6095150     1.0882890
  H        3.1038510     2.7463240     0.1779830
  H       -0.1601175    -1.9134073    -0.5871219
  H        2.9100300    -3.5650720     0.1192120
  H       -2.7034680    -2.5490840    -0.1532500
  H       -5.0287110    -1.6377420    -0.0567190
  H       -5.2994710    -0.0137980     0.3861010
units angstrom
no_reorient  #important for SAPT in psi4, default
symmetry c1  #important for SAPT in psi4, default
}

set PROPERTIES_ORIGIN ["COM"]
properties('MP2/aug-cc-pvtz', properties = ['dipole'])
--------------------------------------------------------------------------

    Molecular point group: c1
  Charge       = 0
  Multiplicity = 1
  Basis Set: AUG-CC-PVTZ
    Blend: AUG-CC-PVTZ
  Basis Set: (AUG-CC-PVTZ AUX)
    Blend: AUG-CC-PVTZ-JKFIT

    Orbital Energies [Eh]
    ---------------------

    Doubly Occupied:

       1A    -20.579072     2A    -20.574521     3A    -20.573009
       4A    -20.503326     5A    -15.622596     6A    -15.588070
       7A    -15.540287     8A    -11.370351     9A    -11.344844
      10A    -11.333956    11A    -11.330959    12A    -11.301089
      13A    -11.297468    14A    -11.293465    15A    -11.236873
      16A    -11.236426    17A     -1.416911    18A     -1.382687
      19A     -1.374477    20A     -1.366196    21A     -1.291851
      22A     -1.260756    23A     -1.168708    24A     -1.077745
      25A     -1.067473    26A     -1.027821    27A     -0.926509
      28A     -0.886845    29A     -0.868657    30A     -0.830179
      31A     -0.805514    32A     -0.753924    33A     -0.734768
      34A     -0.720967    35A     -0.701015    36A     -0.691964
      37A     -0.689337    38A     -0.670924    39A     -0.650445
      40A     -0.637255    41A     -0.627551    42A     -0.616631
      43A     -0.603715    44A     -0.591786    45A     -0.574929
      46A     -0.569117    47A     -0.566886    48A     -0.544714
      49A     -0.531867    50A     -0.523217    51A     -0.509991
      52A     -0.485476    53A     -0.481996    54A     -0.469369
      55A     -0.460904    56A     -0.444170    57A     -0.436910
      58A     -0.415489    59A     -0.383603    60A     -0.334550

  @DF-RHF Final Energy:  -811.45578886325370

   => Energetics <=

    Nuclear Repulsion Energy =           1169.1450893655890013
    One-Electron Energy =               -3433.3975407495149739
    Two-Electron Energy =                1452.7966625206724984
    Total Energy =                       -811.4557888632537015
  Basis Set: (AUG-CC-PVTZ AUX)
    Blend: AUG-CC-PVTZ-RI
    Molecular point group: c1

    Geometry (in Angstrom), charge = 0, multiplicity = 1:

       Center              X                  Y                   Z               Mass
    ------------   -----------------  -----------------  -----------------  -----------------
         O            1.361402523472    -0.379459811174    -0.931651251094    15.994914619570
         O            3.201388523472     1.901764188826    -0.299320251094    15.994914619570
         O            2.798738523472    -2.748395811174    -0.400008251094    15.994914619570
         O           -1.362854476528     2.374556188826     0.154975748906    15.994914619570
         N           -0.798912476528     0.199969188826    -0.229063251094    14.003074004430
         N           -3.054840476528     0.805790188826     0.240204748906    14.003074004430
         N           -4.674078476528    -0.811883811174     0.412829748906    14.003074004430
         C            2.700926523472     0.876105188826     0.559666748906    12.000000000000
         C            1.236175523472     1.107777188826     0.888044748906    12.000000000000
         C            2.651150523472    -0.391739811174    -0.285277251094    12.000000000000
         C            0.573289523472     0.683555188826    -0.414723251094    12.000000000000
         C            2.801429523472    -1.659464811174     0.522662748906    12.000000000000
         C           -1.128005476528    -1.115267811174    -0.308083251094    12.000000000000
         C           -1.745356476528     1.204443188826     0.082237748906    12.000000000000
         C           -2.417975476528    -1.504009811174    -0.104349251094    12.000000000000
         C           -3.362660476528    -0.472608811174     0.168703748906    12.000000000000
         H            3.333712523472     0.757336188826     1.451045748906     1.007825032230
         H            0.904038523472     0.444380188826     1.693681748906     1.007825032230
         H            0.984660523472     2.134618188826     1.158339748906     1.007825032230
         H            0.526785523472     1.513805188826    -1.124720251094     1.007825032230
         H            3.416823523472    -0.363731811174    -1.066433251094     1.007825032230
         H            1.970080523472    -1.732632811174     1.243415748906     1.007825032230
         H            3.745420523472    -1.608963811174     1.088481748906     1.007825032230
         H            3.103182523472     2.746875188826     0.178175748906     1.007825032230
         H           -0.160785976528    -1.912856111174    -0.586929151094     1.007825032230
         H            2.909361523472    -3.564520811174     0.119404748906     1.007825032230
         H           -2.704136476528    -2.548532811174    -0.153057251094     1.007825032230
         H           -5.029379476528    -1.637190811174    -0.056526251094     1.007825032230
         H           -5.300139476528    -0.013246811174     0.386293748906     1.007825032230

  Basis Set: AUG-CC-PVTZ
    Blend: AUG-CC-PVTZ
  Basis Set: (AUG-CC-PVTZ AUX)
    Blend: AUG-CC-PVTZ-JKFIT
	 Reference Energy          =    -811.4557888632537015 [Eh]
	 Singles Energy            =      -0.0000000000000000 [Eh]
	 Same-Spin Energy          =      -0.8308796866236695 [Eh]
	 Opposite-Spin Energy      =      -2.5278766412008951 [Eh]
	 Correlation Energy        =      -3.3587563278245645 [Eh]
	 Total Energy              =    -814.8145451910783095 [Eh]

	 ================> DF-SCS-MP2 Energies <==================
	-----------------------------------------------------------
	 SCS Same-Spin Scale       =       0.3333333333333333 [-]
	 SCS Opposite-Spin Scale   =       1.2000000000000000 [-]
	 SCS Same-Spin Energy      =      -0.2769598955412231 [Eh]
	 SCS Opposite-Spin Energy  =      -3.0334519694410740 [Eh]
	 SCS Correlation Energy    =      -3.3104118649822971 [Eh]
	 SCS Total Energy          =    -814.7662007282359582 [Eh]
	-----------------------------------------------------------

  Dipole Moment: [D]
     X:     1.1774      Y:    -4.6739      Z:     2.4752     Total:     5.4183

*** Psi4 exiting successfully. Buy a developer a beer!
