                               Psi4 1.3.2 release

  ==> Input File <==

--------------------------------------------------------------------------
#psi4
#
memory 32 gb

molecule  {
0 1
  O        1.3620710    -0.3800110    -0.9318440
  O        3.2020570     1.9012130    -0.2995130
  O        2.7994070    -2.7489470    -0.4002010
  O       -1.3621860     2.3740050     0.1547830
  N       -0.7982440     0.1994180    -0.2292560
  N       -3.0541720     0.8052390     0.2400120
  N       -4.6734100    -0.8124350     0.4126370
  C        2.6999620     0.8828717     0.5484852
  C        1.2368440     1.1072260     0.8878520
  C        2.6518190    -0.3922910    -0.2854700
  C        0.5739580     0.6830040    -0.4149160
  C        2.8010536    -1.6671187     0.5114120
  C       -1.1273370    -1.1158190    -0.3082760
  C       -1.7446880     1.2038920     0.0820450
  C       -2.4173070    -1.5045610    -0.1045420
  C       -3.3619920    -0.4731600     0.1685110
  H        3.3343810     0.7567850     1.4508530
  H        0.9047070     0.4438290     1.6934890
  H        0.9853290     2.1340670     1.1581470
  H        0.5274540     1.5132540    -1.1249130
  H        3.4174920    -0.3642830    -1.0666260
  H        1.9707490    -1.7331840     1.2432230
  H        3.7460890    -1.6095150     1.0882890
  H        3.1038510     2.7463240     0.1779830
  H       -0.3107400    -1.7892010    -0.5436980
  H        2.9100300    -3.5650720     0.1192120
  H       -2.7034680    -2.5490840    -0.1532500
  H       -5.0287110    -1.6377420    -0.0567190
  H       -5.2994710    -0.0137980     0.3861010
units angstrom
no_reorient  #important for SAPT in psi4, default
symmetry c1  #important for SAPT in psi4, default
}

set PROPERTIES_ORIGIN ["COM"]
properties('MP2/aug-cc-pvtz', properties = ['dipole'])
--------------------------------------------------------------------------

    Molecular point group: c1
  Charge       = 0
  Multiplicity = 1
  Basis Set: AUG-CC-PVTZ
    Blend: AUG-CC-PVTZ
  Basis Set: (AUG-CC-PVTZ AUX)
    Blend: AUG-CC-PVTZ-JKFIT

    Orbital Energies [Eh]
    ---------------------

    Doubly Occupied:

       1A    -20.578933     2A    -20.575523     3A    -20.572301
       4A    -20.502891     5A    -15.621532     6A    -15.588242
       7A    -15.540662     8A    -11.369733     9A    -11.344897
      10A    -11.330396    11A    -11.318141    12A    -11.301149
      13A    -11.297301    14A    -11.292470    15A    -11.236872
      16A    -11.236269    17A     -1.417103    18A     -1.383464
      19A     -1.378467    20A     -1.368517    21A     -1.292082
      22A     -1.261264    23A     -1.168972    24A     -1.078533
      25A     -1.068092    26A     -1.027658    27A     -0.926220
      28A     -0.897226    29A     -0.868929    30A     -0.830744
      31A     -0.804914    32A     -0.754058    33A     -0.738257
      34A     -0.722856    35A     -0.707371    36A     -0.694112
      37A     -0.690820    38A     -0.675673    39A     -0.656615
      40A     -0.637444    41A     -0.627518    42A     -0.618816
      43A     -0.605674    44A     -0.596082    45A     -0.589174
      46A     -0.572825    47A     -0.569197    48A     -0.545310
      49A     -0.533145    50A     -0.523603    51A     -0.510549
      52A     -0.484592    53A     -0.481897    54A     -0.466882
      55A     -0.459798    56A     -0.443805    57A     -0.437244
      58A     -0.416148    59A     -0.383528    60A     -0.334745

  @DF-RHF Final Energy:  -811.47939527670690

   => Energetics <=

    Nuclear Repulsion Energy =           1170.1771273905897033
    One-Electron Energy =               -3435.3985788167888131
    Two-Electron Energy =                1453.7420561494923277
    Total Energy =                       -811.4793952767067822
  Basis Set: (AUG-CC-PVTZ AUX)
    Blend: AUG-CC-PVTZ-RI
    Molecular point group: c1

    Geometry (in Angstrom), charge = 0, multiplicity = 1:

       Center              X                  Y                   Z               Mass
    ------------   -----------------  -----------------  -----------------  -----------------
         O            1.362212464179    -0.380022398155    -0.930678961176    15.994914619570
         O            3.202198464179     1.901201601845    -0.298347961176    15.994914619570
         O            2.799548464179    -2.748958398155    -0.399035961176    15.994914619570
         O           -1.362044535821     2.373993601845     0.155948038824    15.994914619570
         N           -0.798102535821     0.199406601845    -0.228090961176    14.003074004430
         N           -3.054030535821     0.805227601845     0.241177038824    14.003074004430
         N           -4.673268535821    -0.812446398155     0.413802038824    14.003074004430
         C            2.700103464179     0.882860301845     0.549650238824    12.000000000000
         C            1.236985464179     1.107214601845     0.889017038824    12.000000000000
         C            2.651960464179    -0.392302398155    -0.284304961176    12.000000000000
         C            0.574099464179     0.682992601845    -0.413750961176    12.000000000000
         C            2.801195064179    -1.667130098155     0.512577038824    12.000000000000
         C           -1.127195535821    -1.115830398155    -0.307110961176    12.000000000000
         C           -1.744546535821     1.203880601845     0.083210038824    12.000000000000
         C           -2.417165535821    -1.504572398155    -0.103376961176    12.000000000000
         C           -3.361850535821    -0.473171398155     0.169676038824    12.000000000000
         H            3.334522464179     0.756773601845     1.452018038824     1.007825032230
         H            0.904848464179     0.443817601845     1.694654038824     1.007825032230
         H            0.985470464179     2.134055601845     1.159312038824     1.007825032230
         H            0.527595464179     1.513242601845    -1.123747961176     1.007825032230
         H            3.417633464179    -0.364294398155    -1.065460961176     1.007825032230
         H            1.970890464179    -1.733195398155     1.244388038824     1.007825032230
         H            3.746230464179    -1.609526398155     1.089454038824     1.007825032230
         H            3.103992464179     2.746312601845     0.179148038824     1.007825032230
         H           -0.310598535821    -1.789212398155    -0.542532961176     1.007825032230
         H            2.910171464179    -3.565083398155     0.120377038824     1.007825032230
         H           -2.703326535821    -2.549095398155    -0.152084961176     1.007825032230
         H           -5.028569535821    -1.637753398155    -0.055553961176     1.007825032230
         H           -5.299329535821    -0.013809398155     0.387266038824     1.007825032230

  Basis Set: AUG-CC-PVTZ
    Blend: AUG-CC-PVTZ
  Basis Set: (AUG-CC-PVTZ AUX)
    Blend: AUG-CC-PVTZ-JKFIT
	 Reference Energy          =    -811.4793952767068959 [Eh]
	 Singles Energy            =      -0.0000000000000000 [Eh]
	 Same-Spin Energy          =      -0.8296463794795844 [Eh]
	 Opposite-Spin Energy      =      -2.5247723685192875 [Eh]
	 Correlation Energy        =      -3.3544187479988721 [Eh]
	 Total Energy              =    -814.8338140247058163 [Eh]

	 ================> DF-SCS-MP2 Energies <==================
	-----------------------------------------------------------
	 SCS Same-Spin Scale       =       0.3333333333333333 [-]
	 SCS Opposite-Spin Scale   =       1.2000000000000000 [-]
	 SCS Same-Spin Energy      =      -0.2765487931598615 [Eh]
	 SCS Opposite-Spin Energy  =      -3.0297268422231451 [Eh]
	 SCS Correlation Energy    =      -3.3062756353830065 [Eh]
	 SCS Total Energy          =    -814.7856709120899268 [Eh]
	-----------------------------------------------------------

  Dipole Moment: [D]
     X:     1.0923      Y:    -4.6849      Z:     2.4372     Total:     5.3927

*** Psi4 exiting successfully. Buy a developer a beer!
