                               Psi4 1.3.2 release

  ==> Input File <==

--------------------------------------------------------------------------
#psi4
#
memory 32 gb

molecule  {
0 1
  O        1.3620710    -0.3800110    -0.9318440
  O        3.2012106     1.9093944    -0.2901468
  O        2.7994070    -2.7489470    -0.4002010
  O       -1.3621860     2.3740050     0.1547830
  N       -0.7982440     0.1994180    -0.2292560
  N       -3.0541720     0.8052390     0.2400120
  N       -4.6734100    -0.8124350     0.4126370
  C        2.7015950     0.8755540     0.5594740
  C        1.2368440     1.1072260     0.8878520
  C        2.6470970    -0.3990103    -0.2750047
  C        0.5739580     0.6830040    -0.4149160
  C        2.8020980    -1.6600160     0.5224700
  C       -1.1273370    -1.1158190    -0.3082760
  C       -1.7446880     1.2038920     0.0820450
  C       -2.4173070    -1.5045610    -0.1045420
  C       -3.3619920    -0.4731600     0.1685110
  H        3.3343810     0.7567850     1.4508530
  H        0.9047070     0.4438290     1.6934890
  H        0.9853290     2.1340670     1.1581470
  H        0.5274540     1.5132540    -1.1249130
  H        3.4174920    -0.3642830    -1.0666260
  H        1.9707490    -1.7331840     1.2432230
  H        3.7460890    -1.6095150     1.0882890
  H        3.1038510     2.7463240     0.1779830
  H       -0.3107400    -1.7892010    -0.5436980
  H        2.9100300    -3.5650720     0.1192120
  H       -2.7034680    -2.5490840    -0.1532500
  H       -5.0287110    -1.6377420    -0.0567190
  H       -5.2994710    -0.0137980     0.3861010
units angstrom
no_reorient  #important for SAPT in psi4, default
symmetry c1  #important for SAPT in psi4, default
}

set PROPERTIES_ORIGIN ["COM"]
properties('MP2/aug-cc-pvtz', properties = ['dipole'])
--------------------------------------------------------------------------

    Molecular point group: c1
  Charge       = 0
  Multiplicity = 1
  Basis Set: AUG-CC-PVTZ
    Blend: AUG-CC-PVTZ
  Basis Set: (AUG-CC-PVTZ AUX)
    Blend: AUG-CC-PVTZ-JKFIT

    Orbital Energies [Eh]
    ---------------------

    Doubly Occupied:

       1A    -20.578270     2A    -20.573053     3A    -20.573019
       4A    -20.503017     5A    -15.621675     6A    -15.588347
       7A    -15.540780     8A    -11.369857     9A    -11.345023
      10A    -11.330698    11A    -11.318289    12A    -11.301267
      13A    -11.297112    14A    -11.293792    15A    -11.237026
      16A    -11.236674    17A     -1.416853    18A     -1.382692
      19A     -1.374756    20A     -1.366711    21A     -1.292211
      22A     -1.261411    23A     -1.169094    24A     -1.079525
      25A     -1.070034    26A     -1.028811    27A     -0.927993
      28A     -0.897502    29A     -0.869163    30A     -0.831085
      31A     -0.805359    32A     -0.754238    33A     -0.738736
      34A     -0.721834    35A     -0.707675    36A     -0.693323
      37A     -0.690391    38A     -0.675913    39A     -0.656809
      40A     -0.637637    41A     -0.627524    42A     -0.618561
      43A     -0.605443    44A     -0.595488    45A     -0.589153
      46A     -0.572808    47A     -0.567517    48A     -0.544939
      49A     -0.532650    50A     -0.524140    51A     -0.510507
      52A     -0.485455    53A     -0.481694    54A     -0.468752
      55A     -0.461375    56A     -0.444466    57A     -0.438540
      58A     -0.416304    59A     -0.383733    60A     -0.334916

  @DF-RHF Final Energy:  -811.47978138681219

   => Energetics <=

    Nuclear Repulsion Energy =           1170.0085206925598413
    One-Electron Energy =               -3435.0533637792805166
    Two-Electron Energy =                1453.5650616999087106
    Total Energy =                       -811.4797813868121921
  Basis Set: (AUG-CC-PVTZ AUX)
    Blend: AUG-CC-PVTZ-RI
    Molecular point group: c1

    Geometry (in Angstrom), charge = 0, multiplicity = 1:

       Center              X                  Y                   Z               Mass
    ------------   -----------------  -----------------  -----------------  -----------------
         O            1.362380121030    -0.380232222750    -0.933056676305    15.994914619570
         O            3.201519721030     1.909173177250    -0.291359476305    15.994914619570
         O            2.799716121030    -2.749168222750    -0.401413676305    15.994914619570
         O           -1.361876878970     2.373783777250     0.153570323695    15.994914619570
         N           -0.797934878970     0.199196777250    -0.230468676305    14.003074004430
         N           -3.053862878970     0.805017777250     0.238799323695    14.003074004430
         N           -4.673100878970    -0.812656222750     0.411424323695    14.003074004430
         C            2.701904121030     0.875332777250     0.558261323695    12.000000000000
         C            1.237153121030     1.107004777250     0.886639323695    12.000000000000
         C            2.647406121030    -0.399231522750    -0.276217376305    12.000000000000
         C            0.574267121030     0.682782777250    -0.416128676305    12.000000000000
         C            2.802407121030    -1.660237222750     0.521257323695    12.000000000000
         C           -1.127027878970    -1.116040222750    -0.309488676305    12.000000000000
         C           -1.744378878970     1.203670777250     0.080832323695    12.000000000000
         C           -2.416997878970    -1.504782222750    -0.105754676305    12.000000000000
         C           -3.361682878970    -0.473381222750     0.167298323695    12.000000000000
         H            3.334690121030     0.756563777250     1.449640323695     1.007825032230
         H            0.905016121030     0.443607777250     1.692276323695     1.007825032230
         H            0.985638121030     2.133845777250     1.156934323695     1.007825032230
         H            0.527763121030     1.513032777250    -1.126125676305     1.007825032230
         H            3.417801121030    -0.364504222750    -1.067838676305     1.007825032230
         H            1.971058121030    -1.733405222750     1.242010323695     1.007825032230
         H            3.746398121030    -1.609736222750     1.087076323695     1.007825032230
         H            3.104160121030     2.746102777250     0.176770323695     1.007825032230
         H           -0.310430878970    -1.789422222750    -0.544910676305     1.007825032230
         H            2.910339121030    -3.565293222750     0.117999323695     1.007825032230
         H           -2.703158878970    -2.549305222750    -0.154462676305     1.007825032230
         H           -5.028401878970    -1.637963222750    -0.057931676305     1.007825032230
         H           -5.299161878970    -0.014019222750     0.384888323695     1.007825032230

  Basis Set: AUG-CC-PVTZ
    Blend: AUG-CC-PVTZ
  Basis Set: (AUG-CC-PVTZ AUX)
    Blend: AUG-CC-PVTZ-JKFIT
	 Reference Energy          =    -811.4797813868121921 [Eh]
	 Singles Energy            =      -0.0000000000000000 [Eh]
	 Same-Spin Energy          =      -0.8295833610097777 [Eh]
	 Opposite-Spin Energy      =      -2.5248007638597838 [Eh]
	 Correlation Energy        =      -3.3543841248695614 [Eh]
	 Total Energy              =    -814.8341655116817037 [Eh]

	 ================> DF-SCS-MP2 Energies <==================
	-----------------------------------------------------------
	 SCS Same-Spin Scale       =       0.3333333333333333 [-]
	 SCS Opposite-Spin Scale   =       1.2000000000000000 [-]
	 SCS Same-Spin Energy      =      -0.2765277870032592 [Eh]
	 SCS Opposite-Spin Energy  =      -3.0297609166317403 [Eh]
	 SCS Correlation Energy    =      -3.3062887036349995 [Eh]
	 SCS Total Energy          =    -814.7860700904471969 [Eh]
	-----------------------------------------------------------

  Dipole Moment: [D]
     X:     1.0737      Y:    -4.7035      Z:     2.4933     Total:     5.4307

*** Psi4 exiting successfully. Buy a developer a beer!
