                               Psi4 1.3.2 release

  ==> Input File <==

--------------------------------------------------------------------------
#psi4
#
memory 32 gb

molecule  {
0 1
  O        1.3620710    -0.3800110    -0.9318440
  O        3.2020570     1.9012130    -0.2995130
  O        2.7994070    -2.7489470    -0.4002010
  O       -1.3621860     2.3740050     0.1547830
  N       -0.7982440     0.1994180    -0.2292560
  N       -3.0541720     0.8052390     0.2400120
  N       -4.6734100    -0.8124350     0.4126370
  C        2.7015950     0.8755540     0.5594740
  C        1.2368440     1.1072260     0.8878520
  C        2.6518190    -0.3922910    -0.2854700
  C        0.5739580     0.6830040    -0.4149160
  C        2.8123429    -1.6635254     0.5149503
  C       -1.1273370    -1.1158190    -0.3082760
  C       -1.7446880     1.2038920     0.0820450
  C       -2.4173070    -1.5045610    -0.1045420
  C       -3.3619920    -0.4731600     0.1685110
  H        3.3343810     0.7567850     1.4508530
  H        0.9047070     0.4438290     1.6934890
  H        0.9853290     2.1340670     1.1581470
  H        0.5274540     1.5132540    -1.1249130
  H        3.4208353    -0.3726969    -1.0635923
  H        1.9707490    -1.7331840     1.2432230
  H        3.7460890    -1.6095150     1.0882890
  H        3.1038510     2.7463240     0.1779830
  H       -0.3107400    -1.7892010    -0.5436980
  H        2.9100300    -3.5650720     0.1192120
  H       -2.7034680    -2.5490840    -0.1532500
  H       -5.0287110    -1.6377420    -0.0567190
  H       -5.2994710    -0.0137980     0.3861010
units angstrom
no_reorient  #important for SAPT in psi4, default
symmetry c1  #important for SAPT in psi4, default
}

set PROPERTIES_ORIGIN ["COM"]
properties('MP2/aug-cc-pvtz', properties = ['dipole'])
--------------------------------------------------------------------------

    Molecular point group: c1
  Charge       = 0
  Multiplicity = 1
  Basis Set: AUG-CC-PVTZ
    Blend: AUG-CC-PVTZ
  Basis Set: (AUG-CC-PVTZ AUX)
    Blend: AUG-CC-PVTZ-JKFIT

    Orbital Energies [Eh]
    ---------------------

    Doubly Occupied:

       1A    -20.578506     2A    -20.574253     3A    -20.573055
       4A    -20.502977     5A    -15.621659     6A    -15.588291
       7A    -15.540722     8A    -11.369826     9A    -11.344960
      10A    -11.330728    11A    -11.318200    12A    -11.300966
      13A    -11.297039    14A    -11.292959    15A    -11.236930
      16A    -11.236673    17A     -1.416707    18A     -1.382669
      19A     -1.375532    20A     -1.366283    21A     -1.292153
      22A     -1.261349    23A     -1.169037    24A     -1.078858
      25A     -1.068747    26A     -1.027917    27A     -0.926573
      28A     -0.897219    29A     -0.868777    30A     -0.830746
      31A     -0.805995    32A     -0.754154    33A     -0.738741
      34A     -0.721750    35A     -0.706824    36A     -0.694109
      37A     -0.689204    38A     -0.675613    39A     -0.656327
      40A     -0.637322    41A     -0.627522    42A     -0.618500
      43A     -0.605103    44A     -0.595105    45A     -0.589090
      46A     -0.572746    47A     -0.569099    48A     -0.544809
      49A     -0.532479    50A     -0.523845    51A     -0.510175
      52A     -0.486081    53A     -0.482036    54A     -0.467448
      55A     -0.460352    56A     -0.444367    57A     -0.437722
      58A     -0.416251    59A     -0.383671    60A     -0.334852

  @DF-RHF Final Energy:  -811.47930377512932

   => Energetics <=

    Nuclear Repulsion Energy =           1169.8888847880502908
    One-Electron Energy =               -3434.8331777679777588
    Two-Electron Energy =                1453.4649892047980302
    Total Energy =                       -811.4793037751294378
  Basis Set: (AUG-CC-PVTZ AUX)
    Blend: AUG-CC-PVTZ-RI
    Molecular point group: c1

    Geometry (in Angstrom), charge = 0, multiplicity = 1:

       Center              X                  Y                   Z               Mass
    ------------   -----------------  -----------------  -----------------  -----------------
         O            1.361514782032    -0.379788251354    -0.931460070717    15.994914619570
         O            3.201500782032     1.901435748646    -0.299129070717    15.994914619570
         O            2.798850782032    -2.748724251354    -0.399817070717    15.994914619570
         O           -1.362742217968     2.374227748646     0.155166929283    15.994914619570
         N           -0.798800217968     0.199640748646    -0.228872070717    14.003074004430
         N           -3.054728217968     0.805461748646     0.240395929283    14.003074004430
         N           -4.673966217968    -0.812212251354     0.413020929283    14.003074004430
         C            2.701038782032     0.875776748646     0.559857929283    12.000000000000
         C            1.236287782032     1.107448748646     0.888235929283    12.000000000000
         C            2.651262782032    -0.392068251354    -0.285086070717    12.000000000000
         C            0.573401782032     0.683226748646    -0.414532070717    12.000000000000
         C            2.811786682032    -1.663302651354     0.515334229283    12.000000000000
         C           -1.127893217968    -1.115596251354    -0.307892070717    12.000000000000
         C           -1.745244217968     1.204114748646     0.082428929283    12.000000000000
         C           -2.417863217968    -1.504338251354    -0.104158070717    12.000000000000
         C           -3.362548217968    -0.472937251354     0.168894929283    12.000000000000
         H            3.333824782032     0.757007748646     1.451236929283     1.007825032230
         H            0.904150782032     0.444051748646     1.693872929283     1.007825032230
         H            0.984772782032     2.134289748646     1.158530929283     1.007825032230
         H            0.526897782032     1.513476748646    -1.124529070717     1.007825032230
         H            3.420279082032    -0.372474151354    -1.063208370717     1.007825032230
         H            1.970192782032    -1.732961251354     1.243606929283     1.007825032230
         H            3.745532782032    -1.609292251354     1.088672929283     1.007825032230
         H            3.103294782032     2.746546748646     0.178366929283     1.007825032230
         H           -0.311296217968    -1.788978251354    -0.543314070717     1.007825032230
         H            2.909473782032    -3.564849251354     0.119595929283     1.007825032230
         H           -2.704024217968    -2.548861251354    -0.152866070717     1.007825032230
         H           -5.029267217968    -1.637519251354    -0.056335070717     1.007825032230
         H           -5.300027217968    -0.013575251354     0.386484929283     1.007825032230

  Basis Set: AUG-CC-PVTZ
    Blend: AUG-CC-PVTZ
  Basis Set: (AUG-CC-PVTZ AUX)
    Blend: AUG-CC-PVTZ-JKFIT
	 Reference Energy          =    -811.4793037751293241 [Eh]
	 Singles Energy            =      -0.0000000000000000 [Eh]
	 Same-Spin Energy          =      -0.8296402001048326 [Eh]
	 Opposite-Spin Energy      =      -2.5250002473481370 [Eh]
	 Correlation Energy        =      -3.3546404474529696 [Eh]
	 Total Energy              =    -814.8339442225823177 [Eh]

	 ================> DF-SCS-MP2 Energies <==================
	-----------------------------------------------------------
	 SCS Same-Spin Scale       =       0.3333333333333333 [-]
	 SCS Opposite-Spin Scale   =       1.2000000000000000 [-]
	 SCS Same-Spin Energy      =      -0.2765467333682775 [Eh]
	 SCS Opposite-Spin Energy  =      -3.0300002968177644 [Eh]
	 SCS Correlation Energy    =      -3.3065470301860418 [Eh]
	 SCS Total Energy          =    -814.7858508053153628 [Eh]
	-----------------------------------------------------------

  Dipole Moment: [D]
     X:     1.0928      Y:    -4.7034      Z:     2.4730     Total:     5.4251

*** Psi4 exiting successfully. Buy a developer a beer!
