                               Psi4 1.3.2 release

  ==> Input File <==

--------------------------------------------------------------------------
#psi4
#
memory 32 gb

molecule  {
0 1
  O        1.3620710    -0.3800110    -0.9318440
  O        3.2020570     1.9012130    -0.2995130
  O        2.7994070    -2.7489470    -0.4002010
  O       -1.3621860     2.3740050     0.1547830
  N       -0.7982440     0.1994180    -0.2292560
  N       -3.0541720     0.8052390     0.2400120
  N       -4.6734100    -0.8124350     0.4126370
  C        2.7015950     0.8755540     0.5594740
  C        1.2368440     1.1072260     0.8878520
  C        2.6518190    -0.3922910    -0.2854700
  C        0.5739580     0.6830040    -0.4149160
  C        2.8020980    -1.6600160     0.5224700
  C       -1.1273370    -1.1158190    -0.3082760
  C       -1.7586932     1.2494754     0.0883054
  C       -2.4173070    -1.5045610    -0.1045420
  C       -3.4059807    -0.4621637     0.1760538
  H        3.3343810     0.7567850     1.4508530
  H        0.9047070     0.4438290     1.6934890
  H        0.9853290     2.1340670     1.1581470
  H        0.5274540     1.5132540    -1.1249130
  H        3.4174920    -0.3642830    -1.0666260
  H        1.9707490    -1.7331840     1.2432230
  H        3.7460890    -1.6095150     1.0882890
  H        3.1038510     2.7463240     0.1779830
  H       -0.3107400    -1.7892010    -0.5436980
  H        2.9100300    -3.5650720     0.1192120
  H       -2.7034680    -2.5490840    -0.1532500
  H       -5.0287110    -1.6377420    -0.0567190
  H       -5.2994710    -0.0137980     0.3861010
units angstrom
no_reorient  #important for SAPT in psi4, default
symmetry c1  #important for SAPT in psi4, default
}

set PROPERTIES_ORIGIN ["COM"]
properties('MP2/aug-cc-pvtz', properties = ['dipole'])
--------------------------------------------------------------------------

    Molecular point group: c1
  Charge       = 0
  Multiplicity = 1
  Basis Set: AUG-CC-PVTZ
    Blend: AUG-CC-PVTZ
  Basis Set: (AUG-CC-PVTZ AUX)
    Blend: AUG-CC-PVTZ-JKFIT

    Orbital Energies [Eh]
    ---------------------

    Doubly Occupied:

       1A    -20.575632     2A    -20.572912     3A    -20.569281
       4A    -20.513588     5A    -15.610187     6A    -15.594018
       7A    -15.535022     8A    -11.372200     9A    -11.346409
      10A    -11.325997    11A    -11.310364    12A    -11.298932
      13A    -11.294622    14A    -11.290573    15A    -11.234542
      16A    -11.232146    17A     -1.415003    18A     -1.397867
      19A     -1.371682    20A     -1.365398    21A     -1.299469
      22A     -1.261015    23A     -1.171523    24A     -1.074749
      25A     -1.061850    26A     -1.020346    27A     -0.922507
      28A     -0.884754    29A     -0.868394    30A     -0.828956
      31A     -0.803291    32A     -0.753717    33A     -0.732708
      34A     -0.720053    35A     -0.713995    36A     -0.691039
      37A     -0.689084    38A     -0.676454    39A     -0.654619
      40A     -0.633284    41A     -0.628422    42A     -0.621278
      43A     -0.604207    44A     -0.594114    45A     -0.587402
      46A     -0.571619    47A     -0.566758    48A     -0.543968
      49A     -0.537683    50A     -0.521220    51A     -0.513611
      52A     -0.485657    53A     -0.483335    54A     -0.466403
      55A     -0.460661    56A     -0.449251    57A     -0.435271
      58A     -0.406018    59A     -0.383071    60A     -0.328446

  @DF-RHF Final Energy:  -811.47614341113706

   => Energetics <=

    Nuclear Repulsion Energy =           1168.9829684259959777
    One-Electron Energy =               -3433.1650772578414035
    Two-Electron Energy =                1452.7059654207087078
    Total Energy =                       -811.4761434111369454
  Basis Set: (AUG-CC-PVTZ AUX)
    Blend: AUG-CC-PVTZ-RI
    Molecular point group: c1

    Geometry (in Angstrom), charge = 0, multiplicity = 1:

       Center              X                  Y                   Z               Mass
    ------------   -----------------  -----------------  -----------------  -----------------
         O            1.365135517721    -0.383000841043    -0.932573359222    15.994914619570
         O            3.205121517721     1.898223158957    -0.300242359222    15.994914619570
         O            2.802471517721    -2.751936841043    -0.400930359222    15.994914619570
         O           -1.359121482279     2.371015158957     0.154053640778    15.994914619570
         N           -0.795179482279     0.196428158957    -0.229985359222    14.003074004430
         N           -3.051107482279     0.802249158957     0.239282640778    14.003074004430
         N           -4.670345482279    -0.815424841043     0.411907640778    14.003074004430
         C            2.704659517721     0.872564158957     0.558744640778    12.000000000000
         C            1.239908517721     1.104236158957     0.887122640778    12.000000000000
         C            2.654883517721    -0.395280841043    -0.286199359222    12.000000000000
         C            0.577022517721     0.680014158957    -0.415645359222    12.000000000000
         C            2.805162517721    -1.663005841043     0.521740640778    12.000000000000
         C           -1.124272482279    -1.118808841043    -0.309005359222    12.000000000000
         C           -1.755628682279     1.246485558957     0.087576040778    12.000000000000
         C           -2.414242482279    -1.507550841043    -0.105271359222    12.000000000000
         C           -3.402916182279    -0.465153541043     0.175324440778    12.000000000000
         H            3.337445517721     0.753795158957     1.450123640778     1.007825032230
         H            0.907771517721     0.440839158957     1.692759640778     1.007825032230
         H            0.988393517721     2.131077158957     1.157417640778     1.007825032230
         H            0.530518517721     1.510264158957    -1.125642359222     1.007825032230
         H            3.420556517721    -0.367272841043    -1.067355359222     1.007825032230
         H            1.973813517721    -1.736173841043     1.242493640778     1.007825032230
         H            3.749153517721    -1.612504841043     1.087559640778     1.007825032230
         H            3.106915517721     2.743334158957     0.177253640778     1.007825032230
         H           -0.307675482279    -1.792190841043    -0.544427359222     1.007825032230
         H            2.913094517721    -3.568061841043     0.118482640778     1.007825032230
         H           -2.700403482279    -2.552073841043    -0.153979359222     1.007825032230
         H           -5.025646482279    -1.640731841043    -0.057448359222     1.007825032230
         H           -5.296406482279    -0.016787841043     0.385371640778     1.007825032230

  Basis Set: AUG-CC-PVTZ
    Blend: AUG-CC-PVTZ
  Basis Set: (AUG-CC-PVTZ AUX)
    Blend: AUG-CC-PVTZ-JKFIT
	 Reference Energy          =    -811.4761434111370590 [Eh]
	 Singles Energy            =      -0.0000000000000000 [Eh]
	 Same-Spin Energy          =      -0.8288805563545438 [Eh]
	 Opposite-Spin Energy      =      -2.5237590813628334 [Eh]
	 Correlation Energy        =      -3.3526396377173775 [Eh]
	 Total Energy              =    -814.8287830488544614 [Eh]

	 ================> DF-SCS-MP2 Energies <==================
	-----------------------------------------------------------
	 SCS Same-Spin Scale       =       0.3333333333333333 [-]
	 SCS Opposite-Spin Scale   =       1.2000000000000000 [-]
	 SCS Same-Spin Energy      =      -0.2762935187848479 [Eh]
	 SCS Opposite-Spin Energy  =      -3.0285108976354000 [Eh]
	 SCS Correlation Energy    =      -3.3048044164202479 [Eh]
	 SCS Total Energy          =    -814.7809478275572701 [Eh]
	-----------------------------------------------------------

  Dipole Moment: [D]
     X:     0.6173      Y:    -4.2953      Z:     2.5967     Total:     5.0570

*** Psi4 exiting successfully. Buy a developer a beer!
