                               Psi4 1.3.2 release

  ==> Input File <==

--------------------------------------------------------------------------
#psi4
#
memory 32 gb

molecule  {
0 1
  O        1.3620710    -0.3800110    -0.9318440
  O        3.2020570     1.9012130    -0.2995130
  O        2.7994070    -2.7489470    -0.4002010
  O       -1.3621860     2.3740050     0.1547830
  N       -0.7982440     0.1994180    -0.2292560
  N       -3.0541720     0.8052390     0.2400120
  N       -4.6734100    -0.8124350     0.4126370
  C        2.7015950     0.8755540     0.5594740
  C        1.2368440     1.1072260     0.8878520
  C        2.6518190    -0.3922910    -0.2854700
  C        0.5739580     0.6830040    -0.4149160
  C        2.8020980    -1.6600160     0.5224700
  C       -1.1273370    -1.1158190    -0.3082760
  C       -1.7446880     1.2038920     0.0820450
  C       -2.4173070    -1.5045610    -0.1045420
  C       -3.3619920    -0.4731600     0.1685110
  H        3.2768331     0.7675863     1.3697877
  H        0.9047070     0.4438290     1.6934890
  H        0.9853290     2.1340670     1.1581470
  H        0.5274540     1.5132540    -1.1249130
  H        3.4174920    -0.3642830    -1.0666260
  H        1.9707490    -1.7331840     1.2432230
  H        3.7460890    -1.6095150     1.0882890
  H        3.1038510     2.7463240     0.1779830
  H       -0.3107400    -1.7892010    -0.5436980
  H        2.9100300    -3.5650720     0.1192120
  H       -2.7034680    -2.5490840    -0.1532500
  H       -5.0287110    -1.6377420    -0.0567190
  H       -5.2994710    -0.0137980     0.3861010
units angstrom
no_reorient  #important for SAPT in psi4, default
symmetry c1  #important for SAPT in psi4, default
}

set PROPERTIES_ORIGIN ["COM"]
properties('MP2/aug-cc-pvtz', properties = ['dipole'])
--------------------------------------------------------------------------

    Molecular point group: c1
  Charge       = 0
  Multiplicity = 1
  Basis Set: AUG-CC-PVTZ
    Blend: AUG-CC-PVTZ
  Basis Set: (AUG-CC-PVTZ AUX)
    Blend: AUG-CC-PVTZ-JKFIT

    Orbital Energies [Eh]
    ---------------------

    Doubly Occupied:

       1A    -20.578027     2A    -20.572640     3A    -20.572127
       4A    -20.502753     5A    -15.621344     6A    -15.588159
       7A    -15.540556     8A    -11.369594     9A    -11.344793
      10A    -11.330113    11A    -11.318011    12A    -11.297197
      13A    -11.292375    14A    -11.288383    15A    -11.236761
      16A    -11.235947    17A     -1.416044    18A     -1.382110
      19A     -1.373411    20A     -1.365218    21A     -1.291950
      22A     -1.261113    23A     -1.168861    24A     -1.080286
      25A     -1.070161    26A     -1.027640    27A     -0.928831
      28A     -0.897263    29A     -0.870668    30A     -0.831998
      31A     -0.813933    32A     -0.754334    33A     -0.742906
      34A     -0.721492    35A     -0.708519    36A     -0.692853
      37A     -0.689145    38A     -0.675585    39A     -0.656439
      40A     -0.638131    41A     -0.628720    42A     -0.618748
      43A     -0.604959    44A     -0.594800    45A     -0.589307
      46A     -0.573438    47A     -0.568480    48A     -0.544780
      49A     -0.532867    50A     -0.523289    51A     -0.510481
      52A     -0.487655    53A     -0.481626    54A     -0.468808
      55A     -0.462851    56A     -0.444456    57A     -0.437665
      58A     -0.416067    59A     -0.383546    60A     -0.334666

  @DF-RHF Final Energy:  -811.47434138246501

   => Energetics <=

    Nuclear Repulsion Energy =           1170.5846687572604878
    One-Electron Energy =               -3436.2082548162911735
    Two-Electron Energy =                1454.1492446765655586
    Total Energy =                       -811.4743413824648997
  Basis Set: (AUG-CC-PVTZ AUX)
    Blend: AUG-CC-PVTZ-RI
    Molecular point group: c1

    Geometry (in Angstrom), charge = 0, multiplicity = 1:

       Center              X                  Y                   Z               Mass
    ------------   -----------------  -----------------  -----------------  -----------------
         O            1.362326380887    -0.380058973074    -0.931484199071    15.994914619570
         O            3.202312380887     1.901165026926    -0.299153199071    15.994914619570
         O            2.799662380887    -2.748994973074    -0.399841199071    15.994914619570
         O           -1.361930619113     2.373957026926     0.155142800929    15.994914619570
         N           -0.797988619113     0.199370026926    -0.228896199071    14.003074004430
         N           -3.053916619113     0.805191026926     0.240371800929    14.003074004430
         N           -4.673154619113    -0.812482973074     0.412996800929    14.003074004430
         C            2.701850380887     0.875506026926     0.559833800929    12.000000000000
         C            1.237099380887     1.107178026926     0.888211800929    12.000000000000
         C            2.652074380887    -0.392338973074    -0.285110199071    12.000000000000
         C            0.574213380887     0.682956026926    -0.414556199071    12.000000000000
         C            2.802353380887    -1.660063973074     0.522829800929    12.000000000000
         C           -1.127081619113    -1.115866973074    -0.307916199071    12.000000000000
         C           -1.744432619113     1.203844026926     0.082404800929    12.000000000000
         C           -2.417051619113    -1.504608973074    -0.104182199071    12.000000000000
         C           -3.361736619113    -0.473207973074     0.168870800929    12.000000000000
         H            3.277088480887     0.767538326926     1.370147500929     1.007825032230
         H            0.904962380887     0.443781026926     1.693848800929     1.007825032230
         H            0.985584380887     2.134019026926     1.158506800929     1.007825032230
         H            0.527709380887     1.513206026926    -1.124553199071     1.007825032230
         H            3.417747380887    -0.364330973074    -1.066266199071     1.007825032230
         H            1.971004380887    -1.733231973074     1.243582800929     1.007825032230
         H            3.746344380887    -1.609562973074     1.088648800929     1.007825032230
         H            3.104106380887     2.746276026926     0.178342800929     1.007825032230
         H           -0.310484619113    -1.789248973074    -0.543338199071     1.007825032230
         H            2.910285380887    -3.565119973074     0.119571800929     1.007825032230
         H           -2.703212619113    -2.549131973074    -0.152890199071     1.007825032230
         H           -5.028455619113    -1.637789973074    -0.056359199071     1.007825032230
         H           -5.299215619113    -0.013845973074     0.386460800929     1.007825032230

  Basis Set: AUG-CC-PVTZ
    Blend: AUG-CC-PVTZ
  Basis Set: (AUG-CC-PVTZ AUX)
    Blend: AUG-CC-PVTZ-JKFIT
	 Reference Energy          =    -811.4743413824650133 [Eh]
	 Singles Energy            =      -0.0000000000000000 [Eh]
	 Same-Spin Energy          =      -0.8294990803448039 [Eh]
	 Opposite-Spin Energy      =      -2.5244133641819086 [Eh]
	 Correlation Energy        =      -3.3539124445267126 [Eh]
	 Total Energy              =    -814.8282538269917268 [Eh]

	 ================> DF-SCS-MP2 Energies <==================
	-----------------------------------------------------------
	 SCS Same-Spin Scale       =       0.3333333333333333 [-]
	 SCS Opposite-Spin Scale   =       1.2000000000000000 [-]
	 SCS Same-Spin Energy      =      -0.2764996934482680 [Eh]
	 SCS Opposite-Spin Energy  =      -3.0292960370182902 [Eh]
	 SCS Correlation Energy    =      -3.3057957304665582 [Eh]
	 SCS Total Energy          =    -814.7801371129315839 [Eh]
	-----------------------------------------------------------

  Dipole Moment: [D]
     X:     1.1154      Y:    -4.7032      Z:     2.5403     Total:     5.4605

*** Psi4 exiting successfully. Buy a developer a beer!
