                               Psi4 1.3.2 release

  ==> Input File <==

--------------------------------------------------------------------------
#psi4
#
memory 32 gb

molecule  {
0 1
  O        1.3620710    -0.3800110    -0.9318440
  O        3.2577670     1.9120804    -0.2508241
  O        2.7994070    -2.7489470    -0.4002010
  O       -1.3621860     2.3740050     0.1547830
  N       -0.7982440     0.1994180    -0.2292560
  N       -3.0541720     0.8052390     0.2400120
  N       -4.6734100    -0.8124350     0.4126370
  C        2.7015950     0.8755540     0.5594740
  C        1.2368440     1.1072260     0.8878520
  C        2.6518190    -0.3922910    -0.2854700
  C        0.5739580     0.6830040    -0.4149160
  C        2.8020980    -1.6600160     0.5224700
  C       -1.1273370    -1.1158190    -0.3082760
  C       -1.7446880     1.2038920     0.0820450
  C       -2.4173070    -1.5045610    -0.1045420
  C       -3.3619920    -0.4731600     0.1685110
  H        3.3680758     0.7988781     1.4306828
  H        0.9047070     0.4438290     1.6934890
  H        0.9853290     2.1340670     1.1581470
  H        0.5274540     1.5132540    -1.1249130
  H        3.4174920    -0.3642830    -1.0666260
  H        1.9707490    -1.7331840     1.2432230
  H        3.7460890    -1.6095150     1.0882890
  H        3.1038510     2.7463240     0.1779830
  H       -0.3107400    -1.7892010    -0.5436980
  H        2.9100300    -3.5650720     0.1192120
  H       -2.7034680    -2.5490840    -0.1532500
  H       -5.0287110    -1.6377420    -0.0567190
  H       -5.2994710    -0.0137980     0.3861010
units angstrom
no_reorient  #important for SAPT in psi4, default
symmetry c1  #important for SAPT in psi4, default
}

set PROPERTIES_ORIGIN ["COM"]
properties('MP2/aug-cc-pvtz', properties = ['dipole'])
--------------------------------------------------------------------------

    Molecular point group: c1
  Charge       = 0
  Multiplicity = 1
  Basis Set: AUG-CC-PVTZ
    Blend: AUG-CC-PVTZ
  Basis Set: (AUG-CC-PVTZ AUX)
    Blend: AUG-CC-PVTZ-JKFIT

    Orbital Energies [Eh]
    ---------------------

    Doubly Occupied:

       1A    -20.578031     2A    -20.574082     3A    -20.568775
       4A    -20.503804     5A    -15.622607     6A    -15.588867
       7A    -15.541421     8A    -11.370646     9A    -11.345654
      10A    -11.332267    11A    -11.318980    12A    -11.300758
      13A    -11.297315    14A    -11.294245    15A    -11.238518
      16A    -11.237688    17A     -1.417501    18A     -1.383352
      19A     -1.375045    20A     -1.367600    21A     -1.292924
      22A     -1.262172    23A     -1.169733    24A     -1.080146
      25A     -1.069647    26A     -1.028767    27A     -0.927725
      28A     -0.898243    29A     -0.870381    30A     -0.832512
      31A     -0.806913    32A     -0.755038    33A     -0.738994
      34A     -0.722685    35A     -0.706168    36A     -0.693750
      37A     -0.691895    38A     -0.676303    39A     -0.657081
      40A     -0.638835    41A     -0.628597    42A     -0.618749
      43A     -0.605074    44A     -0.596603    45A     -0.589468
      46A     -0.575428    47A     -0.567825    48A     -0.545450
      49A     -0.532229    50A     -0.524672    51A     -0.511034
      52A     -0.484563    53A     -0.482669    54A     -0.468509
      55A     -0.461282    56A     -0.445085    57A     -0.438608
      58A     -0.417074    59A     -0.384395    60A     -0.335686

  @DF-RHF Final Energy:  -811.48011903455574

   => Energetics <=

    Nuclear Repulsion Energy =           1168.9397694377771586
    One-Electron Energy =               -3432.8596371592102514
    Two-Electron Energy =                1452.4397486868774649
    Total Energy =                       -811.4801190345556279
  Basis Set: (AUG-CC-PVTZ AUX)
    Blend: AUG-CC-PVTZ-RI
    Molecular point group: c1

    Geometry (in Angstrom), charge = 0, multiplicity = 1:

       Center              X                  Y                   Z               Mass
    ------------   -----------------  -----------------  -----------------  -----------------
         O            1.357997565229    -0.380963280822    -0.935183807873    15.994914619570
         O            3.253693565229     1.911128119178    -0.254163907873    15.994914619570
         O            2.795333565229    -2.749899280822    -0.403540807873    15.994914619570
         O           -1.366259434771     2.373052719178     0.151443192127    15.994914619570
         N           -0.802317434771     0.198465719178    -0.232595807873    14.003074004430
         N           -3.058245434771     0.804286719178     0.236672192127    14.003074004430
         N           -4.677483434771    -0.813387280822     0.409297192127    14.003074004430
         C            2.697521565229     0.874601719178     0.556134192127    12.000000000000
         C            1.232770565229     1.106273719178     0.884512192127    12.000000000000
         C            2.647745565229    -0.393243280822    -0.288809807873    12.000000000000
         C            0.569884565229     0.682051719178    -0.418255807873    12.000000000000
         C            2.798024565229    -1.660968280822     0.519130192127    12.000000000000
         C           -1.131410434771    -1.116771280822    -0.311615807873    12.000000000000
         C           -1.748761434771     1.202939719178     0.078705192127    12.000000000000
         C           -2.421380434771    -1.505513280822    -0.107881807873    12.000000000000
         C           -3.366065434771    -0.474112280822     0.165171192127    12.000000000000
         H            3.364002365229     0.797925819178     1.427342992127     1.007825032230
         H            0.900633565229     0.442876719178     1.690149192127     1.007825032230
         H            0.981255565229     2.133114719178     1.154807192127     1.007825032230
         H            0.523380565229     1.512301719178    -1.128252807873     1.007825032230
         H            3.413418565229    -0.365235280822    -1.069965807873     1.007825032230
         H            1.966675565229    -1.734136280822     1.239883192127     1.007825032230
         H            3.742015565229    -1.610467280822     1.084949192127     1.007825032230
         H            3.099777565229     2.745371719178     0.174643192127     1.007825032230
         H           -0.314813434771    -1.790153280822    -0.547037807873     1.007825032230
         H            2.905956565229    -3.566024280822     0.115872192127     1.007825032230
         H           -2.707541434771    -2.550036280822    -0.156589807873     1.007825032230
         H           -5.032784434771    -1.638694280822    -0.060058807873     1.007825032230
         H           -5.303544434771    -0.014750280822     0.382761192127     1.007825032230

  Basis Set: AUG-CC-PVTZ
    Blend: AUG-CC-PVTZ
  Basis Set: (AUG-CC-PVTZ AUX)
    Blend: AUG-CC-PVTZ-JKFIT
	 Reference Energy          =    -811.4801190345557416 [Eh]
	 Singles Energy            =      -0.0000000000000000 [Eh]
	 Same-Spin Energy          =      -0.8290797217844373 [Eh]
	 Opposite-Spin Energy      =      -2.5238884586544739 [Eh]
	 Correlation Energy        =      -3.3529681804389111 [Eh]
	 Total Energy              =    -814.8330872149946345 [Eh]

	 ================> DF-SCS-MP2 Energies <==================
	-----------------------------------------------------------
	 SCS Same-Spin Scale       =       0.3333333333333333 [-]
	 SCS Opposite-Spin Scale   =       1.2000000000000000 [-]
	 SCS Same-Spin Energy      =      -0.2763599072614791 [Eh]
	 SCS Opposite-Spin Energy  =      -3.0286661503853685 [Eh]
	 SCS Correlation Energy    =      -3.3050260576468475 [Eh]
	 SCS Total Energy          =    -814.7851450922025833 [Eh]
	-----------------------------------------------------------

  Dipole Moment: [D]
     X:     0.8891      Y:    -4.7293      Z:     2.4170     Total:     5.3850

*** Psi4 exiting successfully. Buy a developer a beer!
