                               Psi4 1.3.2 release

  ==> Input File <==

--------------------------------------------------------------------------
#psi4
#
memory 32 gb

molecule  {
0 1
  O        1.3620710    -0.3800110    -0.9318440
  O        3.1569629     1.9224733    -0.2989532
  O        2.7994070    -2.7489470    -0.4002010
  O       -1.3621860     2.3740050     0.1547830
  N       -0.7982440     0.1994180    -0.2292560
  N       -3.0541720     0.8052390     0.2400120
  N       -4.6734100    -0.8124350     0.4126370
  C        2.7015950     0.8755540     0.5594740
  C        1.2380070     1.1509593     0.8579058
  C        2.6518190    -0.3922910    -0.2854700
  C        0.5739580     0.6830040    -0.4149160
  C        2.8020980    -1.6600160     0.5224700
  C       -1.1273370    -1.1158190    -0.3082760
  C       -1.7446880     1.2038920     0.0820450
  C       -2.4173070    -1.5045610    -0.1045420
  C       -3.3619920    -0.4731600     0.1685110
  H        3.3343810     0.7567850     1.4508530
  H        0.9047070     0.4438290     1.6934890
  H        0.9853290     2.1340670     1.1581470
  H        0.5274540     1.5132540    -1.1249130
  H        3.4174920    -0.3642830    -1.0666260
  H        1.9707490    -1.7331840     1.2432230
  H        3.7460890    -1.6095150     1.0882890
  H        3.1038510     2.7463240     0.1779830
  H       -0.3107400    -1.7892010    -0.5436980
  H        2.9100300    -3.5650720     0.1192120
  H       -2.7034680    -2.5490840    -0.1532500
  H       -5.0287110    -1.6377420    -0.0567190
  H       -5.2994710    -0.0137980     0.3861010
units angstrom
no_reorient  #important for SAPT in psi4, default
symmetry c1  #important for SAPT in psi4, default
}

set PROPERTIES_ORIGIN ["COM"]
properties('MP2/aug-cc-pvtz', properties = ['dipole'])
--------------------------------------------------------------------------

    Molecular point group: c1
  Charge       = 0
  Multiplicity = 1
  Basis Set: AUG-CC-PVTZ
    Blend: AUG-CC-PVTZ
  Basis Set: (AUG-CC-PVTZ AUX)
    Blend: AUG-CC-PVTZ-JKFIT

    Orbital Energies [Eh]
    ---------------------

    Doubly Occupied:

       1A    -20.578284     2A    -20.573810     3A    -20.570050
       4A    -20.502799     5A    -15.621589     6A    -15.588077
       7A    -15.540468     8A    -11.369593     9A    -11.344723
      10A    -11.329722    11A    -11.318059    12A    -11.301987
      13A    -11.297521    14A    -11.294643    15A    -11.236785
      16A    -11.236700    17A     -1.417337    18A     -1.382887
      19A     -1.375604    20A     -1.367205    21A     -1.291935
      22A     -1.261136    23A     -1.168829    24A     -1.079221
      25A     -1.069157    26A     -1.029028    27A     -0.927694
      28A     -0.897239    29A     -0.869416    30A     -0.830341
      31A     -0.807713    32A     -0.753786    33A     -0.739537
      34A     -0.722683    35A     -0.709570    36A     -0.695185
      37A     -0.690225    38A     -0.674642    39A     -0.656637
      40A     -0.636774    41A     -0.625571    42A     -0.617109
      43A     -0.604780    44A     -0.595159    45A     -0.589750
      46A     -0.573041    47A     -0.568760    48A     -0.547319
      49A     -0.530651    50A     -0.528994    51A     -0.505083
      52A     -0.487633    53A     -0.480967    54A     -0.467395
      55A     -0.459678    56A     -0.444382    57A     -0.437781
      58A     -0.416041    59A     -0.383426    60A     -0.334744

  @DF-RHF Final Energy:  -811.47654775360604

   => Energetics <=

    Nuclear Repulsion Energy =           1170.5259364744581490
    One-Electron Energy =               -3436.0912602520438668
    Two-Electron Energy =                1454.0887760239800173
    Total Energy =                       -811.4765477536059279
  Basis Set: (AUG-CC-PVTZ AUX)
    Blend: AUG-CC-PVTZ-RI
    Molecular point group: c1

    Geometry (in Angstrom), charge = 0, multiplicity = 1:

       Center              X                  Y                   Z               Mass
    ------------   -----------------  -----------------  -----------------  -----------------
         O            1.365185689235    -0.383819456513    -0.930300967351    15.994914619570
         O            3.160077589235     1.918664843487    -0.297410167351    15.994914619570
         O            2.802521689235    -2.752755456513    -0.398657967351    15.994914619570
         O           -1.359071310765     2.370196543487     0.156326032649    15.994914619570
         N           -0.795129310765     0.195609543487    -0.227712967351    14.003074004430
         N           -3.051057310765     0.801430543487     0.241555032649    14.003074004430
         N           -4.670295310765    -0.816243456513     0.414180032649    14.003074004430
         C            2.704709689235     0.871745543487     0.561017032649    12.000000000000
         C            1.241121689235     1.147150843487     0.859448832649    12.000000000000
         C            2.654933689235    -0.396099456513    -0.283926967351    12.000000000000
         C            0.577072689235     0.679195543487    -0.413372967351    12.000000000000
         C            2.805212689235    -1.663824456513     0.524013032649    12.000000000000
         C           -1.124222310765    -1.119627456513    -0.306732967351    12.000000000000
         C           -1.741573310765     1.200083543487     0.083588032649    12.000000000000
         C           -2.414192310765    -1.508369456513    -0.102998967351    12.000000000000
         C           -3.358877310765    -0.476968456513     0.170054032649    12.000000000000
         H            3.337495689235     0.752976543487     1.452396032649     1.007825032230
         H            0.907821689235     0.440020543487     1.695032032649     1.007825032230
         H            0.988443689235     2.130258543487     1.159690032649     1.007825032230
         H            0.530568689235     1.509445543487    -1.123369967351     1.007825032230
         H            3.420606689235    -0.368091456513    -1.065082967351     1.007825032230
         H            1.973863689235    -1.736992456513     1.244766032649     1.007825032230
         H            3.749203689235    -1.613323456513     1.089832032649     1.007825032230
         H            3.106965689235     2.742515543487     0.179526032649     1.007825032230
         H           -0.307625310765    -1.793009456513    -0.542154967351     1.007825032230
         H            2.913144689235    -3.568880456513     0.120755032649     1.007825032230
         H           -2.700353310765    -2.552892456513    -0.151706967351     1.007825032230
         H           -5.025596310765    -1.641550456513    -0.055175967351     1.007825032230
         H           -5.296356310765    -0.017606456513     0.387644032649     1.007825032230

  Basis Set: AUG-CC-PVTZ
    Blend: AUG-CC-PVTZ
  Basis Set: (AUG-CC-PVTZ AUX)
    Blend: AUG-CC-PVTZ-JKFIT
	 Reference Energy          =    -811.4765477536060416 [Eh]
	 Singles Energy            =      -0.0000000000000000 [Eh]
	 Same-Spin Energy          =      -0.8293917498471157 [Eh]
	 Opposite-Spin Energy      =      -2.5244707376011672 [Eh]
	 Correlation Energy        =      -3.3538624874482830 [Eh]
	 Total Energy              =    -814.8304102410543237 [Eh]

	 ================> DF-SCS-MP2 Energies <==================
	-----------------------------------------------------------
	 SCS Same-Spin Scale       =       0.3333333333333333 [-]
	 SCS Opposite-Spin Scale   =       1.2000000000000000 [-]
	 SCS Same-Spin Energy      =      -0.2764639166157052 [Eh]
	 SCS Opposite-Spin Energy  =      -3.0293648851214008 [Eh]
	 SCS Correlation Energy    =      -3.3058288017371060 [Eh]
	 SCS Total Energy          =    -814.7823765553431485 [Eh]
	-----------------------------------------------------------

  Dipole Moment: [D]
     X:     1.2081      Y:    -4.7040      Z:     2.4940     Total:     5.4596

*** Psi4 exiting successfully. Buy a developer a beer!
