                               Psi4 1.4a3.dev225

  ==> Input File <==

--------------------------------------------------------------------------
#psi4
#
memory 32 gb

molecule  {
0 1
  O       -1.4695130     0.3030610    -1.0874480
  O       -3.6436400    -1.4204040    -0.2669360
  O       -1.6911330     2.8536240     0.0000030
  O        1.1857770    -2.4961310     0.0874550
  N        0.6842480    -0.3150290    -0.3399290
  N        2.9133760    -0.9647370     0.2108410
  N        4.5636770     0.6178870     0.3785230
  C       -2.7686820    -0.6858470     0.5863090
  C       -1.3787780    -1.3118450     0.6568060
  C       -2.4925280     0.6283540    -0.1295840
  C       -0.6939390    -0.7805590    -0.6115670
  C       -2.0414120     1.7324860     0.8087370
  C        1.0545030     0.9838330    -0.4888120
  C        1.6080830    -1.3384950     0.0010630
  C        2.3487550     1.3478080    -0.2622830
  C        3.2578570     0.3046130     0.0876290
  H       -3.2188600    -0.5381750     1.5798200
  H       -0.8341690    -0.9801840     1.5464130
  H       -1.3950130    -2.4033150     0.6754970
  H       -0.6263030    -1.5384450    -1.3968420
  H       -3.3591510     0.9641520    -0.7058050
  H       -1.1849610     1.3939850     1.4098140
  H       -2.8667900     1.9743150     1.4948250
  H       -3.6905400    -2.3294490     0.0774600
  H        0.2305301     1.7068712    -0.7837192
  H       -1.4321050     3.5760960     0.5972330
  H        2.6621150     2.3809760    -0.3596430
  H        4.9550500     1.4416620    -0.0591730
  H        5.1797170    -0.1867780     0.4106900
units angstrom
no_reorient  #important for SAPT in psi4, default
symmetry c1  #important for SAPT in psi4, default
}

set PROPERTIES_ORIGIN ["COM"]
properties('MP2/aug-cc-pvtz', properties = ['dipole'])
--------------------------------------------------------------------------

    Molecular point group: c1
  Charge       = 0
  Multiplicity = 1
  Basis Set: AUG-CC-PVTZ
    Blend: AUG-CC-PVTZ
  Basis Set: (AUG-CC-PVTZ AUX)
    Blend: AUG-CC-PVTZ-JKFIT

    Orbital Energies [Eh]
    ---------------------

    Doubly Occupied:

       1A    -20.584207     2A    -20.574481     3A    -20.572712
       4A    -20.501800     5A    -15.619064     6A    -15.588687
       7A    -15.539519     8A    -11.368697     9A    -11.345561
      10A    -11.333128    11A    -11.318366    12A    -11.300493
      13A    -11.299598    14A    -11.294923    15A    -11.237259
      16A    -11.234887    17A     -1.418949    18A     -1.381984
      19A     -1.377762    20A     -1.366191    21A     -1.289965
      22A     -1.258211    23A     -1.168205    24A     -1.075865
      25A     -1.067217    26A     -1.024733    27A     -0.930119
      28A     -0.891353    29A     -0.867605    30A     -0.830151
      31A     -0.804715    32A     -0.753443    33A     -0.736429
      34A     -0.725408    35A     -0.705911    36A     -0.701396
      37A     -0.690299    38A     -0.671328    39A     -0.650400
      40A     -0.642183    41A     -0.622193    42A     -0.617416
      43A     -0.606518    44A     -0.594665    45A     -0.583140
      46A     -0.572247    47A     -0.566024    48A     -0.551475
      49A     -0.526634    50A     -0.520724    51A     -0.510624
      52A     -0.485141    53A     -0.480591    54A     -0.472774
      55A     -0.459403    56A     -0.447952    57A     -0.440551
      58A     -0.413296    59A     -0.382241    60A     -0.333631

  @DF-RHF Final Energy:  -811.47646488909584

   => Energetics <=

    Nuclear Repulsion Energy =           1184.9422971013664210
    One-Electron Energy =               -3464.9766357507264729
    Two-Electron Energy =                1468.5578737602641013
    Total Energy =                       -811.4764648890959506
  Basis Set: (AUG-CC-PVTZ AUX)
    Blend: AUG-CC-PVTZ-RI
    Molecular point group: c1

    Geometry (in Angstrom), charge = 0, multiplicity = 1:

       Center              X                  Y                   Z               Mass
    ------------   -----------------  -----------------  -----------------  -----------------
         O           -1.493811190469     0.326635076105    -1.067763068235    15.994914619570
         O           -3.667938190469    -1.396829923895    -0.247251068235    15.994914619570
         O           -1.715431190469     2.877198076105     0.019687931765    15.994914619570
         O            1.161478809531    -2.472556923895     0.107139931765    15.994914619570
         N            0.659949809531    -0.291454923895    -0.320244068235    14.003074004430
         N            2.889077809531    -0.941162923895     0.230525931765    14.003074004430
         N            4.539378809531     0.641461076105     0.398207931765    14.003074004430
         C           -2.792980190469    -0.662272923895     0.605993931765    12.000000000000
         C           -1.403076190469    -1.288270923895     0.676490931765    12.000000000000
         C           -2.516826190469     0.651928076105    -0.109899068235    12.000000000000
         C           -0.718237190469    -0.756984923895    -0.591882068235    12.000000000000
         C           -2.065710190469     1.756060076105     0.828421931765    12.000000000000
         C            1.030204809531     1.007407076105    -0.469127068235    12.000000000000
         C            1.583784809531    -1.314920923895     0.020747931765    12.000000000000
         C            2.324456809531     1.371382076105    -0.242598068235    12.000000000000
         C            3.233558809531     0.328187076105     0.107313931765    12.000000000000
         H           -3.243158190469    -0.514600923895     1.599504931765     1.007825032230
         H           -0.858467190469    -0.956609923895     1.566097931765     1.007825032230
         H           -1.419311190469    -2.379740923895     0.695181931765     1.007825032230
         H           -0.650601190469    -1.514870923895    -1.377157068235     1.007825032230
         H           -3.383449190469     0.987726076105    -0.686120068235     1.007825032230
         H           -1.209259190469     1.417559076105     1.429498931765     1.007825032230
         H           -2.891088190469     1.997889076105     1.514509931765     1.007825032230
         H           -3.714838190469    -2.305874923895     0.097144931765     1.007825032230
         H            0.206231909531     1.730445276105    -0.764034268235     1.007825032230
         H           -1.456403190469     3.599670076105     0.616917931765     1.007825032230
         H            2.637816809531     2.404550076105    -0.339958068235     1.007825032230
         H            4.930751809531     1.465236076105    -0.039488068235     1.007825032230
         H            5.155418809531    -0.163203923895     0.430374931765     1.007825032230

  Basis Set: AUG-CC-PVTZ
    Blend: AUG-CC-PVTZ
  Basis Set: (AUG-CC-PVTZ AUX)
    Blend: AUG-CC-PVTZ-JKFIT
	 Reference Energy          =    -811.4764648890958370 [Eh]
	 Singles Energy            =      -0.0000000000000000 [Eh]
	 Same-Spin Energy          =      -0.8311231012894836 [Eh]
	 Opposite-Spin Energy      =      -2.5275616010124344 [Eh]
	 Correlation Energy        =      -3.3586847023019182 [Eh]
	 Total Energy              =    -814.8351495913977942 [Eh]

	 ================> DF-SCS-MP2 Energies <==================
	-----------------------------------------------------------
	 SCS Same-Spin Scale       =       0.3333333333333333 [-]
	 SCS Opposite-Spin Scale   =       1.2000000000000000 [-]
	 SCS Same-Spin Energy      =      -0.2770410337631612 [Eh]
	 SCS Opposite-Spin Energy  =      -3.0330739212149211 [Eh]
	 SCS Correlation Energy    =      -3.3101149549780824 [Eh]
	 SCS Total Energy          =    -814.7865798440739127 [Eh]
	-----------------------------------------------------------

  Dipole Moment: [D]
     X:    -0.3726      Y:     4.6158      Z:     2.4073     Total:     5.2191

*** Psi4 exiting successfully. Buy a developer a beer!
