                               Psi4 1.3.2 release

  ==> Input File <==

--------------------------------------------------------------------------
#psi4
#
memory 32 gb

molecule  {
0 1
  O        1.3620710    -0.3800110    -0.9318440
  O        3.2020570     1.9012130    -0.2995130
  O        2.7994070    -2.7489470    -0.4002010
  O       -1.3621860     2.3740050     0.1547830
  N       -0.7982440     0.1994180    -0.2292560
  N       -3.0541720     0.8052390     0.2400120
  N       -4.6734100    -0.8124350     0.4126370
  C        2.7015950     0.8755540     0.5594740
  C        1.2368440     1.1072260     0.8878520
  C        2.6518190    -0.3922910    -0.2854700
  C        0.5739580     0.6830040    -0.4149160
  C        2.8020980    -1.6600160     0.5224700
  C       -1.1154971    -1.1614221    -0.3147733
  C       -1.7446880     1.2038920     0.0820450
  C       -2.4173070    -1.5045610    -0.1045420
  C       -3.3975305    -0.5077997     0.1718719
  H        3.3343810     0.7567850     1.4508530
  H        0.9047070     0.4438290     1.6934890
  H        0.9853290     2.1340670     1.1581470
  H        0.5274540     1.5132540    -1.1249130
  H        3.4174920    -0.3642830    -1.0666260
  H        1.9707490    -1.7331840     1.2432230
  H        3.7460890    -1.6095150     1.0882890
  H        3.1038510     2.7463240     0.1779830
  H       -0.3107400    -1.7892010    -0.5436980
  H        2.9100300    -3.5650720     0.1192120
  H       -2.7034680    -2.5490840    -0.1532500
  H       -5.0287110    -1.6377420    -0.0567190
  H       -5.2994710    -0.0137980     0.3861010
units angstrom
no_reorient  #important for SAPT in psi4, default
symmetry c1  #important for SAPT in psi4, default
}

set PROPERTIES_ORIGIN ["COM"]
properties('MP2/aug-cc-pvtz', properties = ['dipole'])
--------------------------------------------------------------------------

    Molecular point group: c1
  Charge       = 0
  Multiplicity = 1
  Basis Set: AUG-CC-PVTZ
    Blend: AUG-CC-PVTZ
  Basis Set: (AUG-CC-PVTZ AUX)
    Blend: AUG-CC-PVTZ-JKFIT

    Orbital Energies [Eh]
    ---------------------

    Doubly Occupied:

       1A    -20.576957     2A    -20.572222     3A    -20.570382
       4A    -20.496931     5A    -15.616221     6A    -15.599042
       7A    -15.538022     8A    -11.364517     9A    -11.350515
      10A    -11.326037    11A    -11.320838    12A    -11.298498
      13A    -11.295674    14A    -11.291155    15A    -11.241520
      16A    -11.233391    17A     -1.413016    18A     -1.375787
      19A     -1.372229    20A     -1.362984    21A     -1.294612
      22A     -1.257229    23A     -1.163036    24A     -1.076736
      25A     -1.067601    26A     -1.025689    27A     -0.924980
      28A     -0.898400    29A     -0.864388    30A     -0.827767
      31A     -0.804983    32A     -0.756342    33A     -0.734995
      34A     -0.721748    35A     -0.715698    36A     -0.691973
      37A     -0.688288    38A     -0.678105    39A     -0.654252
      40A     -0.633508    41A     -0.626154    42A     -0.620305
      43A     -0.605039    44A     -0.598479    45A     -0.585504
      46A     -0.567913    47A     -0.566230    48A     -0.544282
      49A     -0.535697    50A     -0.519974    51A     -0.509655
      52A     -0.483497    53A     -0.476134    54A     -0.467183
      55A     -0.458299    56A     -0.440176    57A     -0.432846
      58A     -0.411275    59A     -0.376683    60A     -0.335483

  @DF-RHF Final Energy:  -811.47030903373138

   => Energetics <=

    Nuclear Repulsion Energy =           1168.3371993304062926
    One-Electron Energy =               -3431.9008702675218956
    Two-Electron Energy =                1452.0933619033842206
    Total Energy =                       -811.4703090337313824
  Basis Set: (AUG-CC-PVTZ AUX)
    Blend: AUG-CC-PVTZ-RI
    Molecular point group: c1

    Geometry (in Angstrom), charge = 0, multiplicity = 1:

       Center              X                  Y                   Z               Mass
    ------------   -----------------  -----------------  -----------------  -----------------
         O            1.363323273669    -0.375770819380    -0.931678231045    15.994914619570
         O            3.203309273669     1.905453180620    -0.299347231045    15.994914619570
         O            2.800659273669    -2.744706819380    -0.400035231045    15.994914619570
         O           -1.360933726331     2.378245180620     0.154948768955    15.994914619570
         N           -0.796991726331     0.203658180620    -0.229090231045    14.003074004430
         N           -3.052919726331     0.809479180620     0.240177768955    14.003074004430
         N           -4.672157726331    -0.808194819380     0.412802768955    14.003074004430
         C            2.702847273669     0.879794180620     0.559639768955    12.000000000000
         C            1.238096273669     1.111466180620     0.888017768955    12.000000000000
         C            2.653071273669    -0.388050819380    -0.285304231045    12.000000000000
         C            0.575210273669     0.687244180620    -0.414750231045    12.000000000000
         C            2.803350273669    -1.655775819380     0.522635768955    12.000000000000
         C           -1.114244826331    -1.157181919380    -0.314607531045    12.000000000000
         C           -1.743435726331     1.208132180620     0.082210768955    12.000000000000
         C           -2.416054726331    -1.500320819380    -0.104376231045    12.000000000000
         C           -3.396278226331    -0.503559519380     0.172037668955    12.000000000000
         H            3.335633273669     0.761025180620     1.451018768955     1.007825032230
         H            0.905959273669     0.448069180620     1.693654768955     1.007825032230
         H            0.986581273669     2.138307180620     1.158312768955     1.007825032230
         H            0.528706273669     1.517494180620    -1.124747231045     1.007825032230
         H            3.418744273669    -0.360042819380    -1.066460231045     1.007825032230
         H            1.972001273669    -1.728943819380     1.243388768955     1.007825032230
         H            3.747341273669    -1.605274819380     1.088454768955     1.007825032230
         H            3.105103273669     2.750564180620     0.178148768955     1.007825032230
         H           -0.309487726331    -1.784960819380    -0.543532231045     1.007825032230
         H            2.911282273669    -3.560831819380     0.119377768955     1.007825032230
         H           -2.702215726331    -2.544843819380    -0.153084231045     1.007825032230
         H           -5.027458726331    -1.633501819380    -0.056553231045     1.007825032230
         H           -5.298218726331    -0.009557819380     0.386266768955     1.007825032230

  Basis Set: AUG-CC-PVTZ
    Blend: AUG-CC-PVTZ
  Basis Set: (AUG-CC-PVTZ AUX)
    Blend: AUG-CC-PVTZ-JKFIT
	 Reference Energy          =    -811.4703090337313824 [Eh]
	 Singles Energy            =      -0.0000000000000000 [Eh]
	 Same-Spin Energy          =      -0.8302130554680146 [Eh]
	 Opposite-Spin Energy      =      -2.5266082185786320 [Eh]
	 Correlation Energy        =      -3.3568212740466468 [Eh]
	 Total Energy              =    -814.8271303077780203 [Eh]

	 ================> DF-SCS-MP2 Energies <==================
	-----------------------------------------------------------
	 SCS Same-Spin Scale       =       0.3333333333333333 [-]
	 SCS Opposite-Spin Scale   =       1.2000000000000000 [-]
	 SCS Same-Spin Energy      =      -0.2767376851560048 [Eh]
	 SCS Opposite-Spin Energy  =      -3.0319298622943585 [Eh]
	 SCS Correlation Energy    =      -3.3086675474503631 [Eh]
	 SCS Total Energy          =    -814.7789765811817233 [Eh]
	-----------------------------------------------------------

  Dipole Moment: [D]
     X:     0.5341      Y:    -4.9993      Z:     2.5393     Total:     5.6326

*** Psi4 exiting successfully. Buy a developer a beer!
