                               Psi4 1.3.2 release

  ==> Input File <==

--------------------------------------------------------------------------
#psi4
#
memory 32 gb

molecule  {
0 1
  O        1.3620710    -0.3800110    -0.9318440
  O        3.2020570     1.9012130    -0.2995130
  O        2.7994070    -2.7489470    -0.4002010
  O       -1.3621860     2.3740050     0.1547830
  N       -0.7982440     0.1994180    -0.2292560
  N       -3.0541720     0.8052390     0.2400120
  N       -4.6734100    -0.8124350     0.4126370
  C        2.7015950     0.8755540     0.5594740
  C        1.2368440     1.1072260     0.8878520
  C        2.6518190    -0.3922910    -0.2854700
  C        0.5739580     0.6830040    -0.4149160
  C        2.8017209    -1.8126053     0.3931783
  C       -1.1273370    -1.1158190    -0.3082760
  C       -1.7446880     1.2038920     0.0820450
  C       -2.4173070    -1.5045610    -0.1045420
  C       -3.3619920    -0.4731600     0.1685110
  H        3.3343810     0.7567850     1.4508530
  H        0.9047070     0.4438290     1.6934890
  H        0.9853290     2.1340670     1.1581470
  H        0.5274540     1.5132540    -1.1249130
  H        3.4174920    -0.3642830    -1.0666260
  H        1.9707490    -1.7331840     1.2432230
  H        3.7460890    -1.6095150     1.0882890
  H        3.1038510     2.7463240     0.1779830
  H       -0.3107400    -1.7892010    -0.5436980
  H        2.9100300    -3.5650720     0.1192120
  H       -2.7034680    -2.5490840    -0.1532500
  H       -5.0287110    -1.6377420    -0.0567190
  H       -5.2994710    -0.0137980     0.3861010
units angstrom
no_reorient  #important for SAPT in psi4, default
symmetry c1  #important for SAPT in psi4, default
}

set PROPERTIES_ORIGIN ["COM"]
properties('MP2/aug-cc-pvtz', properties = ['dipole'])
--------------------------------------------------------------------------

    Molecular point group: c1
  Charge       = 0
  Multiplicity = 1
  Basis Set: AUG-CC-PVTZ
    Blend: AUG-CC-PVTZ
  Basis Set: (AUG-CC-PVTZ AUX)
    Blend: AUG-CC-PVTZ-JKFIT

    Orbital Energies [Eh]
    ---------------------

    Doubly Occupied:

       1A    -20.601450     2A    -20.572660     3A    -20.568607
       4A    -20.501633     5A    -15.620139     6A    -15.587535
       7A    -15.539683     8A    -11.368511     9A    -11.344019
      10A    -11.328086    11A    -11.317512    12A    -11.308773
      13A    -11.299799    14A    -11.290451    15A    -11.236049
      16A    -11.233508    17A     -1.480559    18A     -1.410911
      19A     -1.379826    20A     -1.365722    21A     -1.290995
      22A     -1.260029    23A     -1.167973    24A     -1.076070
      25A     -1.059510    26A     -1.017787    27A     -0.921853
      28A     -0.895401    29A     -0.868480    30A     -0.828156
      31A     -0.801121    32A     -0.770345    33A     -0.752760
      34A     -0.737853    35A     -0.709043    36A     -0.699588
      37A     -0.688904    38A     -0.680271    39A     -0.661172
      40A     -0.651529    41A     -0.634800    42A     -0.625340
      43A     -0.618211    44A     -0.598128    45A     -0.593592
      46A     -0.572268    47A     -0.569725    48A     -0.541518
      49A     -0.531256    50A     -0.517923    51A     -0.499931
      52A     -0.485332    53A     -0.479543    54A     -0.458135
      55A     -0.441498    56A     -0.429020    57A     -0.419882
      58A     -0.413221    59A     -0.382205    60A     -0.333667

  @DF-RHF Final Energy:  -811.43405496511411

   => Energetics <=

    Nuclear Repulsion Energy =           1170.5038371355453819
    One-Electron Energy =               -3435.7968424810715078
    Two-Electron Energy =                1453.8589503804118976
    Total Energy =                       -811.4340549651142283
  Basis Set: (AUG-CC-PVTZ AUX)
    Blend: AUG-CC-PVTZ-RI
    Molecular point group: c1

    Geometry (in Angstrom), charge = 0, multiplicity = 1:

       Center              X                  Y                   Z               Mass
    ------------   -----------------  -----------------  -----------------  -----------------
         O            1.362090910934    -0.371947860714    -0.925011889239    15.994914619570
         O            3.202076910934     1.909276139286    -0.292680889239    15.994914619570
         O            2.799426910934    -2.740883860714    -0.393368889239    15.994914619570
         O           -1.362166089066     2.382068139286     0.161615110761    15.994914619570
         N           -0.798224089066     0.207481139286    -0.222423889239    14.003074004430
         N           -3.054152089066     0.813302139286     0.246844110761    14.003074004430
         N           -4.673390089066    -0.804371860714     0.419469110761    14.003074004430
         C            2.701614910934     0.883617139286     0.566306110761    12.000000000000
         C            1.236863910934     1.115289139286     0.894684110761    12.000000000000
         C            2.651838910934    -0.384227860714    -0.278637889239    12.000000000000
         C            0.573977910934     0.691067139286    -0.408083889239    12.000000000000
         C            2.801740810934    -1.804542160714     0.400010410761    12.000000000000
         C           -1.127317089066    -1.107755860714    -0.301443889239    12.000000000000
         C           -1.744668089066     1.211955139286     0.088877110761    12.000000000000
         C           -2.417287089066    -1.496497860714    -0.097709889239    12.000000000000
         C           -3.361972089066    -0.465096860714     0.175343110761    12.000000000000
         H            3.334400910934     0.764848139286     1.457685110761     1.007825032230
         H            0.904726910934     0.451892139286     1.700321110761     1.007825032230
         H            0.985348910934     2.142130139286     1.164979110761     1.007825032230
         H            0.527473910934     1.521317139286    -1.118080889239     1.007825032230
         H            3.417511910934    -0.356219860714    -1.059793889239     1.007825032230
         H            1.970768910934    -1.725120860714     1.250055110761     1.007825032230
         H            3.746108910934    -1.601451860714     1.095121110761     1.007825032230
         H            3.103870910934     2.754387139286     0.184815110761     1.007825032230
         H           -0.310720089066    -1.781137860714    -0.536865889239     1.007825032230
         H            2.910049910934    -3.557008860714     0.126044110761     1.007825032230
         H           -2.703448089066    -2.541020860714    -0.146417889239     1.007825032230
         H           -5.028691089066    -1.629678860714    -0.049886889239     1.007825032230
         H           -5.299451089066    -0.005734860714     0.392933110761     1.007825032230

  Basis Set: AUG-CC-PVTZ
    Blend: AUG-CC-PVTZ
  Basis Set: (AUG-CC-PVTZ AUX)
    Blend: AUG-CC-PVTZ-JKFIT
	 Reference Energy          =    -811.4340549651141146 [Eh]
	 Singles Energy            =      -0.0000000000000000 [Eh]
	 Same-Spin Energy          =      -0.8303863297430611 [Eh]
	 Opposite-Spin Energy      =      -2.5240814586788378 [Eh]
	 Correlation Energy        =      -3.3544677884218990 [Eh]
	 Total Energy              =    -814.7885227535359718 [Eh]

	 ================> DF-SCS-MP2 Energies <==================
	-----------------------------------------------------------
	 SCS Same-Spin Scale       =       0.3333333333333333 [-]
	 SCS Opposite-Spin Scale   =       1.2000000000000000 [-]
	 SCS Same-Spin Energy      =      -0.2767954432476870 [Eh]
	 SCS Opposite-Spin Energy  =      -3.0288977504146053 [Eh]
	 SCS Correlation Energy    =      -3.3056931936622922 [Eh]
	 SCS Total Energy          =    -814.7397481587763650 [Eh]
	-----------------------------------------------------------

  Dipole Moment: [D]
     X:     1.1549      Y:    -5.4212      Z:     1.9313     Total:     5.8697

*** Psi4 exiting successfully. Buy a developer a beer!
