                               Psi4 1.3.2 release

  ==> Input File <==

--------------------------------------------------------------------------
#psi4
#
memory 32 gb

molecule  {
0 1
  O        1.3620710    -0.3800110    -0.9318440
  O        3.2020570     1.9012130    -0.2995130
  O        2.7994070    -2.7489470    -0.4002010
  O       -1.3621860     2.3740050     0.1547830
  N       -0.7982440     0.1994180    -0.2292560
  N       -3.0541720     0.8052390     0.2400120
  N       -4.6677438    -0.8355952     0.4097061
  C        2.7015950     0.8755540     0.5594740
  C        1.2368440     1.1072260     0.8878520
  C        2.6518190    -0.3922910    -0.2854700
  C        0.5739580     0.6830040    -0.4149160
  C        2.8020980    -1.6600160     0.5224700
  C       -1.1273370    -1.1158190    -0.3082760
  C       -1.7446880     1.2038920     0.0820450
  C       -2.4353873    -1.5214658    -0.1021078
  C       -3.3619920    -0.4731600     0.1685110
  H        3.3343810     0.7567850     1.4508530
  H        0.9047070     0.4438290     1.6934890
  H        0.9853290     2.1340670     1.1581470
  H        0.5274540     1.5132540    -1.1249130
  H        3.4174920    -0.3642830    -1.0666260
  H        1.9707490    -1.7331840     1.2432230
  H        3.7460890    -1.6095150     1.0882890
  H        3.1038510     2.7463240     0.1779830
  H       -0.3107400    -1.7892010    -0.5436980
  H        2.9100300    -3.5650720     0.1192120
  H       -2.7034680    -2.5490840    -0.1532500
  H       -5.0287110    -1.6377420    -0.0567190
  H       -5.2994710    -0.0137980     0.3861010
units angstrom
no_reorient  #important for SAPT in psi4, default
symmetry c1  #important for SAPT in psi4, default
}

set PROPERTIES_ORIGIN ["COM"]
properties('MP2/aug-cc-pvtz', properties = ['dipole'])
--------------------------------------------------------------------------

    Molecular point group: c1
  Charge       = 0
  Multiplicity = 1
  Basis Set: AUG-CC-PVTZ
    Blend: AUG-CC-PVTZ
  Basis Set: (AUG-CC-PVTZ AUX)
    Blend: AUG-CC-PVTZ-JKFIT

    Orbital Energies [Eh]
    ---------------------

    Doubly Occupied:

       1A    -20.577979     2A    -20.574735     3A    -20.573419
       4A    -20.503856     5A    -15.623873     6A    -15.587083
       7A    -15.541361     8A    -11.370845     9A    -11.344570
      10A    -11.331627    11A    -11.321795    12A    -11.301307
      13A    -11.297148    14A    -11.293475    15A    -11.237410
      16A    -11.236399    17A     -1.417242    18A     -1.382982
      19A     -1.373870    20A     -1.366127    21A     -1.291617
      22A     -1.261321    23A     -1.169639    24A     -1.078261
      25A     -1.067030    26A     -1.027713    27A     -0.927175
      28A     -0.898140    29A     -0.869489    30A     -0.831495
      31A     -0.806332    32A     -0.751712    33A     -0.739705
      34A     -0.721588    35A     -0.707253    36A     -0.692832
      37A     -0.690417    38A     -0.676027    39A     -0.657463
      40A     -0.640327    41A     -0.627591    42A     -0.618416
      43A     -0.604372    44A     -0.592159    45A     -0.588796
      46A     -0.572431    47A     -0.569059    48A     -0.545153
      49A     -0.532624    50A     -0.524518    51A     -0.510781
      52A     -0.486248    53A     -0.481622    54A     -0.468730
      55A     -0.461301    56A     -0.444990    57A     -0.438150
      58A     -0.417053    59A     -0.384156    60A     -0.333009

  @DF-RHF Final Energy:  -811.47685544759054

   => Energetics <=

    Nuclear Repulsion Energy =           1169.4070618111854856
    One-Electron Energy =               -3433.8402361099733753
    Two-Electron Energy =                1452.9563188511972385
    Total Energy =                       -811.4768554475906512
  Basis Set: (AUG-CC-PVTZ AUX)
    Blend: AUG-CC-PVTZ-RI
    Molecular point group: c1

    Geometry (in Angstrom), charge = 0, multiplicity = 1:

       Center              X                  Y                   Z               Mass
    ------------   -----------------  -----------------  -----------------  -----------------
         O            1.362676994985    -0.377689621806    -0.931791866703    15.994914619570
         O            3.202662994985     1.903534378194    -0.299460866703    15.994914619570
         O            2.800012994985    -2.746625621806    -0.400148866703    15.994914619570
         O           -1.361580005015     2.376326378194     0.154835133297    15.994914619570
         N           -0.797638005015     0.201739378194    -0.229203866703    14.003074004430
         N           -3.053566005015     0.807560378194     0.240064133297    14.003074004430
         N           -4.667137805015    -0.833273821806     0.409758233297    14.003074004430
         C            2.702200994985     0.877875378194     0.559526133297    12.000000000000
         C            1.237449994985     1.109547378194     0.887904133297    12.000000000000
         C            2.652424994985    -0.389969621806    -0.285417866703    12.000000000000
         C            0.574563994985     0.685325378194    -0.414863866703    12.000000000000
         C            2.802703994985    -1.657694621806     0.522522133297    12.000000000000
         C           -1.126731005015    -1.113497621806    -0.308223866703    12.000000000000
         C           -1.744082005015     1.206213378194     0.082097133297    12.000000000000
         C           -2.434781305015    -1.519144421806    -0.102055666703    12.000000000000
         C           -3.361386005015    -0.470838621806     0.168563133297    12.000000000000
         H            3.334986994985     0.759106378194     1.450905133297     1.007825032230
         H            0.905312994985     0.446150378194     1.693541133297     1.007825032230
         H            0.985934994985     2.136388378194     1.158199133297     1.007825032230
         H            0.528059994985     1.515575378194    -1.124860866703     1.007825032230
         H            3.418097994985    -0.361961621806    -1.066573866703     1.007825032230
         H            1.971354994985    -1.730862621806     1.243275133297     1.007825032230
         H            3.746694994985    -1.607193621806     1.088341133297     1.007825032230
         H            3.104456994985     2.748645378194     0.178035133297     1.007825032230
         H           -0.310134005015    -1.786879621806    -0.543645866703     1.007825032230
         H            2.910635994985    -3.562750621806     0.119264133297     1.007825032230
         H           -2.702862005015    -2.546762621806    -0.153197866703     1.007825032230
         H           -5.028105005015    -1.635420621806    -0.056666866703     1.007825032230
         H           -5.298865005015    -0.011476621806     0.386153133297     1.007825032230

  Basis Set: AUG-CC-PVTZ
    Blend: AUG-CC-PVTZ
  Basis Set: (AUG-CC-PVTZ AUX)
    Blend: AUG-CC-PVTZ-JKFIT
	 Reference Energy          =    -811.4768554475905376 [Eh]
	 Singles Energy            =      -0.0000000000000000 [Eh]
	 Same-Spin Energy          =      -0.8298358489215929 [Eh]
	 Opposite-Spin Energy      =      -2.5255275183278960 [Eh]
	 Correlation Energy        =      -3.3553633672494891 [Eh]
	 Total Energy              =    -814.8322188148400755 [Eh]

	 ================> DF-SCS-MP2 Energies <==================
	-----------------------------------------------------------
	 SCS Same-Spin Scale       =       0.3333333333333333 [-]
	 SCS Opposite-Spin Scale   =       1.2000000000000000 [-]
	 SCS Same-Spin Energy      =      -0.2766119496405309 [Eh]
	 SCS Opposite-Spin Energy  =      -3.0306330219934750 [Eh]
	 SCS Correlation Energy    =      -3.3072449716340060 [Eh]
	 SCS Total Energy          =    -814.7841004192245009 [Eh]
	-----------------------------------------------------------

  Dipole Moment: [D]
     X:     1.1327      Y:    -4.6339      Z:     2.4828     Total:     5.3778

*** Psi4 exiting successfully. Buy a developer a beer!
