                               Psi4 1.3.2 release

  ==> Input File <==

--------------------------------------------------------------------------
#psi4
#
memory 32 gb

molecule  {
0 1
  O        1.3620710    -0.3800110    -0.9318440
  O        3.2020570     1.9012130    -0.2995130
  O        2.7994070    -2.7489470    -0.4002010
  O       -1.3621860     2.3740050     0.1547830
  N       -0.7982440     0.1994180    -0.2292560
  N       -3.1200523     0.8183757     0.2555187
  N       -4.6875459    -0.7425636     0.4231688
  C        2.7015950     0.8755540     0.5594740
  C        1.2368440     1.1072260     0.8878520
  C        2.6518190    -0.3922910    -0.2854700
  C        0.5739580     0.6830040    -0.4149160
  C        2.8020980    -1.6600160     0.5224700
  C       -1.1273370    -1.1158190    -0.3082760
  C       -1.7446880     1.2038920     0.0820450
  C       -2.4173070    -1.5045610    -0.1045420
  C       -3.3619920    -0.4731600     0.1685110
  H        3.3343810     0.7567850     1.4508530
  H        0.9047070     0.4438290     1.6934890
  H        0.9853290     2.1340670     1.1581470
  H        0.5274540     1.5132540    -1.1249130
  H        3.4174920    -0.3642830    -1.0666260
  H        1.9707490    -1.7331840     1.2432230
  H        3.7460890    -1.6095150     1.0882890
  H        3.1038510     2.7463240     0.1779830
  H       -0.3107400    -1.7892010    -0.5436980
  H        2.9100300    -3.5650720     0.1192120
  H       -2.7034680    -2.5490840    -0.1532500
  H       -5.0287110    -1.6377420    -0.0567190
  H       -5.2994710    -0.0137980     0.3861010
units angstrom
no_reorient  #important for SAPT in psi4, default
symmetry c1  #important for SAPT in psi4, default
}

set PROPERTIES_ORIGIN ["COM"]
properties('MP2/aug-cc-pvtz', properties = ['dipole'])
--------------------------------------------------------------------------

    Molecular point group: c1
  Charge       = 0
  Multiplicity = 1
  Basis Set: AUG-CC-PVTZ
    Blend: AUG-CC-PVTZ
  Basis Set: (AUG-CC-PVTZ AUX)
    Blend: AUG-CC-PVTZ-JKFIT

    Orbital Energies [Eh]
    ---------------------

    Doubly Occupied:

       1A    -20.578659     2A    -20.575458     3A    -20.574661
       4A    -20.508801     5A    -15.624916     6A    -15.581592
       7A    -15.545469     8A    -11.374717     9A    -11.340156
      10A    -11.332999    11A    -11.320933    12A    -11.302111
      13A    -11.297901    14A    -11.294369    15A    -11.240438
      16A    -11.238307    17A     -1.418162    18A     -1.382456
      19A     -1.374579    20A     -1.366765    21A     -1.292303
      22A     -1.263856    23A     -1.154566    24A     -1.080604
      25A     -1.070444    26A     -1.029140    27A     -0.926901
      28A     -0.901297    29A     -0.863711    30A     -0.827133
      31A     -0.808332    32A     -0.750841    33A     -0.740372
      34A     -0.721684    35A     -0.709632    36A     -0.695086
      37A     -0.689979    38A     -0.667788    39A     -0.652225
      40A     -0.635886    41A     -0.626810    42A     -0.623408
      43A     -0.604371    44A     -0.597677    45A     -0.585476
      46A     -0.572622    47A     -0.569410    48A     -0.545790
      49A     -0.532664    50A     -0.525135    51A     -0.510913
      52A     -0.487323    53A     -0.482828    54A     -0.469545
      55A     -0.462446    56A     -0.452576    57A     -0.440749
      58A     -0.415465    59A     -0.379436    60A     -0.336061

  @DF-RHF Final Energy:  -811.46488626373309

   => Energetics <=

    Nuclear Repulsion Energy =           1168.2210733479196278
    One-Electron Energy =               -3431.4200503405936615
    Two-Electron Energy =                1451.7340907289408278
    Total Energy =                       -811.4648862637332059
  Basis Set: (AUG-CC-PVTZ AUX)
    Blend: AUG-CC-PVTZ-RI
    Molecular point group: c1

    Geometry (in Angstrom), charge = 0, multiplicity = 1:

       Center              X                  Y                   Z               Mass
    ------------   -----------------  -----------------  -----------------  -----------------
         O            1.367005018084    -0.385129560394    -0.933449576191    15.994914619570
         O            3.206991018084     1.896094439606    -0.301118576191    15.994914619570
         O            2.804341018084    -2.754065560394    -0.401806576191    15.994914619570
         O           -1.357251981916     2.368886439606     0.153177423809    15.994914619570
         N           -0.793309981916     0.194299439606    -0.230861576191    14.003074004430
         N           -3.115118281916     0.813257139606     0.253913123809    14.003074004430
         N           -4.682611881916    -0.747682160394     0.421563223809    14.003074004430
         C            2.706529018084     0.870435439606     0.557868423809    12.000000000000
         C            1.241778018084     1.102107439606     0.886246423809    12.000000000000
         C            2.656753018084    -0.397409560394    -0.287075576191    12.000000000000
         C            0.578892018084     0.677885439606    -0.416521576191    12.000000000000
         C            2.807032018084    -1.665134560394     0.520864423809    12.000000000000
         C           -1.122402981916    -1.120937560394    -0.309881576191    12.000000000000
         C           -1.739753981916     1.198773439606     0.080439423809    12.000000000000
         C           -2.412372981916    -1.509679560394    -0.106147576191    12.000000000000
         C           -3.357057981916    -0.478278560394     0.166905423809    12.000000000000
         H            3.339315018084     0.751666439606     1.449247423809     1.007825032230
         H            0.909641018084     0.438710439606     1.691883423809     1.007825032230
         H            0.990263018084     2.128948439606     1.156541423809     1.007825032230
         H            0.532388018084     1.508135439606    -1.126518576191     1.007825032230
         H            3.422426018084    -0.369401560394    -1.068231576191     1.007825032230
         H            1.975683018084    -1.738302560394     1.241617423809     1.007825032230
         H            3.751023018084    -1.614633560394     1.086683423809     1.007825032230
         H            3.108785018084     2.741205439606     0.176377423809     1.007825032230
         H           -0.305805981916    -1.794319560394    -0.545303576191     1.007825032230
         H            2.914964018084    -3.570190560394     0.117606423809     1.007825032230
         H           -2.698533981916    -2.554202560394    -0.154855576191     1.007825032230
         H           -5.023776981916    -1.642860560394    -0.058324576191     1.007825032230
         H           -5.294536981916    -0.018916560394     0.384495423809     1.007825032230

  Basis Set: AUG-CC-PVTZ
    Blend: AUG-CC-PVTZ
  Basis Set: (AUG-CC-PVTZ AUX)
    Blend: AUG-CC-PVTZ-JKFIT
	 Reference Energy          =    -811.4648862637330922 [Eh]
	 Singles Energy            =      -0.0000000000000000 [Eh]
	 Same-Spin Energy          =      -0.8296616278199367 [Eh]
	 Opposite-Spin Energy      =      -2.5269159466735767 [Eh]
	 Correlation Energy        =      -3.3565775744935133 [Eh]
	 Total Energy              =    -814.8214638382265775 [Eh]

	 ================> DF-SCS-MP2 Energies <==================
	-----------------------------------------------------------
	 SCS Same-Spin Scale       =       0.3333333333333333 [-]
	 SCS Opposite-Spin Scale   =       1.2000000000000000 [-]
	 SCS Same-Spin Energy      =      -0.2765538759399789 [Eh]
	 SCS Opposite-Spin Energy  =      -3.0322991360082918 [Eh]
	 SCS Correlation Energy    =      -3.3088530119482709 [Eh]
	 SCS Total Energy          =    -814.7737392756813506 [Eh]
	-----------------------------------------------------------

  Dipole Moment: [D]
     X:     1.4199      Y:    -4.6197      Z:     2.4562     Total:     5.4213

*** Psi4 exiting successfully. Buy a developer a beer!
