                               Psi4 1.3.2 release

  ==> Input File <==

--------------------------------------------------------------------------
#psi4
#
memory 32 gb

molecule  {
0 1
  O        1.3620710    -0.3800110    -0.9318440
  O        3.2020570     1.9012130    -0.2995130
  O        2.7994070    -2.7489470    -0.4002010
  O       -1.3621860     2.3740050     0.1547830
  N       -0.7982440     0.1994180    -0.2292560
  N       -3.0541720     0.8052390     0.2400120
  N       -4.6734100    -0.8124350     0.4126370
  C        2.7015950     0.8755540     0.5594740
  C        1.2305475     1.0855061     0.8740196
  C        2.6253630    -0.3928185    -0.2827010
  C        0.5739580     0.6830040    -0.4149160
  C        2.8020980    -1.6600160     0.5224700
  C       -1.1273370    -1.1158190    -0.3082760
  C       -1.7446880     1.2038920     0.0820450
  C       -2.4173070    -1.5045610    -0.1045420
  C       -3.3619920    -0.4731600     0.1685110
  H        3.3343810     0.7567850     1.4508530
  H        0.9047070     0.4438290     1.6934890
  H        0.9853290     2.1340670     1.1581470
  H        0.5274540     1.5132540    -1.1249130
  H        3.4174920    -0.3642830    -1.0666260
  H        1.9707490    -1.7331840     1.2432230
  H        3.7460890    -1.6095150     1.0882890
  H        3.1038510     2.7463240     0.1779830
  H       -0.3107400    -1.7892010    -0.5436980
  H        2.9100300    -3.5650720     0.1192120
  H       -2.7034680    -2.5490840    -0.1532500
  H       -5.0287110    -1.6377420    -0.0567190
  H       -5.2994710    -0.0137980     0.3861010
units angstrom
no_reorient  #important for SAPT in psi4, default
symmetry c1  #important for SAPT in psi4, default
}

set PROPERTIES_ORIGIN ["COM"]
properties('MP2/aug-cc-pvtz', properties = ['dipole'])
--------------------------------------------------------------------------

    Molecular point group: c1
  Charge       = 0
  Multiplicity = 1
  Basis Set: AUG-CC-PVTZ
    Blend: AUG-CC-PVTZ
  Basis Set: (AUG-CC-PVTZ AUX)
    Blend: AUG-CC-PVTZ-JKFIT

    Orbital Energies [Eh]
    ---------------------

    Doubly Occupied:

       1A    -20.577125     2A    -20.574992     3A    -20.574489
       4A    -20.503460     5A    -15.622326     6A    -15.588767
       7A    -15.541279     8A    -11.370425     9A    -11.345540
      10A    -11.331261    11A    -11.318964    12A    -11.300279
      13A    -11.295865    14A    -11.292462    15A    -11.237611
      16A    -11.237077    17A     -1.423194    18A     -1.383086
      19A     -1.373086    20A     -1.367008    21A     -1.292906
      22A     -1.262552    23A     -1.169777    24A     -1.081602
      25A     -1.068883    26A     -1.028696    27A     -0.927489
      28A     -0.898150    29A     -0.868594    30A     -0.831712
      31A     -0.805198    32A     -0.754859    33A     -0.740794
      34A     -0.721479    35A     -0.707180    36A     -0.692402
      37A     -0.689461    38A     -0.676374    39A     -0.657592
      40A     -0.638018    41A     -0.629772    42A     -0.618840
      43A     -0.605453    44A     -0.596162    45A     -0.590255
      46A     -0.574098    47A     -0.567013    48A     -0.543798
      49A     -0.534108    50A     -0.521213    51A     -0.511864
      52A     -0.485062    53A     -0.480046    54A     -0.468352
      55A     -0.460544    56A     -0.444388    57A     -0.438270
      58A     -0.416695    59A     -0.384493    60A     -0.335651

  @DF-RHF Final Energy:  -811.47777271212112

   => Energetics <=

    Nuclear Repulsion Energy =           1170.9896965923733205
    One-Electron Energy =               -3436.9787548536992290
    Two-Electron Energy =                1454.5112855492050130
    Total Energy =                       -811.4777727121211228
  Basis Set: (AUG-CC-PVTZ AUX)
    Blend: AUG-CC-PVTZ-RI
    Molecular point group: c1

    Geometry (in Angstrom), charge = 0, multiplicity = 1:

       Center              X                  Y                   Z               Mass
    ------------   -----------------  -----------------  -----------------  -----------------
         O            1.363801702970    -0.378835432279    -0.931259349781    15.994914619570
         O            3.203787702970     1.902388567721    -0.298928349781    15.994914619570
         O            2.801137702970    -2.747771432279    -0.399616349781    15.994914619570
         O           -1.360455297030     2.375180567721     0.155367650219    15.994914619570
         N           -0.796513297030     0.200593567721    -0.228671349781    14.003074004430
         N           -3.052441297030     0.806414567721     0.240596650219    14.003074004430
         N           -4.671679297030    -0.811259432279     0.413221650219    14.003074004430
         C            2.703325702970     0.876729567721     0.560058650219    12.000000000000
         C            1.232278202970     1.086681667721     0.874604250219    12.000000000000
         C            2.627093702970    -0.391642932279    -0.282116349781    12.000000000000
         C            0.575688702970     0.684179567721    -0.414331349781    12.000000000000
         C            2.803828702970    -1.658840432279     0.523054650219    12.000000000000
         C           -1.125606297030    -1.114643432279    -0.307691349781    12.000000000000
         C           -1.742957297030     1.205067567721     0.082629650219    12.000000000000
         C           -2.415576297030    -1.503385432279    -0.103957349781    12.000000000000
         C           -3.360261297030    -0.471984432279     0.169095650219    12.000000000000
         H            3.336111702970     0.757960567721     1.451437650219     1.007825032230
         H            0.906437702970     0.445004567721     1.694073650219     1.007825032230
         H            0.987059702970     2.135242567721     1.158731650219     1.007825032230
         H            0.529184702970     1.514429567721    -1.124328349781     1.007825032230
         H            3.419222702970    -0.363107432279    -1.066041349781     1.007825032230
         H            1.972479702970    -1.732008432279     1.243807650219     1.007825032230
         H            3.747819702970    -1.608339432279     1.088873650219     1.007825032230
         H            3.105581702970     2.747499567721     0.178567650219     1.007825032230
         H           -0.309009297030    -1.788025432279    -0.543113349781     1.007825032230
         H            2.911760702970    -3.563896432279     0.119796650219     1.007825032230
         H           -2.701737297030    -2.547908432279    -0.152665349781     1.007825032230
         H           -5.026980297030    -1.636566432279    -0.056134349781     1.007825032230
         H           -5.297740297030    -0.012622432279     0.386685650219     1.007825032230

  Basis Set: AUG-CC-PVTZ
    Blend: AUG-CC-PVTZ
  Basis Set: (AUG-CC-PVTZ AUX)
    Blend: AUG-CC-PVTZ-JKFIT
	 Reference Energy          =    -811.4777727121211228 [Eh]
	 Singles Energy            =      -0.0000000000000000 [Eh]
	 Same-Spin Energy          =      -0.8299500692988854 [Eh]
	 Opposite-Spin Energy      =      -2.5252205354917625 [Eh]
	 Correlation Energy        =      -3.3551706047906480 [Eh]
	 Total Energy              =    -814.8329433169117237 [Eh]

	 ================> DF-SCS-MP2 Energies <==================
	-----------------------------------------------------------
	 SCS Same-Spin Scale       =       0.3333333333333333 [-]
	 SCS Opposite-Spin Scale   =       1.2000000000000000 [-]
	 SCS Same-Spin Energy      =      -0.2766500230996284 [Eh]
	 SCS Opposite-Spin Energy  =      -3.0302646425901147 [Eh]
	 SCS Correlation Energy    =      -3.3069146656897432 [Eh]
	 SCS Total Energy          =    -814.7846873778108829 [Eh]
	-----------------------------------------------------------

  Dipole Moment: [D]
     X:     0.9763      Y:    -4.6532      Z:     2.4924     Total:     5.3682

*** Psi4 exiting successfully. Buy a developer a beer!
