                               Psi4 1.3.2 release

  ==> Input File <==

--------------------------------------------------------------------------
#psi4
#
memory 32 gb

molecule  {
0 1
  O        1.3620710    -0.3800110    -0.9318440
  O        3.2020570     1.9012130    -0.2995130
  O        2.7994070    -2.7489470    -0.4002010
  O       -1.3621860     2.3740050     0.1547830
  N       -0.8208630     0.2045720    -0.2243942
  N       -3.0541720     0.8052390     0.2400120
  N       -4.6734100    -0.8124350     0.4126370
  C        2.7015950     0.8755540     0.5594740
  C        1.2368440     1.1072260     0.8878520
  C        2.6518190    -0.3922910    -0.2854700
  C        0.5739580     0.6830040    -0.4149160
  C        2.8020980    -1.6600160     0.5224700
  C       -1.1273370    -1.1158190    -0.3082760
  C       -1.7446880     1.2038920     0.0820450
  C       -2.4233641    -1.4818475    -0.1009420
  C       -3.3619920    -0.4731600     0.1685110
  H        3.3343810     0.7567850     1.4508530
  H        0.9047070     0.4438290     1.6934890
  H        0.9853290     2.1340670     1.1581470
  H        0.5274540     1.5132540    -1.1249130
  H        3.4174920    -0.3642830    -1.0666260
  H        1.9707490    -1.7331840     1.2432230
  H        3.7460890    -1.6095150     1.0882890
  H        3.1038510     2.7463240     0.1779830
  H       -0.3107400    -1.7892010    -0.5436980
  H        2.9100300    -3.5650720     0.1192120
  H       -2.7034680    -2.5490840    -0.1532500
  H       -5.0287110    -1.6377420    -0.0567190
  H       -5.2994710    -0.0137980     0.3861010
units angstrom
no_reorient  #important for SAPT in psi4, default
symmetry c1  #important for SAPT in psi4, default
}

set PROPERTIES_ORIGIN ["COM"]
properties('MP2/aug-cc-pvtz', properties = ['dipole'])
--------------------------------------------------------------------------

    Molecular point group: c1
  Charge       = 0
  Multiplicity = 1
  Basis Set: AUG-CC-PVTZ
    Blend: AUG-CC-PVTZ
  Basis Set: (AUG-CC-PVTZ AUX)
    Blend: AUG-CC-PVTZ-JKFIT

    Orbital Energies [Eh]
    ---------------------

    Doubly Occupied:

       1A    -20.578481     2A    -20.574864     3A    -20.574454
       4A    -20.500074     5A    -15.622534     6A    -15.586997
       7A    -15.538924     8A    -11.366887     9A    -11.341785
      10A    -11.332664    11A    -11.319514    12A    -11.301546
      13A    -11.297641    14A    -11.294073    15A    -11.237611
      16A    -11.237142    17A     -1.417113    18A     -1.383137
      19A     -1.374241    20A     -1.366260    21A     -1.292876
      22A     -1.260946    23A     -1.167528    24A     -1.079449
      25A     -1.069534    26A     -1.030075    27A     -0.926833
      28A     -0.902307    29A     -0.868717    30A     -0.829826
      31A     -0.807257    32A     -0.755294    33A     -0.738528
      34A     -0.721631    35A     -0.706978    36A     -0.693169
      37A     -0.689138    38A     -0.675839    39A     -0.656514
      40A     -0.634756    41A     -0.629004    42A     -0.619849
      43A     -0.605488    44A     -0.596887    45A     -0.589169
      46A     -0.569881    47A     -0.567997    48A     -0.545317
      49A     -0.532934    50A     -0.523286    51A     -0.510947
      52A     -0.486597    53A     -0.481195    54A     -0.469220
      55A     -0.461619    56A     -0.443688    57A     -0.437842
      58A     -0.415605    59A     -0.383298    60A     -0.335158

  @DF-RHF Final Energy:  -811.47752692733707

   => Energetics <=

    Nuclear Repulsion Energy =           1170.3321615648992520
    One-Electron Energy =               -3435.7031440694531739
    Two-Electron Energy =                1453.8934555772168551
    Total Energy =                       -811.4775269273370668
  Basis Set: (AUG-CC-PVTZ AUX)
    Blend: AUG-CC-PVTZ-RI
    Molecular point group: c1

    Geometry (in Angstrom), charge = 0, multiplicity = 1:

       Center              X                  Y                   Z               Mass
    ------------   -----------------  -----------------  -----------------  -----------------
         O            1.363785809450    -0.381529082423    -0.932333991087    15.994914619570
         O            3.203771809450     1.899694917577    -0.300002991087    15.994914619570
         O            2.801121809450    -2.750465082423    -0.400690991087    15.994914619570
         O           -1.360471190550     2.372486917577     0.154293008913    15.994914619570
         N           -0.819148190550     0.203053917577    -0.224884191087    14.003074004430
         N           -3.052457190550     0.803720917577     0.239522008913    14.003074004430
         N           -4.671695190550    -0.813953082423     0.412147008913    14.003074004430
         C            2.703309809450     0.874035917577     0.558984008913    12.000000000000
         C            1.238558809450     1.105707917577     0.887362008913    12.000000000000
         C            2.653533809450    -0.393809082423    -0.285959991087    12.000000000000
         C            0.575672809450     0.681485917577    -0.415405991087    12.000000000000
         C            2.803812809450    -1.661534082423     0.521980008913    12.000000000000
         C           -1.125622190550    -1.117337082423    -0.308765991087    12.000000000000
         C           -1.742973190550     1.202373917577     0.081555008913    12.000000000000
         C           -2.421649290550    -1.483365582423    -0.101431991087    12.000000000000
         C           -3.360277190550    -0.474678082423     0.168021008913    12.000000000000
         H            3.336095809450     0.755266917577     1.450363008913     1.007825032230
         H            0.906421809450     0.442310917577     1.692999008913     1.007825032230
         H            0.987043809450     2.132548917577     1.157657008913     1.007825032230
         H            0.529168809450     1.511735917577    -1.125402991087     1.007825032230
         H            3.419206809450    -0.365801082423    -1.067115991087     1.007825032230
         H            1.972463809450    -1.734702082423     1.242733008913     1.007825032230
         H            3.747803809450    -1.611033082423     1.087799008913     1.007825032230
         H            3.105565809450     2.744805917577     0.177493008913     1.007825032230
         H           -0.309025190550    -1.790719082423    -0.544187991087     1.007825032230
         H            2.911744809450    -3.566590082423     0.118722008913     1.007825032230
         H           -2.701753190550    -2.550602082423    -0.153739991087     1.007825032230
         H           -5.026996190550    -1.639260082423    -0.057208991087     1.007825032230
         H           -5.297756190550    -0.015316082423     0.385611008913     1.007825032230

  Basis Set: AUG-CC-PVTZ
    Blend: AUG-CC-PVTZ
  Basis Set: (AUG-CC-PVTZ AUX)
    Blend: AUG-CC-PVTZ-JKFIT
	 Reference Energy          =    -811.4775269273370668 [Eh]
	 Singles Energy            =      -0.0000000000000000 [Eh]
	 Same-Spin Energy          =      -0.8300125952776691 [Eh]
	 Opposite-Spin Energy      =      -2.5253963947257363 [Eh]
	 Correlation Energy        =      -3.3554089900034052 [Eh]
	 Total Energy              =    -814.8329359173404782 [Eh]

	 ================> DF-SCS-MP2 Energies <==================
	-----------------------------------------------------------
	 SCS Same-Spin Scale       =       0.3333333333333333 [-]
	 SCS Opposite-Spin Scale   =       1.2000000000000000 [-]
	 SCS Same-Spin Energy      =      -0.2766708650925563 [Eh]
	 SCS Opposite-Spin Energy  =      -3.0304756736708836 [Eh]
	 SCS Correlation Energy    =      -3.3071465387634400 [Eh]
	 SCS Total Energy          =    -814.7846734661004575 [Eh]
	-----------------------------------------------------------

  Dipole Moment: [D]
     X:     1.2102      Y:    -4.7612      Z:     2.4634     Total:     5.4957

*** Psi4 exiting successfully. Buy a developer a beer!
