                               Psi4 1.4a3.dev225

  ==> Input File <==

--------------------------------------------------------------------------
#psi4
#
memory 32 gb

molecule  {
0 1
  O       -1.4695130     0.3030610    -1.0874480
  O       -3.6436400    -1.4204040    -0.2669360
  O       -1.6911330     2.8536240     0.0000030
  O        1.1857770    -2.4961310     0.0874550
  N        0.6842480    -0.3150290    -0.3399290
  N        2.9133760    -0.9647370     0.2108410
  N        4.5636770     0.6178870     0.3785230
  C       -2.7686820    -0.6858470     0.5863090
  C       -1.3787780    -1.3118450     0.6568060
  C       -2.4925280     0.6283540    -0.1295840
  C       -0.6939390    -0.7805590    -0.6115670
  C       -2.0354668     1.7470372     0.8211030
  C        1.0545030     0.9838330    -0.4888120
  C        1.6080830    -1.3384950     0.0010630
  C        2.3487550     1.3478080    -0.2622830
  C        3.2578570     0.3046130     0.0876290
  H       -3.2188600    -0.5381750     1.5798200
  H       -0.8341690    -0.9801840     1.5464130
  H       -1.3950130    -2.4033150     0.6754970
  H       -0.6263030    -1.5384450    -1.3968420
  H       -3.3591510     0.9641520    -0.7058050
  H       -1.1849610     1.3939850     1.4098140
  H       -2.8667900     1.9743150     1.4948250
  H       -3.6905400    -2.3294490     0.0774600
  H        0.2668220     1.6750250    -0.7707300
  H       -1.4321050     3.5760960     0.5972330
  H        2.6621150     2.3809760    -0.3596430
  H        4.9550500     1.4416620    -0.0591730
  H        5.1797170    -0.1867780     0.4106900
units angstrom
no_reorient  #important for SAPT in psi4, default
symmetry c1  #important for SAPT in psi4, default
}

set PROPERTIES_ORIGIN ["COM"]
properties('MP2/aug-cc-pvtz', properties = ['dipole'])
--------------------------------------------------------------------------

    Molecular point group: c1
  Charge       = 0
  Multiplicity = 1
  Basis Set: AUG-CC-PVTZ
    Blend: AUG-CC-PVTZ
  Basis Set: (AUG-CC-PVTZ AUX)
    Blend: AUG-CC-PVTZ-JKFIT

    Orbital Energies [Eh]
    ---------------------

    Doubly Occupied:

       1A    -20.584678     2A    -20.574241     3A    -20.572306
       4A    -20.501843     5A    -15.619040     6A    -15.588908
       7A    -15.539818     8A    -11.368728     9A    -11.345807
      10A    -11.332966    11A    -11.314596    12A    -11.299540
      13A    -11.298964    14A    -11.295103    15A    -11.237027
      16A    -11.235338    17A     -1.418482    18A     -1.383357
      19A     -1.378185    20A     -1.366006    21A     -1.290225
      22A     -1.258559    23A     -1.168452    24A     -1.075583
      25A     -1.066312    26A     -1.023181    27A     -0.929998
      28A     -0.895176    29A     -0.867859    30A     -0.829943
      31A     -0.804870    32A     -0.753651    33A     -0.737759
      34A     -0.725401    35A     -0.706939    36A     -0.702514
      37A     -0.689900    38A     -0.673622    39A     -0.651531
      40A     -0.642959    41A     -0.622486    42A     -0.617798
      43A     -0.606234    44A     -0.595470    45A     -0.587688
      46A     -0.572328    47A     -0.566616    48A     -0.551935
      49A     -0.526703    50A     -0.519409    51A     -0.510602
      52A     -0.484832    53A     -0.481038    54A     -0.473712
      55A     -0.458776    56A     -0.446476    57A     -0.440594
      58A     -0.413469    59A     -0.382388    60A     -0.333897

  @DF-RHF Final Energy:  -811.47890108640206

   => Energetics <=

    Nuclear Repulsion Energy =           1184.8333359486293830
    One-Electron Energy =               -3464.7408349078382344
    Two-Electron Energy =                1468.4285978728069040
    Total Energy =                       -811.4789010864021748
  Basis Set: (AUG-CC-PVTZ AUX)
    Blend: AUG-CC-PVTZ-RI
    Molecular point group: c1

    Geometry (in Angstrom), charge = 0, multiplicity = 1:

       Center              X                  Y                   Z               Mass
    ------------   -----------------  -----------------  -----------------  -----------------
         O           -1.494286411735     0.326007489588    -1.068474162559    15.994914619570
         O           -3.668413411735    -1.397457510412    -0.247962162559    15.994914619570
         O           -1.715906411735     2.876570489588     0.018976837441    15.994914619570
         O            1.161003588265    -2.473184510412     0.106428837441    15.994914619570
         N            0.659474588265    -0.292082510412    -0.320955162559    14.003074004430
         N            2.888602588265    -0.941790510412     0.229814837441    14.003074004430
         N            4.538903588265     0.640833489588     0.397496837441    14.003074004430
         C           -2.793455411735    -0.662900510412     0.605282837441    12.000000000000
         C           -1.403551411735    -1.288898510412     0.675779837441    12.000000000000
         C           -2.517301411735     0.651300489588    -0.110610162559    12.000000000000
         C           -0.718712411735    -0.757612510412    -0.592593162559    12.000000000000
         C           -2.060240211735     1.769983689588     0.840076837441    12.000000000000
         C            1.029729588265     1.006779489588    -0.469838162559    12.000000000000
         C            1.583309588265    -1.315548510412     0.020036837441    12.000000000000
         C            2.323981588265     1.370754489588    -0.243309162559    12.000000000000
         C            3.233083588265     0.327559489588     0.106602837441    12.000000000000
         H           -3.243633411735    -0.515228510412     1.598793837441     1.007825032230
         H           -0.858942411735    -0.957237510412     1.565386837441     1.007825032230
         H           -1.419786411735    -2.380368510412     0.694470837441     1.007825032230
         H           -0.651076411735    -1.515498510412    -1.377868162559     1.007825032230
         H           -3.383924411735     0.987098489588    -0.686831162559     1.007825032230
         H           -1.209734411735     1.416931489588     1.428787837441     1.007825032230
         H           -2.891563411735     1.997261489588     1.513798837441     1.007825032230
         H           -3.715313411735    -2.306502510412     0.096433837441     1.007825032230
         H            0.242048588265     1.697971489588    -0.751756162559     1.007825032230
         H           -1.456878411735     3.599042489588     0.616206837441     1.007825032230
         H            2.637341588265     2.403922489588    -0.340669162559     1.007825032230
         H            4.930276588265     1.464608489588    -0.040199162559     1.007825032230
         H            5.154943588265    -0.163831510412     0.429663837441     1.007825032230

  Basis Set: AUG-CC-PVTZ
    Blend: AUG-CC-PVTZ
  Basis Set: (AUG-CC-PVTZ AUX)
    Blend: AUG-CC-PVTZ-JKFIT
	 Reference Energy          =    -811.4789010864020611 [Eh]
	 Singles Energy            =      -0.0000000000000000 [Eh]
	 Same-Spin Energy          =      -0.8307370556950608 [Eh]
	 Opposite-Spin Energy      =      -2.5269751479107465 [Eh]
	 Correlation Energy        =      -3.3577122036058071 [Eh]
	 Total Energy              =    -814.8366132900079037 [Eh]

	 ================> DF-SCS-MP2 Energies <==================
	-----------------------------------------------------------
	 SCS Same-Spin Scale       =       0.3333333333333333 [-]
	 SCS Opposite-Spin Scale   =       1.2000000000000000 [-]
	 SCS Same-Spin Energy      =      -0.2769123518983536 [Eh]
	 SCS Opposite-Spin Energy  =      -3.0323701774928957 [Eh]
	 SCS Correlation Energy    =      -3.3092825293912491 [Eh]
	 SCS Total Energy          =    -814.7881836157932867 [Eh]
	-----------------------------------------------------------

  Dipole Moment: [D]
     X:    -0.3182      Y:     4.6277      Z:     2.4021     Total:     5.2237

*** Psi4 exiting successfully. Buy a developer a beer!
