                               Psi4 1.3.2 release

  ==> Input File <==

--------------------------------------------------------------------------
#psi4
#
memory 32 gb

molecule  {
0 1
  O        1.3620710    -0.3800110    -0.9318440
  O        3.1908385     1.9066463    -0.2994712
  O        2.7994070    -2.7489470    -0.4002010
  O       -1.3621860     2.3740050     0.1547830
  N       -0.7982440     0.1994180    -0.2292560
  N       -3.0541720     0.8052390     0.2400120
  N       -4.6734100    -0.8124350     0.4126370
  C        2.7015950     0.8755540     0.5594740
  C        1.2369675     1.1181879     0.8804015
  C        2.6518190    -0.3922910    -0.2854700
  C        0.5739580     0.6830040    -0.4149160
  C        2.8020980    -1.6600160     0.5224700
  C       -1.1273370    -1.1158190    -0.3082760
  C       -1.7446880     1.2038920     0.0820450
  C       -2.4173070    -1.5045610    -0.1045420
  C       -3.3619920    -0.4731600     0.1685110
  H        3.3343810     0.7567850     1.4508530
  H        0.9047070     0.4438290     1.6934890
  H        0.9853290     2.1340670     1.1581470
  H        0.5274540     1.5132540    -1.1249130
  H        3.4174920    -0.3642830    -1.0666260
  H        1.9707490    -1.7331840     1.2432230
  H        3.7460890    -1.6095150     1.0882890
  H        3.1038510     2.7463240     0.1779830
  H       -0.3107400    -1.7892010    -0.5436980
  H        2.9100300    -3.5650720     0.1192120
  H       -2.7034680    -2.5490840    -0.1532500
  H       -5.0287110    -1.6377420    -0.0567190
  H       -5.2994710    -0.0137980     0.3861010
units angstrom
no_reorient  #important for SAPT in psi4, default
symmetry c1  #important for SAPT in psi4, default
}

set PROPERTIES_ORIGIN ["COM"]
properties('MP2/aug-cc-pvtz', properties = ['dipole'])
--------------------------------------------------------------------------

    Molecular point group: c1
  Charge       = 0
  Multiplicity = 1
  Basis Set: AUG-CC-PVTZ
    Blend: AUG-CC-PVTZ
  Basis Set: (AUG-CC-PVTZ AUX)
    Blend: AUG-CC-PVTZ-JKFIT

    Orbital Energies [Eh]
    ---------------------

    Doubly Occupied:

       1A    -20.577885     2A    -20.573224     3A    -20.573101
       4A    -20.502980     5A    -15.621685     6A    -15.588282
       7A    -15.540711     8A    -11.369814     9A    -11.344952
      10A    -11.330440    11A    -11.318223    12A    -11.301101
      13A    -11.297029    14A    -11.293460    15A    -11.236935
      16A    -11.236702    17A     -1.416810    18A     -1.382503
      19A     -1.374049    20A     -1.366121    21A     -1.292148
      22A     -1.261346    23A     -1.169034    24A     -1.079029
      25A     -1.068972    26A     -1.028222    27A     -0.927000
      28A     -0.897399    29A     -0.869067    30A     -0.830616
      31A     -0.806698    32A     -0.754111    33A     -0.738880
      34A     -0.721332    35A     -0.707430    36A     -0.693423
      37A     -0.689506    38A     -0.675509    39A     -0.656630
      40A     -0.636978    41A     -0.626963    42A     -0.618202
      43A     -0.604670    44A     -0.595111    45A     -0.588959
      46A     -0.572824    47A     -0.568782    48A     -0.545313
      49A     -0.531811    50A     -0.525295    51A     -0.509100
      52A     -0.486308    53A     -0.481915    54A     -0.468278
      55A     -0.460998    56A     -0.444455    57A     -0.437853
      58A     -0.416268    59A     -0.383660    60A     -0.334883

  @DF-RHF Final Energy:  -811.47950401075877

   => Energetics <=

    Nuclear Repulsion Energy =           1170.0846417041614131
    One-Electron Energy =               -3435.2263214324075307
    Two-Electron Energy =                1453.6621757174875711
    Total Energy =                       -811.4795040107587738
  Basis Set: (AUG-CC-PVTZ AUX)
    Blend: AUG-CC-PVTZ-RI
    Molecular point group: c1

    Geometry (in Angstrom), charge = 0, multiplicity = 1:

       Center              X                  Y                   Z               Mass
    ------------   -----------------  -----------------  -----------------  -----------------
         O            1.362854622621    -0.380972978954    -0.931453208031    15.994914619570
         O            3.191622122621     1.905684321046    -0.299080408031    15.994914619570
         O            2.800190622621    -2.749908978954    -0.399810208031    15.994914619570
         O           -1.361402377379     2.373043021046     0.155173791969    15.994914619570
         N           -0.797460377379     0.198456021046    -0.228865208031    14.003074004430
         N           -3.053388377379     0.804277021046     0.240402791969    14.003074004430
         N           -4.672626377379    -0.813396978954     0.413027791969    14.003074004430
         C            2.702378622621     0.874592021046     0.559864791969    12.000000000000
         C            1.237751122621     1.117225921046     0.880792291969    12.000000000000
         C            2.652602622621    -0.393252978954    -0.285079208031    12.000000000000
         C            0.574741622621     0.682042021046    -0.414525208031    12.000000000000
         C            2.802881622621    -1.660977978954     0.522860791969    12.000000000000
         C           -1.126553377379    -1.116780978954    -0.307885208031    12.000000000000
         C           -1.743904377379     1.202930021046     0.082435791969    12.000000000000
         C           -2.416523377379    -1.505522978954    -0.104151208031    12.000000000000
         C           -3.361208377379    -0.474121978954     0.168901791969    12.000000000000
         H            3.335164622621     0.755823021046     1.451243791969     1.007825032230
         H            0.905490622621     0.442867021046     1.693879791969     1.007825032230
         H            0.986112622621     2.133105021046     1.158537791969     1.007825032230
         H            0.528237622621     1.512292021046    -1.124522208031     1.007825032230
         H            3.418275622621    -0.365244978954    -1.066235208031     1.007825032230
         H            1.971532622621    -1.734145978954     1.243613791969     1.007825032230
         H            3.746872622621    -1.610476978954     1.088679791969     1.007825032230
         H            3.104634622621     2.745362021046     0.178373791969     1.007825032230
         H           -0.309956377379    -1.790162978954    -0.543307208031     1.007825032230
         H            2.910813622621    -3.566033978954     0.119602791969     1.007825032230
         H           -2.702684377379    -2.550045978954    -0.152859208031     1.007825032230
         H           -5.027927377379    -1.638703978954    -0.056328208031     1.007825032230
         H           -5.298687377379    -0.014759978954     0.386491791969     1.007825032230

  Basis Set: AUG-CC-PVTZ
    Blend: AUG-CC-PVTZ
  Basis Set: (AUG-CC-PVTZ AUX)
    Blend: AUG-CC-PVTZ-JKFIT
	 Reference Energy          =    -811.4795040107587738 [Eh]
	 Singles Energy            =      -0.0000000000000000 [Eh]
	 Same-Spin Energy          =      -0.8295671486460277 [Eh]
	 Opposite-Spin Energy      =      -2.5249220015128260 [Eh]
	 Correlation Energy        =      -3.3544891501588534 [Eh]
	 Total Energy              =    -814.8339931609176574 [Eh]

	 ================> DF-SCS-MP2 Energies <==================
	-----------------------------------------------------------
	 SCS Same-Spin Scale       =       0.3333333333333333 [-]
	 SCS Opposite-Spin Scale   =       1.2000000000000000 [-]
	 SCS Same-Spin Energy      =      -0.2765223828820092 [Eh]
	 SCS Opposite-Spin Energy  =      -3.0299064018153912 [Eh]
	 SCS Correlation Energy    =      -3.3064287846974003 [Eh]
	 SCS Total Energy          =    -814.7859327954561195 [Eh]
	-----------------------------------------------------------

  Dipole Moment: [D]
     X:     1.1069      Y:    -4.6854      Z:     2.4923     Total:     5.4213

*** Psi4 exiting successfully. Buy a developer a beer!
