                               Psi4 1.4a3.dev225

  ==> Input File <==

--------------------------------------------------------------------------
#psi4
#
memory 32 gb

molecule  {
0 1
  O       -1.4695130     0.3030610    -1.0874480
  O       -3.6436400    -1.4204040    -0.2669360
  O       -1.6911330     2.8536240     0.0000030
  O        1.1857770    -2.4961310     0.0874550
  N        0.6842480    -0.3150290    -0.3399290
  N        2.9133760    -0.9647370     0.2108410
  N        4.5636770     0.6178870     0.3785230
  C       -2.7686820    -0.6858470     0.5863090
  C       -1.3787780    -1.3118450     0.6568060
  C       -2.4925280     0.6283540    -0.1295840
  C       -0.6939390    -0.7805590    -0.6115670
  C       -2.0414120     1.7324860     0.8087370
  C        1.0545030     0.9838330    -0.4888120
  C        1.6080830    -1.3384950     0.0010630
  C        2.3012911     1.3344600    -0.2705905
  C        3.2578570     0.3046130     0.0876290
  H       -3.2188600    -0.5381750     1.5798200
  H       -0.8341690    -0.9801840     1.5464130
  H       -1.3950130    -2.4033150     0.6754970
  H       -0.6263030    -1.5384450    -1.3968420
  H       -3.3591510     0.9641520    -0.7058050
  H       -1.1849610     1.3939850     1.4098140
  H       -2.8667900     1.9743150     1.4948250
  H       -3.6905400    -2.3294490     0.0774600
  H        0.2668220     1.6750250    -0.7707300
  H       -1.4321050     3.5760960     0.5972330
  H        2.6621150     2.3809760    -0.3596430
  H        4.9550500     1.4416620    -0.0591730
  H        5.1797170    -0.1867780     0.4106900
units angstrom
no_reorient  #important for SAPT in psi4, default
symmetry c1  #important for SAPT in psi4, default
}

set PROPERTIES_ORIGIN ["COM"]
properties('MP2/aug-cc-pvtz', properties = ['dipole'])
--------------------------------------------------------------------------

    Molecular point group: c1
  Charge       = 0
  Multiplicity = 1
  Basis Set: AUG-CC-PVTZ
    Blend: AUG-CC-PVTZ
  Basis Set: (AUG-CC-PVTZ AUX)
    Blend: AUG-CC-PVTZ-JKFIT

    Orbital Energies [Eh]
    ---------------------

    Doubly Occupied:

       1A    -20.582452     2A    -20.572650     3A    -20.571583
       4A    -20.501638     5A    -15.613419     6A    -15.593436
       7A    -15.541297     8A    -11.368316     9A    -11.349973
      10A    -11.330909    11A    -11.303594    12A    -11.299109
      13A    -11.298256    14A    -11.293457    15A    -11.235614
      16A    -11.235447    17A     -1.417118    18A     -1.380771
      19A     -1.376573    20A     -1.364994    21A     -1.291152
      22A     -1.258266    23A     -1.170095    24A     -1.078737
      25A     -1.069912    26A     -1.023985    27A     -0.928280
      28A     -0.890928    29A     -0.868486    30A     -0.829523
      31A     -0.804430    32A     -0.755644    33A     -0.736263
      34A     -0.724137    35A     -0.707815    36A     -0.700987
      37A     -0.690011    38A     -0.673115    39A     -0.650731
      40A     -0.639471    41A     -0.622240    42A     -0.612441
      43A     -0.607990    44A     -0.598843    45A     -0.585494
      46A     -0.571395    47A     -0.564708    48A     -0.550400
      49A     -0.526555    50A     -0.518917    51A     -0.509754
      52A     -0.483817    53A     -0.482192    54A     -0.471402
      55A     -0.458788    56A     -0.447715    57A     -0.439640
      58A     -0.412592    59A     -0.383087    60A     -0.338057

  @DF-RHF Final Energy:  -811.47690771422594

   => Energetics <=

    Nuclear Repulsion Energy =           1185.9302969493580804
    One-Electron Energy =               -3466.9972126766938345
    Two-Electron Energy =                1469.5900080131100367
    Total Energy =                       -811.4769077142259448
  Basis Set: (AUG-CC-PVTZ AUX)
    Blend: AUG-CC-PVTZ-RI
    Molecular point group: c1

    Geometry (in Angstrom), charge = 0, multiplicity = 1:

       Center              X                  Y                   Z               Mass
    ------------   -----------------  -----------------  -----------------  -----------------
         O           -1.491464149680     0.327481748722    -1.067381726353    15.994914619570
         O           -3.665591149680    -1.395983251278    -0.246869726353    15.994914619570
         O           -1.713084149680     2.878044748722     0.020069273647    15.994914619570
         O            1.163825850320    -2.471710251278     0.107521273647    15.994914619570
         N            0.662296850320    -0.290608251278    -0.319862726353    14.003074004430
         N            2.891424850320    -0.940316251278     0.230907273647    14.003074004430
         N            4.541725850320     0.642307748722     0.398589273647    14.003074004430
         C           -2.790633149680    -0.661426251278     0.606375273647    12.000000000000
         C           -1.400729149680    -1.287424251278     0.676872273647    12.000000000000
         C           -2.514479149680     0.652774748722    -0.109517726353    12.000000000000
         C           -0.715890149680    -0.756138251278    -0.591500726353    12.000000000000
         C           -2.063363149680     1.756906748722     0.828803273647    12.000000000000
         C            1.032551850320     1.008253748722    -0.468745726353    12.000000000000
         C            1.586131850320    -1.314074251278     0.021129273647    12.000000000000
         C            2.279339950320     1.358880748722    -0.250524226353    12.000000000000
         C            3.235905850320     0.329033748722     0.107695273647    12.000000000000
         H           -3.240811149680    -0.513754251278     1.599886273647     1.007825032230
         H           -0.856120149680    -0.955763251278     1.566479273647     1.007825032230
         H           -1.416964149680    -2.378894251278     0.695563273647     1.007825032230
         H           -0.648254149680    -1.514024251278    -1.376775726353     1.007825032230
         H           -3.381102149680     0.988572748722    -0.685738726353     1.007825032230
         H           -1.206912149680     1.418405748722     1.429880273647     1.007825032230
         H           -2.888741149680     1.998735748722     1.514891273647     1.007825032230
         H           -3.712491149680    -2.305028251278     0.097526273647     1.007825032230
         H            0.244870850320     1.699445748722    -0.750663726353     1.007825032230
         H           -1.454056149680     3.600516748722     0.617299273647     1.007825032230
         H            2.640163850320     2.405396748722    -0.339576726353     1.007825032230
         H            4.933098850320     1.466082748722    -0.039106726353     1.007825032230
         H            5.157765850320    -0.162357251278     0.430756273647     1.007825032230

  Basis Set: AUG-CC-PVTZ
    Blend: AUG-CC-PVTZ
  Basis Set: (AUG-CC-PVTZ AUX)
    Blend: AUG-CC-PVTZ-JKFIT
	 Reference Energy          =    -811.4769077142259448 [Eh]
	 Singles Energy            =      -0.0000000000000000 [Eh]
	 Same-Spin Energy          =      -0.8302468780070322 [Eh]
	 Opposite-Spin Energy      =      -2.5264023755015215 [Eh]
	 Correlation Energy        =      -3.3566492535085537 [Eh]
	 Total Energy              =    -814.8335569677344665 [Eh]

	 ================> DF-SCS-MP2 Energies <==================
	-----------------------------------------------------------
	 SCS Same-Spin Scale       =       0.3333333333333333 [-]
	 SCS Opposite-Spin Scale   =       1.2000000000000000 [-]
	 SCS Same-Spin Energy      =      -0.2767489593356774 [Eh]
	 SCS Opposite-Spin Energy  =      -3.0316828506018259 [Eh]
	 SCS Correlation Energy    =      -3.3084318099375034 [Eh]
	 SCS Total Energy          =    -814.7853395241634189 [Eh]
	-----------------------------------------------------------

  Dipole Moment: [D]
     X:    -0.1188      Y:     4.6081      Z:     2.4352     Total:     5.2134

*** Psi4 exiting successfully. Buy a developer a beer!
