                               Psi4 1.3.2 release

  ==> Input File <==

--------------------------------------------------------------------------
#psi4
#
memory 32 gb

molecule  {
0 1
  O        1.3620710    -0.3800110    -0.9318440
  O        3.2020570     1.9012130    -0.2995130
  O        2.7994070    -2.7489470    -0.4002010
  O       -1.3621860     2.3740050     0.1547830
  N       -0.7982440     0.1994180    -0.2292560
  N       -3.0541720     0.8052390     0.2400120
  N       -4.6734100    -0.8124350     0.4126370
  C        2.6611453     0.8567104     0.5884564
  C        1.2368440     1.1072260     0.8878520
  C        2.6518190    -0.3922910    -0.2854700
  C        0.5739580     0.6830040    -0.4149160
  C        2.8020980    -1.6600160     0.5224700
  C       -1.1273370    -1.1158190    -0.3082760
  C       -1.7446880     1.2038920     0.0820450
  C       -2.4173070    -1.5045610    -0.1045420
  C       -3.3619920    -0.4731600     0.1685110
  H        3.3343810     0.7567850     1.4508530
  H        0.9047070     0.4438290     1.6934890
  H        0.9853290     2.1340670     1.1581470
  H        0.5274540     1.5132540    -1.1249130
  H        3.4056586    -0.3985923    -1.0785213
  H        1.9707490    -1.7331840     1.2432230
  H        3.7460890    -1.6095150     1.0882890
  H        3.1038510     2.7463240     0.1779830
  H       -0.3107400    -1.7892010    -0.5436980
  H        2.9100300    -3.5650720     0.1192120
  H       -2.7034680    -2.5490840    -0.1532500
  H       -5.0287110    -1.6377420    -0.0567190
  H       -5.2994710    -0.0137980     0.3861010
units angstrom
no_reorient  #important for SAPT in psi4, default
symmetry c1  #important for SAPT in psi4, default
}

set PROPERTIES_ORIGIN ["COM"]
properties('MP2/aug-cc-pvtz', properties = ['dipole'])
--------------------------------------------------------------------------

    Molecular point group: c1
  Charge       = 0
  Multiplicity = 1
  Basis Set: AUG-CC-PVTZ
    Blend: AUG-CC-PVTZ
  Basis Set: (AUG-CC-PVTZ AUX)
    Blend: AUG-CC-PVTZ-JKFIT

    Orbital Energies [Eh]
    ---------------------

    Doubly Occupied:

       1A    -20.578260     2A    -20.573094     3A    -20.569364
       4A    -20.503697     5A    -15.622341     6A    -15.588775
       7A    -15.541299     8A    -11.370501     9A    -11.345539
      10A    -11.331926    11A    -11.318823    12A    -11.301594
      13A    -11.296800    14A    -11.294180    15A    -11.237560
      16A    -11.237376    17A     -1.416796    18A     -1.382118
      19A     -1.371208    20A     -1.353545    21A     -1.292773
      22A     -1.261997    23A     -1.169628    24A     -1.085863
      25A     -1.070695    26A     -1.030669    27A     -0.928012
      28A     -0.897715    29A     -0.868090    30A     -0.830825
      31A     -0.807959    32A     -0.754713    33A     -0.739722
      34A     -0.722770    35A     -0.705498    36A     -0.693738
      37A     -0.680661    38A     -0.676065    39A     -0.656848
      40A     -0.637890    41A     -0.627218    42A     -0.618195
      43A     -0.604986    44A     -0.593074    45A     -0.588633
      46A     -0.572977    47A     -0.567731    48A     -0.544559
      49A     -0.529287    50A     -0.525616    51A     -0.507470
      52A     -0.491711    53A     -0.483863    54A     -0.469425
      55A     -0.463480    56A     -0.445988    57A     -0.437675
      58A     -0.417000    59A     -0.384393    60A     -0.335582

  @DF-RHF Final Energy:  -811.47522913028035

   => Energetics <=

    Nuclear Repulsion Energy =           1170.2753088680788096
    One-Electron Energy =               -3435.5895041229728122
    Two-Electron Energy =                1453.8389661246135347
    Total Energy =                       -811.4752291302804679
  Basis Set: (AUG-CC-PVTZ AUX)
    Blend: AUG-CC-PVTZ-RI
    Molecular point group: c1

    Geometry (in Angstrom), charge = 0, multiplicity = 1:

       Center              X                  Y                   Z               Mass
    ------------   -----------------  -----------------  -----------------  -----------------
         O            1.364260957532    -0.378863032842    -0.933322672555    15.994914619570
         O            3.204246957532     1.902360967158    -0.300991672555    15.994914619570
         O            2.801596957532    -2.747799032842    -0.401679672555    15.994914619570
         O           -1.359996042468     2.375152967158     0.153304327445    15.994914619570
         N           -0.796054042468     0.200565967158    -0.230734672555    14.003074004430
         N           -3.051982042468     0.806386967158     0.238533327445    14.003074004430
         N           -4.671220042468    -0.811287032842     0.411158327445    14.003074004430
         C            2.663335257532     0.857858367158     0.586977727445    12.000000000000
         C            1.239033957532     1.108373967158     0.886373327445    12.000000000000
         C            2.654008957532    -0.391143032842    -0.286948672555    12.000000000000
         C            0.576147957532     0.684151967158    -0.416394672555    12.000000000000
         C            2.804287957532    -1.658868032842     0.520991327445    12.000000000000
         C           -1.125147042468    -1.114671032842    -0.309754672555    12.000000000000
         C           -1.742498042468     1.205039967158     0.080566327445    12.000000000000
         C           -2.415117042468    -1.503413032842    -0.106020672555    12.000000000000
         C           -3.359802042468    -0.472012032842     0.167032327445    12.000000000000
         H            3.336570957532     0.757932967158     1.449374327445     1.007825032230
         H            0.906896957532     0.444976967158     1.692010327445     1.007825032230
         H            0.987518957532     2.135214967158     1.156668327445     1.007825032230
         H            0.529643957532     1.514401967158    -1.126391672555     1.007825032230
         H            3.407848557532    -0.397444332842    -1.079999972555     1.007825032230
         H            1.972938957532    -1.732036032842     1.241744327445     1.007825032230
         H            3.748278957532    -1.608367032842     1.086810327445     1.007825032230
         H            3.106040957532     2.747471967158     0.176504327445     1.007825032230
         H           -0.308550042468    -1.788053032842    -0.545176672555     1.007825032230
         H            2.912219957532    -3.563924032842     0.117733327445     1.007825032230
         H           -2.701278042468    -2.547936032842    -0.154728672555     1.007825032230
         H           -5.026521042468    -1.636594032842    -0.058197672555     1.007825032230
         H           -5.297281042468    -0.012650032842     0.384622327445     1.007825032230

  Basis Set: AUG-CC-PVTZ
    Blend: AUG-CC-PVTZ
  Basis Set: (AUG-CC-PVTZ AUX)
    Blend: AUG-CC-PVTZ-JKFIT
	 Reference Energy          =    -811.4752291302803542 [Eh]
	 Singles Energy            =      -0.0000000000000000 [Eh]
	 Same-Spin Energy          =      -0.8300373042149493 [Eh]
	 Opposite-Spin Energy      =      -2.5261575497264972 [Eh]
	 Correlation Energy        =      -3.3561948539414463 [Eh]
	 Total Energy              =    -814.8314239842218285 [Eh]

	 ================> DF-SCS-MP2 Energies <==================
	-----------------------------------------------------------
	 SCS Same-Spin Scale       =       0.3333333333333333 [-]
	 SCS Opposite-Spin Scale   =       1.2000000000000000 [-]
	 SCS Same-Spin Energy      =      -0.2766791014049831 [Eh]
	 SCS Opposite-Spin Energy  =      -3.0313890596717967 [Eh]
	 SCS Correlation Energy    =      -3.3080681610767799 [Eh]
	 SCS Total Energy          =    -814.7832972913571439 [Eh]
	-----------------------------------------------------------

  Dipole Moment: [D]
     X:     0.9403      Y:    -4.8110      Z:     2.5517     Total:     5.5264

*** Psi4 exiting successfully. Buy a developer a beer!
