                               Psi4 1.3.2 release

  ==> Input File <==

--------------------------------------------------------------------------
#psi4
#
memory 32 gb

molecule  {
0 1
  O        1.3620710    -0.3800110    -0.9318440
  O        3.2020570     1.9012130    -0.2995130
  O        2.7994070    -2.7489470    -0.4002010
  O       -1.3621860     2.3740050     0.1547830
  N       -0.8532392     0.1498274    -0.2276313
  N       -3.0332574     0.7375939     0.2262018
  N       -4.6734100    -0.8124350     0.4126370
  C        2.7015950     0.8755540     0.5594740
  C        1.2368440     1.1072260     0.8878520
  C        2.6518190    -0.3922910    -0.2854700
  C        0.5739580     0.6830040    -0.4149160
  C        2.8020980    -1.6600160     0.5224700
  C       -1.1273370    -1.1158190    -0.3082760
  C       -1.7446880     1.2038920     0.0820450
  C       -2.4173070    -1.5045610    -0.1045420
  C       -3.3619920    -0.4731600     0.1685110
  H        3.3343810     0.7567850     1.4508530
  H        0.9047070     0.4438290     1.6934890
  H        0.9853290     2.1340670     1.1581470
  H        0.5274540     1.5132540    -1.1249130
  H        3.4174920    -0.3642830    -1.0666260
  H        1.9707490    -1.7331840     1.2432230
  H        3.7460890    -1.6095150     1.0882890
  H        3.1038510     2.7463240     0.1779830
  H       -0.3107400    -1.7892010    -0.5436980
  H        2.9100300    -3.5650720     0.1192120
  H       -2.7034680    -2.5490840    -0.1532500
  H       -5.0287110    -1.6377420    -0.0567190
  H       -5.2994710    -0.0137980     0.3861010
units angstrom
no_reorient  #important for SAPT in psi4, default
symmetry c1  #important for SAPT in psi4, default
}

set PROPERTIES_ORIGIN ["COM"]
properties('MP2/aug-cc-pvtz', properties = ['dipole'])
--------------------------------------------------------------------------

    Molecular point group: c1
  Charge       = 0
  Multiplicity = 1
  Basis Set: AUG-CC-PVTZ
    Blend: AUG-CC-PVTZ
  Basis Set: (AUG-CC-PVTZ AUX)
    Blend: AUG-CC-PVTZ-JKFIT

    Orbital Energies [Eh]
    ---------------------

    Doubly Occupied:

       1A    -20.578328     2A    -20.576932     3A    -20.575128
       4A    -20.514712     5A    -15.621836     6A    -15.578900
       7A    -15.530689     8A    -11.378415     9A    -11.338009
      10A    -11.330499    11A    -11.306827    12A    -11.303761
      13A    -11.297886    14A    -11.294883    15A    -11.241231
      16A    -11.225093    17A     -1.417847    18A     -1.388599
      19A     -1.375020    20A     -1.367897    21A     -1.306936
      22A     -1.266806    23A     -1.172572    24A     -1.079597
      25A     -1.065761    26A     -1.028567    27A     -0.925807
      28A     -0.902941    29A     -0.874695    30A     -0.831790
      31A     -0.806646    32A     -0.753558    33A     -0.741711
      34A     -0.722687    35A     -0.705760    36A     -0.693573
      37A     -0.690223    38A     -0.675338    39A     -0.654813
      40A     -0.636368    41A     -0.633325    42A     -0.620763
      43A     -0.609126    44A     -0.595511    45A     -0.592584
      46A     -0.572687    47A     -0.565720    48A     -0.546236
      49A     -0.533522    50A     -0.524373    51A     -0.512693
      52A     -0.491605    53A     -0.487918    54A     -0.470154
      55A     -0.464749    56A     -0.450115    57A     -0.439207
      58A     -0.405919    59A     -0.388264    60A     -0.328511

  @DF-RHF Final Energy:  -811.46769466435205

   => Energetics <=

    Nuclear Repulsion Energy =           1171.5485061310625952
    One-Electron Energy =               -3438.0091496676504903
    Two-Electron Energy =                1454.9929488722357291
    Total Energy =                       -811.4676946643519386
  Basis Set: (AUG-CC-PVTZ AUX)
    Blend: AUG-CC-PVTZ-RI
    Molecular point group: c1

    Geometry (in Angstrom), charge = 0, multiplicity = 1:

       Center              X                  Y                   Z               Mass
    ------------   -----------------  -----------------  -----------------  -----------------
         O            1.364172494019    -0.372781939324    -0.931092572040    15.994914619570
         O            3.204158494019     1.908442060676    -0.298761572040    15.994914619570
         O            2.801508494019    -2.741717939324    -0.399449572040    15.994914619570
         O           -1.360084505981     2.381234060676     0.155534427960    15.994914619570
         N           -0.851137705981     0.157056460676    -0.226879872040    14.003074004430
         N           -3.031155905981     0.744822960676     0.226953227960    14.003074004430
         N           -4.671308505981    -0.805205939324     0.413388427960    14.003074004430
         C            2.703696494019     0.882783060676     0.560225427960    12.000000000000
         C            1.238945494019     1.114455060676     0.888603427960    12.000000000000
         C            2.653920494019    -0.385061939324    -0.284718572040    12.000000000000
         C            0.576059494019     0.690233060676    -0.414164572040    12.000000000000
         C            2.804199494019    -1.652786939324     0.523221427960    12.000000000000
         C           -1.125235505981    -1.108589939324    -0.307524572040    12.000000000000
         C           -1.742586505981     1.211121060676     0.082796427960    12.000000000000
         C           -2.415205505981    -1.497331939324    -0.103790572040    12.000000000000
         C           -3.359890505981    -0.465930939324     0.169262427960    12.000000000000
         H            3.336482494019     0.764014060676     1.451604427960     1.007825032230
         H            0.906808494019     0.451058060676     1.694240427960     1.007825032230
         H            0.987430494019     2.141296060676     1.158898427960     1.007825032230
         H            0.529555494019     1.520483060676    -1.124161572040     1.007825032230
         H            3.419593494019    -0.357053939324    -1.065874572040     1.007825032230
         H            1.972850494019    -1.725954939324     1.243974427960     1.007825032230
         H            3.748190494019    -1.602285939324     1.089040427960     1.007825032230
         H            3.105952494019     2.753553060676     0.178734427960     1.007825032230
         H           -0.308638505981    -1.781971939324    -0.542946572040     1.007825032230
         H            2.912131494019    -3.557842939324     0.119963427960     1.007825032230
         H           -2.701366505981    -2.541854939324    -0.152498572040     1.007825032230
         H           -5.026609505981    -1.630512939324    -0.055967572040     1.007825032230
         H           -5.297369505981    -0.006568939324     0.386852427960     1.007825032230

  Basis Set: AUG-CC-PVTZ
    Blend: AUG-CC-PVTZ
  Basis Set: (AUG-CC-PVTZ AUX)
    Blend: AUG-CC-PVTZ-JKFIT
	 Reference Energy          =    -811.4676946643520523 [Eh]
	 Singles Energy            =      -0.0000000000000000 [Eh]
	 Same-Spin Energy          =      -0.8302740013148173 [Eh]
	 Opposite-Spin Energy      =      -2.5249248454527375 [Eh]
	 Correlation Energy        =      -3.3551988467675549 [Eh]
	 Total Energy              =    -814.8228935111195597 [Eh]

	 ================> DF-SCS-MP2 Energies <==================
	-----------------------------------------------------------
	 SCS Same-Spin Scale       =       0.3333333333333333 [-]
	 SCS Opposite-Spin Scale   =       1.2000000000000000 [-]
	 SCS Same-Spin Energy      =      -0.2767580004382724 [Eh]
	 SCS Opposite-Spin Energy  =      -3.0299098145432848 [Eh]
	 SCS Correlation Energy    =      -3.3066678149815574 [Eh]
	 SCS Total Energy          =    -814.7743624793336039 [Eh]
	-----------------------------------------------------------

  Dipole Moment: [D]
     X:     1.5269      Y:    -4.2063      Z:     2.4873     Total:     5.1197

*** Psi4 exiting successfully. Buy a developer a beer!
