                               Psi4 1.3.2 release

  ==> Input File <==

--------------------------------------------------------------------------
#psi4
#
memory 32 gb

molecule  {
0 1
  O        1.3620710    -0.3800110    -0.9318440
  O        3.2020570     1.9012130    -0.2995130
  O        2.7994070    -2.7489470    -0.4002010
  O       -1.3621860     2.3740050     0.1547830
  N       -0.7982440     0.1994180    -0.2292560
  N       -3.0541720     0.8052390     0.2400120
  N       -4.6734100    -0.8124350     0.4126370
  C        2.7015950     0.8755540     0.5594740
  C        1.4297164     1.0767204     0.8446125
  C        2.6518190    -0.3922910    -0.2854700
  C        0.5739580     0.6830040    -0.4149160
  C        2.8020980    -1.6600160     0.5224700
  C       -1.1273370    -1.1158190    -0.3082760
  C       -1.7446880     1.2038920     0.0820450
  C       -2.4173070    -1.5045610    -0.1045420
  C       -3.3619920    -0.4731600     0.1685110
  H        3.3343810     0.7567850     1.4508530
  H        0.9047070     0.4438290     1.6934890
  H        0.9853290     2.1340670     1.1581470
  H        0.5274540     1.5132540    -1.1249130
  H        3.4174920    -0.3642830    -1.0666260
  H        1.9707490    -1.7331840     1.2432230
  H        3.7460890    -1.6095150     1.0882890
  H        3.1038510     2.7463240     0.1779830
  H       -0.3107400    -1.7892010    -0.5436980
  H        2.9100300    -3.5650720     0.1192120
  H       -2.7034680    -2.5490840    -0.1532500
  H       -5.0287110    -1.6377420    -0.0567190
  H       -5.2994710    -0.0137980     0.3861010
units angstrom
no_reorient  #important for SAPT in psi4, default
symmetry c1  #important for SAPT in psi4, default
}

set PROPERTIES_ORIGIN ["COM"]
properties('MP2/aug-cc-pvtz', properties = ['dipole'])
--------------------------------------------------------------------------

    Molecular point group: c1
  Charge       = 0
  Multiplicity = 1
  Basis Set: AUG-CC-PVTZ
    Blend: AUG-CC-PVTZ
  Basis Set: (AUG-CC-PVTZ AUX)
    Blend: AUG-CC-PVTZ-JKFIT

    Orbital Energies [Eh]
    ---------------------

    Doubly Occupied:

       1A    -20.577330     2A    -20.572768     3A    -20.570402
       4A    -20.505000     5A    -15.625873     6A    -15.589960
       7A    -15.542447     8A    -11.372013     9A    -11.347011
      10A    -11.333254    11A    -11.320335    12A    -11.296392
      13A    -11.293720    14A    -11.288992    15A    -11.244397
      16A    -11.239142    17A     -1.419059    18A     -1.384799
      19A     -1.374913    20A     -1.366351    21A     -1.294053
      22A     -1.263034    23A     -1.170447    24A     -1.106992
      25A     -1.071708    26A     -1.028082    27A     -0.932710
      28A     -0.898586    29A     -0.866411    30A     -0.827603
      31A     -0.809229    32A     -0.755948    33A     -0.743611
      34A     -0.722935    35A     -0.710699    36A     -0.691132
      37A     -0.689506    38A     -0.677943    39A     -0.660857
      40A     -0.647129    41A     -0.625581    42A     -0.622422
      43A     -0.604242    44A     -0.596821    45A     -0.589202
      46A     -0.582605    47A     -0.570380    48A     -0.539594
      49A     -0.529452    50A     -0.502007    51A     -0.496366
      52A     -0.488538    53A     -0.486285    54A     -0.465623
      55A     -0.462203    56A     -0.445370    57A     -0.433573
      58A     -0.418434    59A     -0.384956    60A     -0.336655

  @DF-RHF Final Energy:  -811.42739215228130

   => Energetics <=

    Nuclear Repulsion Energy =           1171.2330850345522322
    One-Electron Energy =               -3437.2947874592186963
    Two-Electron Energy =                1454.6343102723853917
    Total Energy =                       -811.4273921522812998
  Basis Set: (AUG-CC-PVTZ AUX)
    Blend: AUG-CC-PVTZ-RI
    Molecular point group: c1

    Geometry (in Angstrom), charge = 0, multiplicity = 1:

       Center              X                  Y                   Z               Mass
    ------------   -----------------  -----------------  -----------------  -----------------
         O            1.351879154307    -0.378399049631    -0.929559089225    15.994914619570
         O            3.191865154307     1.902824950369    -0.297228089225    15.994914619570
         O            2.789215154307    -2.747335049631    -0.397916089225    15.994914619570
         O           -1.372377845693     2.375616950369     0.157067910775    15.994914619570
         N           -0.808435845693     0.201029950369    -0.226971089225    14.003074004430
         N           -3.064363845693     0.806850950369     0.242296910775    14.003074004430
         N           -4.683601845693    -0.810823049631     0.414921910775    14.003074004430
         C            2.691403154307     0.877165950369     0.561758910775    12.000000000000
         C            1.419524554307     1.078332350369     0.846897410775    12.000000000000
         C            2.641627154307    -0.390679049631    -0.283185089225    12.000000000000
         C            0.563766154307     0.684615950369    -0.412631089225    12.000000000000
         C            2.791906154307    -1.658404049631     0.524754910775    12.000000000000
         C           -1.137528845693    -1.114207049631    -0.305991089225    12.000000000000
         C           -1.754879845693     1.205503950369     0.084329910775    12.000000000000
         C           -2.427498845693    -1.502949049631    -0.102257089225    12.000000000000
         C           -3.372183845693    -0.471548049631     0.170795910775    12.000000000000
         H            3.324189154307     0.758396950369     1.453137910775     1.007825032230
         H            0.894515154307     0.445440950369     1.695773910775     1.007825032230
         H            0.975137154307     2.135678950369     1.160431910775     1.007825032230
         H            0.517262154307     1.514865950369    -1.122628089225     1.007825032230
         H            3.407300154307    -0.362671049631    -1.064341089225     1.007825032230
         H            1.960557154307    -1.731572049631     1.245507910775     1.007825032230
         H            3.735897154307    -1.607903049631     1.090573910775     1.007825032230
         H            3.093659154307     2.747935950369     0.180267910775     1.007825032230
         H           -0.320931845693    -1.787589049631    -0.541413089225     1.007825032230
         H            2.899838154307    -3.563460049631     0.121496910775     1.007825032230
         H           -2.713659845693    -2.547472049631    -0.150965089225     1.007825032230
         H           -5.038902845693    -1.636130049631    -0.054434089225     1.007825032230
         H           -5.309662845693    -0.012186049631     0.388385910775     1.007825032230

  Basis Set: AUG-CC-PVTZ
    Blend: AUG-CC-PVTZ
  Basis Set: (AUG-CC-PVTZ AUX)
    Blend: AUG-CC-PVTZ-JKFIT
	 Reference Energy          =    -811.4273921522812998 [Eh]
	 Singles Energy            =      -0.0000000000000000 [Eh]
	 Same-Spin Energy          =      -0.8326749655756853 [Eh]
	 Opposite-Spin Energy      =      -2.5288948176272266 [Eh]
	 Correlation Energy        =      -3.3615697832029117 [Eh]
	 Total Energy              =    -814.7889619354841670 [Eh]

	 ================> DF-SCS-MP2 Energies <==================
	-----------------------------------------------------------
	 SCS Same-Spin Scale       =       0.3333333333333333 [-]
	 SCS Opposite-Spin Scale   =       1.2000000000000000 [-]
	 SCS Same-Spin Energy      =      -0.2775583218585618 [Eh]
	 SCS Opposite-Spin Energy  =      -3.0346737811526716 [Eh]
	 SCS Correlation Energy    =      -3.3122321030112332 [Eh]
	 SCS Total Energy          =    -814.7396242552924832 [Eh]
	-----------------------------------------------------------

  Dipole Moment: [D]
     X:     0.7993      Y:    -4.7892      Z:     2.4664     Total:     5.4459

*** Psi4 exiting successfully. Buy a developer a beer!
