                               Psi4 1.3.2 release

  ==> Input File <==

--------------------------------------------------------------------------
#psi4
#
memory 32 gb

molecule  {
0 1
  O        1.3620710    -0.3800110    -0.9318440
  O        3.2020570     1.9012130    -0.2995130
  O        2.7994070    -2.7489470    -0.4002010
  O       -1.3621860     2.3740050     0.1547830
  N       -0.7982440     0.1994180    -0.2292560
  N       -3.0541720     0.8052390     0.2400120
  N       -4.6734100    -0.8124350     0.4126370
  C        2.7015950     0.8755540     0.5594740
  C        1.2368440     1.1072260     0.8878520
  C        2.6356421    -0.3799514    -0.3026137
  C        0.5739580     0.6830040    -0.4149160
  C        2.8020980    -1.6600160     0.5224700
  C       -1.1273370    -1.1158190    -0.3082760
  C       -1.7446880     1.2038920     0.0820450
  C       -2.4173070    -1.5045610    -0.1045420
  C       -3.3619920    -0.4731600     0.1685110
  H        3.3304486     0.7748918     1.4558506
  H        0.9047070     0.4438290     1.6934890
  H        0.9853290     2.1340670     1.1581470
  H        0.5274540     1.5132540    -1.1249130
  H        3.4174920    -0.3642830    -1.0666260
  H        1.9707490    -1.7331840     1.2432230
  H        3.7460890    -1.6095150     1.0882890
  H        3.1038510     2.7463240     0.1779830
  H       -0.3107400    -1.7892010    -0.5436980
  H        2.9100300    -3.5650720     0.1192120
  H       -2.7034680    -2.5490840    -0.1532500
  H       -5.0287110    -1.6377420    -0.0567190
  H       -5.2994710    -0.0137980     0.3861010
units angstrom
no_reorient  #important for SAPT in psi4, default
symmetry c1  #important for SAPT in psi4, default
}

set PROPERTIES_ORIGIN ["COM"]
properties('MP2/aug-cc-pvtz', properties = ['dipole'])
--------------------------------------------------------------------------

    Molecular point group: c1
  Charge       = 0
  Multiplicity = 1
  Basis Set: AUG-CC-PVTZ
    Blend: AUG-CC-PVTZ
  Basis Set: (AUG-CC-PVTZ AUX)
    Blend: AUG-CC-PVTZ-JKFIT

    Orbital Energies [Eh]
    ---------------------

    Doubly Occupied:

       1A    -20.576610     2A    -20.575487     3A    -20.573445
       4A    -20.503531     5A    -15.622467     6A    -15.588716
       7A    -15.541257     8A    -11.370437     9A    -11.345483
      10A    -11.332077    11A    -11.318885    12A    -11.299989
      13A    -11.295938    14A    -11.292643    15A    -11.237535
      16A    -11.236704    17A     -1.422352    18A     -1.382993
      19A     -1.372570    20A     -1.366647    21A     -1.292874
      22A     -1.262420    23A     -1.169659    24A     -1.079629
      25A     -1.067217    26A     -1.026322    27A     -0.925478
      28A     -0.898082    29A     -0.868991    30A     -0.832276
      31A     -0.807117    32A     -0.754717    33A     -0.740103
      34A     -0.721077    35A     -0.706627    36A     -0.692811
      37A     -0.689123    38A     -0.676067    39A     -0.657213
      40A     -0.637049    41A     -0.628793    42A     -0.618648
      43A     -0.604700    44A     -0.595911    45A     -0.589233
      46A     -0.573540    47A     -0.569440    48A     -0.545174
      49A     -0.533118    50A     -0.525011    51A     -0.509689
      52A     -0.486360    53A     -0.482077    54A     -0.467817
      55A     -0.459399    56A     -0.444261    57A     -0.436464
      58A     -0.416778    59A     -0.384141    60A     -0.335445

  @DF-RHF Final Energy:  -811.47926653717218

   => Energetics <=

    Nuclear Repulsion Energy =           1170.2073797304356049
    One-Electron Energy =               -3435.4400551542717039
    Two-Electron Energy =                1453.7534088866639195
    Total Energy =                       -811.4792665371721796
  Basis Set: (AUG-CC-PVTZ AUX)
    Blend: AUG-CC-PVTZ-RI
    Molecular point group: c1

    Geometry (in Angstrom), charge = 0, multiplicity = 1:

       Center              X                  Y                   Z               Mass
    ------------   -----------------  -----------------  -----------------  -----------------
         O            1.362943261345    -0.380743448177    -0.930960231756    15.994914619570
         O            3.202929261345     1.900480551823    -0.298629231756    15.994914619570
         O            2.800279261345    -2.749679448177    -0.399317231756    15.994914619570
         O           -1.361313738655     2.373272551823     0.155666768244    15.994914619570
         N           -0.797371738655     0.198685551823    -0.228372231756    14.003074004430
         N           -3.053299738655     0.804506551823     0.240895768244    14.003074004430
         N           -4.672537738655    -0.813167448177     0.413520768244    14.003074004430
         C            2.702467261345     0.874821551823     0.560357768244    12.000000000000
         C            1.237716261345     1.106493551823     0.888735768244    12.000000000000
         C            2.636514361345    -0.380683848177    -0.301729931756    12.000000000000
         C            0.574830261345     0.682271551823    -0.414032231756    12.000000000000
         C            2.802970261345    -1.660748448177     0.523353768244    12.000000000000
         C           -1.126464738655    -1.116551448177    -0.307392231756    12.000000000000
         C           -1.743815738655     1.203159551823     0.082928768244    12.000000000000
         C           -2.416434738655    -1.505293448177    -0.103658231756    12.000000000000
         C           -3.361119738655    -0.473892448177     0.169394768244    12.000000000000
         H            3.331320861345     0.774159351823     1.456734368244     1.007825032230
         H            0.905579261345     0.443096551823     1.694372768244     1.007825032230
         H            0.986201261345     2.133334551823     1.159030768244     1.007825032230
         H            0.528326261345     1.512521551823    -1.124029231756     1.007825032230
         H            3.418364261345    -0.365015448177    -1.065742231756     1.007825032230
         H            1.971621261345    -1.733916448177     1.244106768244     1.007825032230
         H            3.746961261345    -1.610247448177     1.089172768244     1.007825032230
         H            3.104723261345     2.745591551823     0.178866768244     1.007825032230
         H           -0.309867738655    -1.789933448177    -0.542814231756     1.007825032230
         H            2.910902261345    -3.565804448177     0.120095768244     1.007825032230
         H           -2.702595738655    -2.549816448177    -0.152366231756     1.007825032230
         H           -5.027838738655    -1.638474448177    -0.055835231756     1.007825032230
         H           -5.298598738655    -0.014530448177     0.386984768244     1.007825032230

  Basis Set: AUG-CC-PVTZ
    Blend: AUG-CC-PVTZ
  Basis Set: (AUG-CC-PVTZ AUX)
    Blend: AUG-CC-PVTZ-JKFIT
	 Reference Energy          =    -811.4792665371721796 [Eh]
	 Singles Energy            =      -0.0000000000000000 [Eh]
	 Same-Spin Energy          =      -0.8295208851297129 [Eh]
	 Opposite-Spin Energy      =      -2.5248018276563968 [Eh]
	 Correlation Energy        =      -3.3543227127861099 [Eh]
	 Total Energy              =    -814.8335892499583224 [Eh]

	 ================> DF-SCS-MP2 Energies <==================
	-----------------------------------------------------------
	 SCS Same-Spin Scale       =       0.3333333333333333 [-]
	 SCS Opposite-Spin Scale   =       1.2000000000000000 [-]
	 SCS Same-Spin Energy      =      -0.2765069617099043 [Eh]
	 SCS Opposite-Spin Energy  =      -3.0297621931876759 [Eh]
	 SCS Correlation Energy    =      -3.3062691548975804 [Eh]
	 SCS Total Energy          =    -814.7855356920697432 [Eh]
	-----------------------------------------------------------

  Dipole Moment: [D]
     X:     0.9818      Y:    -4.6411      Z:     2.4590     Total:     5.3432

*** Psi4 exiting successfully. Buy a developer a beer!
