                               Psi4 1.3.2 release

  ==> Input File <==

--------------------------------------------------------------------------
#psi4
#
memory 32 gb

molecule  {
0 1
  O        1.3620710    -0.3800110    -0.9318440
  O        3.2020570     1.9012130    -0.2995130
  O        2.7994070    -2.7489470    -0.4002010
  O       -1.3621860     2.3740050     0.1547830
  N       -0.7982440     0.1994180    -0.2292560
  N       -3.0541720     0.8052390     0.2400120
  N       -4.6734100    -0.8124350     0.4126370
  C        2.7015950     0.8755540     0.5594740
  C        1.2368440     1.1072260     0.8878520
  C        2.6518190    -0.3922910    -0.2854700
  C        0.5739580     0.6830040    -0.4149160
  C        2.8020980    -1.6600160     0.5224700
  C       -1.1273370    -1.1158190    -0.3082760
  C       -1.7514922     1.2267479     0.0851516
  C       -2.4173070    -1.5045610    -0.1045420
  C       -3.3840366    -0.4678557     0.1722721
  H        3.3343810     0.7567850     1.4508530
  H        0.9047070     0.4438290     1.6934890
  H        0.9853290     2.1340670     1.1581470
  H        0.5274540     1.5132540    -1.1249130
  H        3.4174920    -0.3642830    -1.0666260
  H        1.9707490    -1.7331840     1.2432230
  H        3.7460890    -1.6095150     1.0882890
  H        3.1038510     2.7463240     0.1779830
  H       -0.3107400    -1.7892010    -0.5436980
  H        2.9100300    -3.5650720     0.1192120
  H       -2.7034680    -2.5490840    -0.1532500
  H       -5.0287110    -1.6377420    -0.0567190
  H       -5.2994710    -0.0137980     0.3861010
units angstrom
no_reorient  #important for SAPT in psi4, default
symmetry c1  #important for SAPT in psi4, default
}

set PROPERTIES_ORIGIN ["COM"]
properties('MP2/aug-cc-pvtz', properties = ['dipole'])
--------------------------------------------------------------------------

    Molecular point group: c1
  Charge       = 0
  Multiplicity = 1
  Basis Set: AUG-CC-PVTZ
    Blend: AUG-CC-PVTZ
  Basis Set: (AUG-CC-PVTZ AUX)
    Blend: AUG-CC-PVTZ-JKFIT

    Orbital Energies [Eh]
    ---------------------

    Doubly Occupied:

       1A    -20.576704     2A    -20.573638     3A    -20.571103
       4A    -20.508304     5A    -15.616074     6A    -15.591174
       7A    -15.537788     8A    -11.371031     9A    -11.345676
      10A    -11.328390    11A    -11.314343    12A    -11.299908
      13A    -11.295756    14A    -11.291840    15A    -11.235678
      16A    -11.234603    17A     -1.415250    18A     -1.389184
      19A     -1.372637    20A     -1.365908    21A     -1.295881
      22A     -1.261626    23A     -1.170579    24A     -1.076657
      25A     -1.065501    26A     -1.024236    27A     -0.924609
      28A     -0.890797    29A     -0.868719    30A     -0.829995
      31A     -0.804816    32A     -0.753749    33A     -0.735614
      34A     -0.719914    35A     -0.710422    36A     -0.691964
      37A     -0.689433    38A     -0.676430    39A     -0.655406
      40A     -0.635182    41A     -0.626476    42A     -0.619770
      43A     -0.605150    44A     -0.594451    45A     -0.588940
      46A     -0.572634    47A     -0.567724    48A     -0.544282
      49A     -0.534654    50A     -0.522497    51A     -0.512157
      52A     -0.485035    53A     -0.483936    54A     -0.467470
      55A     -0.460629    56A     -0.446724    57A     -0.436613
      58A     -0.411818    59A     -0.383322    60A     -0.331888

  @DF-RHF Final Energy:  -811.47938059684986

   => Energetics <=

    Nuclear Repulsion Energy =           1169.4503605987454193
    One-Electron Energy =               -3434.0341045949376166
    Two-Electron Energy =                1453.1043633993426738
    Total Energy =                       -811.4793805968497509
  Basis Set: (AUG-CC-PVTZ AUX)
    Blend: AUG-CC-PVTZ-RI
    Molecular point group: c1

    Geometry (in Angstrom), charge = 0, multiplicity = 1:

       Center              X                  Y                   Z               Mass
    ------------   -----------------  -----------------  -----------------  -----------------
         O            1.363595422311    -0.381499088037    -0.932206871143    15.994914619570
         O            3.203581422311     1.899724911963    -0.299875871143    15.994914619570
         O            2.800931422311    -2.750435088037    -0.400563871143    15.994914619570
         O           -1.360661577689     2.372516911963     0.154420128857    15.994914619570
         N           -0.796719577689     0.197929911963    -0.229618871143    14.003074004430
         N           -3.052647577689     0.803750911963     0.239649128857    14.003074004430
         N           -4.671885577689    -0.813923088037     0.412274128857    14.003074004430
         C            2.703119422311     0.874065911963     0.559111128857    12.000000000000
         C            1.238368422311     1.105737911963     0.887489128857    12.000000000000
         C            2.653343422311    -0.393779088037    -0.285832871143    12.000000000000
         C            0.575482422311     0.681515911963    -0.415278871143    12.000000000000
         C            2.803622422311    -1.661504088037     0.522107128857    12.000000000000
         C           -1.125812577689    -1.117307088037    -0.308638871143    12.000000000000
         C           -1.749967777689     1.225259811963     0.084788728857    12.000000000000
         C           -2.415782577689    -1.506049088037    -0.104904871143    12.000000000000
         C           -3.382512177689    -0.469343788037     0.171909228857    12.000000000000
         H            3.335905422311     0.755296911963     1.450490128857     1.007825032230
         H            0.906231422311     0.442340911963     1.693126128857     1.007825032230
         H            0.986853422311     2.132578911963     1.157784128857     1.007825032230
         H            0.528978422311     1.511765911963    -1.125275871143     1.007825032230
         H            3.419016422311    -0.365771088037    -1.066988871143     1.007825032230
         H            1.972273422311    -1.734672088037     1.242860128857     1.007825032230
         H            3.747613422311    -1.611003088037     1.087926128857     1.007825032230
         H            3.105375422311     2.744835911963     0.177620128857     1.007825032230
         H           -0.309215577689    -1.790689088037    -0.544060871143     1.007825032230
         H            2.911554422311    -3.566560088037     0.118849128857     1.007825032230
         H           -2.701943577689    -2.550572088037    -0.153612871143     1.007825032230
         H           -5.027186577689    -1.639230088037    -0.057081871143     1.007825032230
         H           -5.297946577689    -0.015286088037     0.385738128857     1.007825032230

  Basis Set: AUG-CC-PVTZ
    Blend: AUG-CC-PVTZ
  Basis Set: (AUG-CC-PVTZ AUX)
    Blend: AUG-CC-PVTZ-JKFIT
	 Reference Energy          =    -811.4793805968498646 [Eh]
	 Singles Energy            =      -0.0000000000000000 [Eh]
	 Same-Spin Energy          =      -0.8292297353767337 [Eh]
	 Opposite-Spin Energy      =      -2.5243774768974991 [Eh]
	 Correlation Energy        =      -3.3536072122742331 [Eh]
	 Total Energy              =    -814.8329878091241198 [Eh]

	 ================> DF-SCS-MP2 Energies <==================
	-----------------------------------------------------------
	 SCS Same-Spin Scale       =       0.3333333333333333 [-]
	 SCS Opposite-Spin Scale   =       1.2000000000000000 [-]
	 SCS Same-Spin Energy      =      -0.2764099117922446 [Eh]
	 SCS Opposite-Spin Energy  =      -3.0292529722769990 [Eh]
	 SCS Correlation Energy    =      -3.3056628840692435 [Eh]
	 SCS Total Energy          =    -814.7850434809190574 [Eh]
	-----------------------------------------------------------

  Dipole Moment: [D]
     X:     0.8497      Y:    -4.4899      Z:     2.5423     Total:     5.2292

*** Psi4 exiting successfully. Buy a developer a beer!
