                               Psi4 1.3.2 release

  ==> Input File <==

--------------------------------------------------------------------------
#psi4
#
memory 32 gb

molecule  {
0 1
  O        1.3620710    -0.3800110    -0.9318440
  O        3.2020570     1.9012130    -0.2995130
  O        2.7994070    -2.7489470    -0.4002010
  O       -1.3621860     2.3740050     0.1547830
  N       -0.7982440     0.1994180    -0.2292560
  N       -3.0541720     0.8052390     0.2400120
  N       -4.6734100    -0.8124350     0.4126370
  C        2.7015950     0.8755540     0.5594740
  C        1.2368440     1.1072260     0.8878520
  C        2.6518190    -0.3922910    -0.2854700
  C        0.5739580     0.6830040    -0.4149160
  C        2.8020980    -1.6600160     0.5224700
  C       -1.1273370    -1.1158190    -0.3082760
  C       -1.7446880     1.2038920     0.0820450
  C       -2.3226365    -1.4760314    -0.1194940
  C       -3.3619920    -0.4731600     0.1685110
  H        3.3343810     0.7567850     1.4508530
  H        0.9047070     0.4438290     1.6934890
  H        0.9853290     2.1340670     1.1581470
  H        0.5274540     1.5132540    -1.1249130
  H        3.4174920    -0.3642830    -1.0666260
  H        1.9707490    -1.7331840     1.2432230
  H        3.7460890    -1.6095150     1.0882890
  H        3.1038510     2.7463240     0.1779830
  H       -0.3107400    -1.7892010    -0.5436980
  H        2.9100300    -3.5650720     0.1192120
  H       -2.7034680    -2.5490840    -0.1532500
  H       -5.0287110    -1.6377420    -0.0567190
  H       -5.2994710    -0.0137980     0.3861010
units angstrom
no_reorient  #important for SAPT in psi4, default
symmetry c1  #important for SAPT in psi4, default
}

set PROPERTIES_ORIGIN ["COM"]
properties('MP2/aug-cc-pvtz', properties = ['dipole'])
--------------------------------------------------------------------------

    Molecular point group: c1
  Charge       = 0
  Multiplicity = 1
  Basis Set: AUG-CC-PVTZ
    Blend: AUG-CC-PVTZ
  Basis Set: (AUG-CC-PVTZ AUX)
    Blend: AUG-CC-PVTZ-JKFIT

    Orbital Energies [Eh]
    ---------------------

    Doubly Occupied:

       1A    -20.575911     2A    -20.572266     3A    -20.569479
       4A    -20.502674     5A    -15.610678     6A    -15.596956
       7A    -15.543664     8A    -11.369061     9A    -11.353086
      10A    -11.326394    11A    -11.298398    12A    -11.295865
      13A    -11.294821    14A    -11.290595    15A    -11.237026
      16A    -11.233604    17A     -1.413331    18A     -1.381058
      19A     -1.371609    20A     -1.363578    21A     -1.293920
      22A     -1.261060    23A     -1.172242    24A     -1.088241
      25A     -1.070444    26A     -1.026361    27A     -0.922799
      28A     -0.888854    29A     -0.870021    30A     -0.830273
      31A     -0.804867    32A     -0.757888    33A     -0.735950
      34A     -0.718986    35A     -0.708058    36A     -0.690667
      37A     -0.687974    38A     -0.676087    39A     -0.655137
      40A     -0.634178    41A     -0.627330    42A     -0.609516
      43A     -0.607884    44A     -0.598560    45A     -0.584034
      46A     -0.568678    47A     -0.566319    48A     -0.542735
      49A     -0.532207    50A     -0.519731    51A     -0.508700
      52A     -0.487230    53A     -0.482789    54A     -0.466727
      55A     -0.459977    56A     -0.443649    57A     -0.435582
      58A     -0.413956    59A     -0.384791    60A     -0.343438

  @DF-RHF Final Energy:  -811.46642716653321

   => Energetics <=

    Nuclear Repulsion Energy =           1171.5016565787243508
    One-Electron Energy =               -3438.1803898547136669
    Two-Electron Energy =                1455.2123061094562217
    Total Energy =                       -811.4664271665333217
  Basis Set: (AUG-CC-PVTZ AUX)
    Blend: AUG-CC-PVTZ-RI
    Molecular point group: c1

    Geometry (in Angstrom), charge = 0, multiplicity = 1:

       Center              X                  Y                   Z               Mass
    ------------   -----------------  -----------------  -----------------  -----------------
         O            1.357068372924    -0.381518607999    -0.931053867041    15.994914619570
         O            3.197054372924     1.899705392001    -0.298722867041    15.994914619570
         O            2.794404372924    -2.750454607999    -0.399410867041    15.994914619570
         O           -1.367188627076     2.372497392001     0.155573132959    15.994914619570
         N           -0.803246627076     0.197910392001    -0.228465867041    14.003074004430
         N           -3.059174627076     0.803731392001     0.240802132959    14.003074004430
         N           -4.678412627076    -0.813942607999     0.413427132959    14.003074004430
         C            2.696592372924     0.874046392001     0.560264132959    12.000000000000
         C            1.231841372924     1.105718392001     0.888642132959    12.000000000000
         C            2.646816372924    -0.393798607999    -0.284679867041    12.000000000000
         C            0.568955372924     0.681496392001    -0.414125867041    12.000000000000
         C            2.797095372924    -1.661523607999     0.523260132959    12.000000000000
         C           -1.132339627076    -1.117326607999    -0.307485867041    12.000000000000
         C           -1.749690627076     1.202384392001     0.082835132959    12.000000000000
         C           -2.327639127076    -1.477539007999    -0.118703867041    12.000000000000
         C           -3.366994627076    -0.474667607999     0.169301132959    12.000000000000
         H            3.329378372924     0.755277392001     1.451643132959     1.007825032230
         H            0.899704372924     0.442321392001     1.694279132959     1.007825032230
         H            0.980326372924     2.132559392001     1.158937132959     1.007825032230
         H            0.522451372924     1.511746392001    -1.124122867041     1.007825032230
         H            3.412489372924    -0.365790607999    -1.065835867041     1.007825032230
         H            1.965746372924    -1.734691607999     1.244013132959     1.007825032230
         H            3.741086372924    -1.611022607999     1.089079132959     1.007825032230
         H            3.098848372924     2.744816392001     0.178773132959     1.007825032230
         H           -0.315742627076    -1.790708607999    -0.542907867041     1.007825032230
         H            2.905027372924    -3.566579607999     0.120002132959     1.007825032230
         H           -2.708470627076    -2.550591607999    -0.152459867041     1.007825032230
         H           -5.033713627076    -1.639249607999    -0.055928867041     1.007825032230
         H           -5.304473627076    -0.015305607999     0.386891132959     1.007825032230

  Basis Set: AUG-CC-PVTZ
    Blend: AUG-CC-PVTZ
  Basis Set: (AUG-CC-PVTZ AUX)
    Blend: AUG-CC-PVTZ-JKFIT
	 Reference Energy          =    -811.4664271665332080 [Eh]
	 Singles Energy            =      -0.0000000000000000 [Eh]
	 Same-Spin Energy          =      -0.8285664891236925 [Eh]
	 Opposite-Spin Energy      =      -2.5240347858412946 [Eh]
	 Correlation Energy        =      -3.3526012749649872 [Eh]
	 Total Energy              =    -814.8190284414981761 [Eh]

	 ================> DF-SCS-MP2 Energies <==================
	-----------------------------------------------------------
	 SCS Same-Spin Scale       =       0.3333333333333333 [-]
	 SCS Opposite-Spin Scale   =       1.2000000000000000 [-]
	 SCS Same-Spin Energy      =      -0.2761888297078975 [Eh]
	 SCS Opposite-Spin Energy  =      -3.0288417430095533 [Eh]
	 SCS Correlation Energy    =      -3.3050305727174507 [Eh]
	 SCS Total Energy          =    -814.7714577392506499 [Eh]
	-----------------------------------------------------------

  Dipole Moment: [D]
     X:     0.6552      Y:    -4.7049      Z:     2.5364     Total:     5.3850

*** Psi4 exiting successfully. Buy a developer a beer!
