                               Psi4 1.3.2 release

  ==> Input File <==

--------------------------------------------------------------------------
#psi4
#
memory 32 gb

molecule  {
0 1
  O        1.3620710    -0.3800110    -0.9318440
  O        3.2020570     1.9012130    -0.2995130
  O        2.7994070    -2.7489470    -0.4002010
  O       -1.3621860     2.3740050     0.1547830
  N       -0.7982440     0.1994180    -0.2292560
  N       -3.0541720     0.8052390     0.2400120
  N       -4.6734100    -0.8124350     0.4126370
  C        2.7031472     0.8381806     0.5970446
  C        1.2368440     1.1072260     0.8878520
  C        2.6518190    -0.3922910    -0.2854700
  C        0.5739580     0.6830040    -0.4149160
  C        2.8020980    -1.6600160     0.5224700
  C       -1.1273370    -1.1158190    -0.3082760
  C       -1.7446880     1.2038920     0.0820450
  C       -2.4173070    -1.5045610    -0.1045420
  C       -3.3619920    -0.4731600     0.1685110
  H        3.3343810     0.7567850     1.4508530
  H        0.9399434     0.4290783     1.6949625
  H        0.9853290     2.1340670     1.1581470
  H        0.5274540     1.5132540    -1.1249130
  H        3.4174920    -0.3642830    -1.0666260
  H        1.9707490    -1.7331840     1.2432230
  H        3.7460890    -1.6095150     1.0882890
  H        3.1038510     2.7463240     0.1779830
  H       -0.3107400    -1.7892010    -0.5436980
  H        2.9100300    -3.5650720     0.1192120
  H       -2.7034680    -2.5490840    -0.1532500
  H       -5.0287110    -1.6377420    -0.0567190
  H       -5.2994710    -0.0137980     0.3861010
units angstrom
no_reorient  #important for SAPT in psi4, default
symmetry c1  #important for SAPT in psi4, default
}

set PROPERTIES_ORIGIN ["COM"]
properties('MP2/aug-cc-pvtz', properties = ['dipole'])
--------------------------------------------------------------------------

    Molecular point group: c1
  Charge       = 0
  Multiplicity = 1
  Basis Set: AUG-CC-PVTZ
    Blend: AUG-CC-PVTZ
  Basis Set: (AUG-CC-PVTZ AUX)
    Blend: AUG-CC-PVTZ-JKFIT

    Orbital Energies [Eh]
    ---------------------

    Doubly Occupied:

       1A    -20.578153     2A    -20.574299     3A    -20.568180
       4A    -20.503403     5A    -15.622193     6A    -15.588613
       7A    -15.541091     8A    -11.370258     9A    -11.345351
      10A    -11.331944    11A    -11.318695    12A    -11.300212
      13A    -11.297426    14A    -11.294466    15A    -11.238637
      16A    -11.237396    17A     -1.416363    18A     -1.381831
      19A     -1.370960    20A     -1.351776    21A     -1.292553
      22A     -1.261808    23A     -1.169418    24A     -1.081310
      25A     -1.071465    26A     -1.028804    27A     -0.927620
      28A     -0.897721    29A     -0.869205    30A     -0.831007
      31A     -0.810411    32A     -0.754630    33A     -0.740239
      34A     -0.721963    35A     -0.705345    36A     -0.693091
      37A     -0.680796    38A     -0.675664    39A     -0.656425
      40A     -0.636197    41A     -0.628435    42A     -0.616643
      43A     -0.605109    44A     -0.593397    45A     -0.588751
      46A     -0.573159    47A     -0.567722    48A     -0.544573
      49A     -0.529210    50A     -0.524786    51A     -0.507934
      52A     -0.492292    53A     -0.482107    54A     -0.468354
      55A     -0.462508    56A     -0.445959    57A     -0.438544
      58A     -0.416774    59A     -0.384232    60A     -0.335377

  @DF-RHF Final Energy:  -811.47544736172426

   => Energetics <=

    Nuclear Repulsion Energy =           1169.5786952547011879
    One-Electron Energy =               -3434.2227191072806818
    Two-Electron Energy =                1453.1685764908550027
    Total Energy =                       -811.4754473617242638
  Basis Set: (AUG-CC-PVTZ AUX)
    Blend: AUG-CC-PVTZ-RI
    Molecular point group: c1

    Geometry (in Angstrom), charge = 0, multiplicity = 1:

       Center              X                  Y                   Z               Mass
    ------------   -----------------  -----------------  -----------------  -----------------
         O            1.361832583534    -0.377970675571    -0.933835823730    15.994914619570
         O            3.201818583534     1.903253324429    -0.301504823730    15.994914619570
         O            2.799168583534    -2.746906675571    -0.402192823730    15.994914619570
         O           -1.362424416466     2.376045324429     0.152791176270    15.994914619570
         N           -0.798482416466     0.201458324429    -0.231247823730    14.003074004430
         N           -3.054410416466     0.807279324429     0.238020176270    14.003074004430
         N           -4.673648416466    -0.810394675571     0.410645176270    14.003074004430
         C            2.702908783534     0.840220924429     0.595052776270    12.000000000000
         C            1.236605583534     1.109266324429     0.885860176270    12.000000000000
         C            2.651580583534    -0.390250675571    -0.287461823730    12.000000000000
         C            0.573719583534     0.685044324429    -0.416907823730    12.000000000000
         C            2.801859583534    -1.657975675571     0.520478176270    12.000000000000
         C           -1.127575416466    -1.113778675571    -0.310267823730    12.000000000000
         C           -1.744926416466     1.205932324429     0.080053176270    12.000000000000
         C           -2.417545416466    -1.502520675571    -0.106533823730    12.000000000000
         C           -3.362230416466    -0.471119675571     0.166519176270    12.000000000000
         H            3.334142583534     0.758825324429     1.448861176270     1.007825032230
         H            0.939704983534     0.431118624429     1.692970676270     1.007825032230
         H            0.985090583534     2.136107324429     1.156155176270     1.007825032230
         H            0.527215583534     1.515294324429    -1.126904823730     1.007825032230
         H            3.417253583534    -0.362242675571    -1.068617823730     1.007825032230
         H            1.970510583534    -1.731143675571     1.241231176270     1.007825032230
         H            3.745850583534    -1.607474675571     1.086297176270     1.007825032230
         H            3.103612583534     2.748364324429     0.175991176270     1.007825032230
         H           -0.310978416466    -1.787160675571    -0.545689823730     1.007825032230
         H            2.909791583534    -3.563031675571     0.117220176270     1.007825032230
         H           -2.703706416466    -2.547043675571    -0.155241823730     1.007825032230
         H           -5.028949416466    -1.635701675571    -0.058710823730     1.007825032230
         H           -5.299709416466    -0.011757675571     0.384109176270     1.007825032230

  Basis Set: AUG-CC-PVTZ
    Blend: AUG-CC-PVTZ
  Basis Set: (AUG-CC-PVTZ AUX)
    Blend: AUG-CC-PVTZ-JKFIT
	 Reference Energy          =    -811.4754473617242638 [Eh]
	 Singles Energy            =      -0.0000000000000000 [Eh]
	 Same-Spin Energy          =      -0.8297846138136640 [Eh]
	 Opposite-Spin Energy      =      -2.5260508284061758 [Eh]
	 Correlation Energy        =      -3.3558354422198398 [Eh]
	 Total Energy              =    -814.8312828039440774 [Eh]

	 ================> DF-SCS-MP2 Energies <==================
	-----------------------------------------------------------
	 SCS Same-Spin Scale       =       0.3333333333333333 [-]
	 SCS Opposite-Spin Scale   =       1.2000000000000000 [-]
	 SCS Same-Spin Energy      =      -0.2765948712712213 [Eh]
	 SCS Opposite-Spin Energy  =      -3.0312609940874107 [Eh]
	 SCS Correlation Energy    =      -3.3078558653586319 [Eh]
	 SCS Total Energy          =    -814.7833032270829108 [Eh]
	-----------------------------------------------------------

  Dipole Moment: [D]
     X:     1.0136      Y:    -4.8226      Z:     2.5777     Total:     5.5615

*** Psi4 exiting successfully. Buy a developer a beer!
