                               Psi4 1.3.2 release

  ==> Input File <==

--------------------------------------------------------------------------
#psi4
#
memory 32 gb

molecule  {
0 1
  O        1.3620710    -0.3800110    -0.9318440
  O        3.2020570     1.9012130    -0.2995130
  O        2.8398764    -2.7295668    -0.4218465
  O       -1.3621860     2.3740050     0.1547830
  N       -0.7982440     0.1994180    -0.2292560
  N       -3.0541720     0.8052390     0.2400120
  N       -4.6734100    -0.8124350     0.4126370
  C        2.7015950     0.8755540     0.5594740
  C        1.2368440     1.1072260     0.8878520
  C        2.6518190    -0.3922910    -0.2854700
  C        0.5739580     0.6830040    -0.4149160
  C        2.8020980    -1.6600160     0.5224700
  C       -1.1273370    -1.1158190    -0.3082760
  C       -1.7446880     1.2038920     0.0820450
  C       -2.4173070    -1.5045610    -0.1045420
  C       -3.3619920    -0.4731600     0.1685110
  H        3.3343810     0.7567850     1.4508530
  H        0.9047070     0.4438290     1.6934890
  H        0.9853290     2.1340670     1.1581470
  H        0.5274540     1.5132540    -1.1249130
  H        3.4174920    -0.3642830    -1.0666260
  H        1.9829064    -1.7005099     1.2595351
  H        3.7460890    -1.6095150     1.0882890
  H        3.1038510     2.7463240     0.1779830
  H       -0.3107400    -1.7892010    -0.5436980
  H        2.9100300    -3.5650720     0.1192120
  H       -2.7034680    -2.5490840    -0.1532500
  H       -5.0287110    -1.6377420    -0.0567190
  H       -5.2994710    -0.0137980     0.3861010
units angstrom
no_reorient  #important for SAPT in psi4, default
symmetry c1  #important for SAPT in psi4, default
}

set PROPERTIES_ORIGIN ["COM"]
properties('MP2/aug-cc-pvtz', properties = ['dipole'])
--------------------------------------------------------------------------

    Molecular point group: c1
  Charge       = 0
  Multiplicity = 1
  Basis Set: AUG-CC-PVTZ
    Blend: AUG-CC-PVTZ
  Basis Set: (AUG-CC-PVTZ AUX)
    Blend: AUG-CC-PVTZ-JKFIT

    Orbital Energies [Eh]
    ---------------------

    Doubly Occupied:

       1A    -20.582063     2A    -20.573950     3A    -20.572734
       4A    -20.503145     5A    -15.621856     6A    -15.588499
       7A    -15.540947     8A    -11.370006     9A    -11.345196
      10A    -11.330704    11A    -11.318552    12A    -11.300247
      13A    -11.296532    14A    -11.291979    15A    -11.237252
      16A    -11.236755    17A     -1.416476    18A     -1.382280
      19A     -1.371604    20A     -1.364370    21A     -1.292353
      22A     -1.261533    23A     -1.169238    24A     -1.078967
      25A     -1.068620    26A     -1.027437    27A     -0.925994
      28A     -0.897430    29A     -0.868735    30A     -0.830759
      31A     -0.806368    32A     -0.754353    33A     -0.738761
      34A     -0.720184    35A     -0.706353    36A     -0.689644
      37A     -0.688077    38A     -0.675696    39A     -0.656821
      40A     -0.637449    41A     -0.627599    42A     -0.618163
      43A     -0.603861    44A     -0.593676    45A     -0.589170
      46A     -0.572699    47A     -0.568377    48A     -0.546621
      49A     -0.532605    50A     -0.523445    51A     -0.509896
      52A     -0.485220    53A     -0.482089    54A     -0.468861
      55A     -0.461031    56A     -0.444361    57A     -0.437511
      58A     -0.416436    59A     -0.383848    60A     -0.335087

  @DF-RHF Final Energy:  -811.47583175219961

   => Energetics <=

    Nuclear Repulsion Energy =           1169.7743443288579783
    One-Electron Energy =               -3434.6194092792788979
    Two-Electron Energy =                1453.3692331982215364
    Total Energy =                       -811.4758317521996105
  Basis Set: (AUG-CC-PVTZ AUX)
    Blend: AUG-CC-PVTZ-RI
    Molecular point group: c1

    Geometry (in Angstrom), charge = 0, multiplicity = 1:

       Center              X                  Y                   Z               Mass
    ------------   -----------------  -----------------  -----------------  -----------------
         O            1.359166605338    -0.381521070541    -0.930391778087    15.994914619570
         O            3.199152605338     1.899702929459    -0.298060778087    15.994914619570
         O            2.836972005338    -2.731076870541    -0.420394278087    15.994914619570
         O           -1.365090394662     2.372494929459     0.156235221913    15.994914619570
         N           -0.801148394662     0.197907929459    -0.227803778087    14.003074004430
         N           -3.057076394662     0.803728929459     0.241464221913    14.003074004430
         N           -4.676314394662    -0.813945070541     0.414089221913    14.003074004430
         C            2.698690605338     0.874043929459     0.560926221913    12.000000000000
         C            1.233939605338     1.105715929459     0.889304221913    12.000000000000
         C            2.648914605338    -0.393801070541    -0.284017778087    12.000000000000
         C            0.571053605338     0.681493929459    -0.413463778087    12.000000000000
         C            2.799193605338    -1.661526070541     0.523922221913    12.000000000000
         C           -1.130241394662    -1.117329070541    -0.306823778087    12.000000000000
         C           -1.747592394662     1.202381929459     0.083497221913    12.000000000000
         C           -2.420211394662    -1.506071070541    -0.103089778087    12.000000000000
         C           -3.364896394662    -0.474670070541     0.169963221913    12.000000000000
         H            3.331476605338     0.755274929459     1.452305221913     1.007825032230
         H            0.901802605338     0.442318929459     1.694941221913     1.007825032230
         H            0.982424605338     2.132556929459     1.159599221913     1.007825032230
         H            0.524549605338     1.511743929459    -1.123460778087     1.007825032230
         H            3.414587605338    -0.365793070541    -1.065173778087     1.007825032230
         H            1.980002005338    -1.702019970541     1.260987321913     1.007825032230
         H            3.743184605338    -1.611025070541     1.089741221913     1.007825032230
         H            3.100946605338     2.744813929459     0.179435221913     1.007825032230
         H           -0.313644394662    -1.790711070541    -0.542245778087     1.007825032230
         H            2.907125605338    -3.566582070541     0.120664221913     1.007825032230
         H           -2.706372394662    -2.550594070541    -0.151797778087     1.007825032230
         H           -5.031615394662    -1.639252070541    -0.055266778087     1.007825032230
         H           -5.302375394662    -0.015308070541     0.387553221913     1.007825032230

  Basis Set: AUG-CC-PVTZ
    Blend: AUG-CC-PVTZ
  Basis Set: (AUG-CC-PVTZ AUX)
    Blend: AUG-CC-PVTZ-JKFIT
	 Reference Energy          =    -811.4758317521996105 [Eh]
	 Singles Energy            =      -0.0000000000000000 [Eh]
	 Same-Spin Energy          =      -0.8301268113970741 [Eh]
	 Opposite-Spin Energy      =      -2.5262284883274617 [Eh]
	 Correlation Energy        =      -3.3563552997245356 [Eh]
	 Total Energy              =    -814.8321870519241656 [Eh]

	 ================> DF-SCS-MP2 Energies <==================
	-----------------------------------------------------------
	 SCS Same-Spin Scale       =       0.3333333333333333 [-]
	 SCS Opposite-Spin Scale   =       1.2000000000000000 [-]
	 SCS Same-Spin Energy      =      -0.2767089371323580 [Eh]
	 SCS Opposite-Spin Energy  =      -3.0314741859929542 [Eh]
	 SCS Correlation Energy    =      -3.3081831231253123 [Eh]
	 SCS Total Energy          =    -814.7840148753249423 [Eh]
	-----------------------------------------------------------

  Dipole Moment: [D]
     X:     0.9866      Y:    -4.7226      Z:     2.5101     Total:     5.4385

*** Psi4 exiting successfully. Buy a developer a beer!
