                               Psi4 1.3.2 release

  ==> Input File <==

--------------------------------------------------------------------------
#psi4
#
memory 32 gb

molecule  {
0 1
  O        1.3620710    -0.3800110    -0.9318440
  O        3.2020570     1.9012130    -0.2995130
  O        2.7994070    -2.7489470    -0.4002010
  O       -1.3621860     2.3740050     0.1547830
  N       -0.8095248     0.2020359    -0.2267364
  N       -3.0541720     0.8052390     0.2400120
  N       -4.6734100    -0.8124350     0.4126370
  C        2.7015950     0.8755540     0.5594740
  C        1.2368440     1.1072260     0.8878520
  C        2.6518190    -0.3922910    -0.2854700
  C        0.5739580     0.6830040    -0.4149160
  C        2.8020980    -1.6600160     0.5224700
  C       -1.1273370    -1.1158190    -0.3082760
  C       -1.7446880     1.2038920     0.0820450
  C       -2.4173070    -1.5045610    -0.1045420
  C       -3.3619920    -0.4731600     0.1685110
  H        3.3343810     0.7567850     1.4508530
  H        0.9047070     0.4438290     1.6934890
  H        0.9853290     2.1340670     1.1581470
  H        0.5274540     1.5132540    -1.1249130
  H        3.4174920    -0.3642830    -1.0666260
  H        1.9707490    -1.7331840     1.2432230
  H        3.7460890    -1.6095150     1.0882890
  H        3.1038510     2.7463240     0.1779830
  H       -0.3167222    -1.7965223    -0.5433165
  H        2.9100300    -3.5650720     0.1192120
  H       -2.7034680    -2.5490840    -0.1532500
  H       -5.0287110    -1.6377420    -0.0567190
  H       -5.2994710    -0.0137980     0.3861010
units angstrom
no_reorient  #important for SAPT in psi4, default
symmetry c1  #important for SAPT in psi4, default
}

set PROPERTIES_ORIGIN ["COM"]
properties('MP2/aug-cc-pvtz', properties = ['dipole'])
--------------------------------------------------------------------------

    Molecular point group: c1
  Charge       = 0
  Multiplicity = 1
  Basis Set: AUG-CC-PVTZ
    Blend: AUG-CC-PVTZ
  Basis Set: (AUG-CC-PVTZ AUX)
    Blend: AUG-CC-PVTZ-JKFIT

    Orbital Energies [Eh]
    ---------------------

    Doubly Occupied:

       1A    -20.577915     2A    -20.574476     3A    -20.573327
       4A    -20.501955     5A    -15.621928     6A    -15.588027
       7A    -15.540271     8A    -11.368710     9A    -11.344580
      10A    -11.331566    11A    -11.318293    12A    -11.301040
      13A    -11.297040    14A    -11.293349    15A    -11.237119
      16A    -11.237043    17A     -1.416582    18A     -1.382780
      19A     -1.373729    20A     -1.365826    21A     -1.292199
      22A     -1.261028    23A     -1.168464    24A     -1.078941
      25A     -1.068895    26A     -1.028694    27A     -0.926245
      28A     -0.898713    29A     -0.868925    30A     -0.830537
      31A     -0.806571    32A     -0.754327    33A     -0.738778
      34A     -0.721132    35A     -0.706608    36A     -0.692792
      37A     -0.689162    38A     -0.675854    39A     -0.657134
      40A     -0.637208    41A     -0.628054    42A     -0.618367
      43A     -0.604825    44A     -0.595116    45A     -0.588787
      46A     -0.571417    47A     -0.569048    48A     -0.544884
      49A     -0.532552    50A     -0.523548    51A     -0.510522
      52A     -0.486047    53A     -0.481634    54A     -0.468665
      55A     -0.461248    56A     -0.444148    57A     -0.437877
      58A     -0.416021    59A     -0.383463    60A     -0.335209

  @DF-RHF Final Energy:  -811.47934453767857

   => Energetics <=

    Nuclear Repulsion Energy =           1169.8918784363820578
    One-Electron Energy =               -3434.8440523449075954
    Two-Electron Energy =                1453.4728293708471938
    Total Energy =                       -811.4793445376785712
  Basis Set: (AUG-CC-PVTZ AUX)
    Blend: AUG-CC-PVTZ-RI
    Molecular point group: c1

    Geometry (in Angstrom), charge = 0, multiplicity = 1:

       Center              X                  Y                   Z               Mass
    ------------   -----------------  -----------------  -----------------  -----------------
         O            1.362793140282    -0.380139972627    -0.932001024805    15.994914619570
         O            3.202779140282     1.901084027373    -0.299670024805    15.994914619570
         O            2.800129140282    -2.749075972627    -0.400358024805    15.994914619570
         O           -1.361463859718     2.373876027373     0.154625975195    15.994914619570
         N           -0.808802659718     0.201906927373    -0.226893424805    14.003074004430
         N           -3.053449859718     0.805110027373     0.239854975195    14.003074004430
         N           -4.672687859718    -0.812563972627     0.412479975195    14.003074004430
         C            2.702317140282     0.875425027373     0.559316975195    12.000000000000
         C            1.237566140282     1.107097027373     0.887694975195    12.000000000000
         C            2.652541140282    -0.392419972627    -0.285627024805    12.000000000000
         C            0.574680140282     0.682875027373    -0.415073024805    12.000000000000
         C            2.802820140282    -1.660144972627     0.522312975195    12.000000000000
         C           -1.126614859718    -1.115947972627    -0.308433024805    12.000000000000
         C           -1.743965859718     1.203763027373     0.081887975195    12.000000000000
         C           -2.416584859718    -1.504689972627    -0.104699024805    12.000000000000
         C           -3.361269859718    -0.473288972627     0.168353975195    12.000000000000
         H            3.335103140282     0.756656027373     1.450695975195     1.007825032230
         H            0.905429140282     0.443700027373     1.693331975195     1.007825032230
         H            0.986051140282     2.133938027373     1.157989975195     1.007825032230
         H            0.528176140282     1.513125027373    -1.125070024805     1.007825032230
         H            3.418214140282    -0.364411972627    -1.066783024805     1.007825032230
         H            1.971471140282    -1.733312972627     1.243065975195     1.007825032230
         H            3.746811140282    -1.609643972627     1.088131975195     1.007825032230
         H            3.104573140282     2.746195027373     0.177825975195     1.007825032230
         H           -0.316000059718    -1.796651272627    -0.543473524805     1.007825032230
         H            2.910752140282    -3.565200972627     0.119054975195     1.007825032230
         H           -2.702745859718    -2.549212972627    -0.153407024805     1.007825032230
         H           -5.027988859718    -1.637870972627    -0.056876024805     1.007825032230
         H           -5.298748859718    -0.013926972627     0.385943975195     1.007825032230

  Basis Set: AUG-CC-PVTZ
    Blend: AUG-CC-PVTZ
  Basis Set: (AUG-CC-PVTZ AUX)
    Blend: AUG-CC-PVTZ-JKFIT
	 Reference Energy          =    -811.4793445376785712 [Eh]
	 Singles Energy            =      -0.0000000000000000 [Eh]
	 Same-Spin Energy          =      -0.8296159707800167 [Eh]
	 Opposite-Spin Energy      =      -2.5250661002219483 [Eh]
	 Correlation Energy        =      -3.3546820710019651 [Eh]
	 Total Energy              =    -814.8340266086805741 [Eh]

	 ================> DF-SCS-MP2 Energies <==================
	-----------------------------------------------------------
	 SCS Same-Spin Scale       =       0.3333333333333333 [-]
	 SCS Opposite-Spin Scale   =       1.2000000000000000 [-]
	 SCS Same-Spin Energy      =      -0.2765386569266722 [Eh]
	 SCS Opposite-Spin Energy  =      -3.0300793202663381 [Eh]
	 SCS Correlation Energy    =      -3.3066179771930102 [Eh]
	 SCS Total Energy          =    -814.7859625148715850 [Eh]
	-----------------------------------------------------------

  Dipole Moment: [D]
     X:     1.1053      Y:    -4.7137      Z:     2.4822     Total:     5.4408

*** Psi4 exiting successfully. Buy a developer a beer!
