                               Psi4 1.3.2 release

  ==> Input File <==

--------------------------------------------------------------------------
#psi4
#
memory 32 gb

molecule  {
0 1
  O        1.3620710    -0.3800110    -0.9318440
  O        3.2020570     1.9012130    -0.2995130
  O        2.7994070    -2.7489470    -0.4002010
  O       -1.3621860     2.3740050     0.1547830
  N       -0.7982440     0.1994180    -0.2292560
  N       -3.0541720     0.8052390     0.2400120
  N       -4.6734100    -0.8124350     0.4126370
  C        2.7015950     0.8755540     0.5594740
  C        1.2368440     1.1072260     0.8878520
  C        2.6518190    -0.3922910    -0.2854700
  C        0.3868462     0.6170628    -0.3895996
  C        2.8020980    -1.6600160     0.5224700
  C       -1.1273370    -1.1158190    -0.3082760
  C       -1.7446880     1.2038920     0.0820450
  C       -2.4173070    -1.5045610    -0.1045420
  C       -3.3619920    -0.4731600     0.1685110
  H        3.3343810     0.7567850     1.4508530
  H        0.9047070     0.4438290     1.6934890
  H        0.9853290     2.1340670     1.1581470
  H        0.5274540     1.5132540    -1.1249130
  H        3.4174920    -0.3642830    -1.0666260
  H        1.9707490    -1.7331840     1.2432230
  H        3.7460890    -1.6095150     1.0882890
  H        3.1038510     2.7463240     0.1779830
  H       -0.3107400    -1.7892010    -0.5436980
  H        2.9100300    -3.5650720     0.1192120
  H       -2.7034680    -2.5490840    -0.1532500
  H       -5.0287110    -1.6377420    -0.0567190
  H       -5.2994710    -0.0137980     0.3861010
units angstrom
no_reorient  #important for SAPT in psi4, default
symmetry c1  #important for SAPT in psi4, default
}

set PROPERTIES_ORIGIN ["COM"]
properties('MP2/aug-cc-pvtz', properties = ['dipole'])
--------------------------------------------------------------------------

    Molecular point group: c1
  Charge       = 0
  Multiplicity = 1
  Basis Set: AUG-CC-PVTZ
    Blend: AUG-CC-PVTZ
  Basis Set: (AUG-CC-PVTZ AUX)
    Blend: AUG-CC-PVTZ-JKFIT

    Orbital Energies [Eh]
    ---------------------

    Doubly Occupied:

       1A    -20.573198     2A    -20.567305     3A    -20.556349
       4A    -20.514401     5A    -15.631699     6A    -15.595803
       7A    -15.550509     8A    -11.381719     9A    -11.354075
      10A    -11.328494    11A    -11.328306    12A    -11.294258
      13A    -11.291125    14A    -11.285896    15A    -11.247806
      16A    -11.232862    17A     -1.422247    18A     -1.381778
      19A     -1.367767    20A     -1.354084    21A     -1.310353
      22A     -1.286379    23A     -1.183295    24A     -1.091195
      25A     -1.058749    26A     -1.014270    27A     -0.941204
      28A     -0.912676    29A     -0.878170    30A     -0.832286
      31A     -0.798497    32A     -0.768461    33A     -0.742517
      34A     -0.716143    35A     -0.712852    36A     -0.690955
      37A     -0.682758    38A     -0.676698    39A     -0.664636
      40A     -0.637268    41A     -0.627958    42A     -0.625077
      43A     -0.611946    44A     -0.595853    45A     -0.589842
      46A     -0.576247    47A     -0.555485    48A     -0.541738
      49A     -0.532978    50A     -0.512206    51A     -0.505738
      52A     -0.475029    53A     -0.469158    54A     -0.460565
      55A     -0.457765    56A     -0.447413    57A     -0.429698
      58A     -0.425649    59A     -0.382404    60A     -0.338262

  @DF-RHF Final Energy:  -811.42778333621254

   => Energetics <=

    Nuclear Repulsion Energy =           1171.2129209071151763
    One-Electron Energy =               -3437.2412953728471621
    Two-Electron Energy =                1454.6005911295192163
    Total Energy =                       -811.4277833362125421
  Basis Set: (AUG-CC-PVTZ AUX)
    Blend: AUG-CC-PVTZ-RI
    Molecular point group: c1

    Geometry (in Angstrom), charge = 0, multiplicity = 1:

       Center              X                  Y                   Z               Mass
    ------------   -----------------  -----------------  -----------------  -----------------
         O            1.371958410257    -0.376526549453    -0.933181743701    15.994914619570
         O            3.211944410257     1.904697450547    -0.300850743701    15.994914619570
         O            2.809294410257    -2.745462549453    -0.401538743701    15.994914619570
         O           -1.352298589743     2.377489450547     0.153445256299    15.994914619570
         N           -0.788356589743     0.202902450547    -0.230593743701    14.003074004430
         N           -3.044284589743     0.808723450547     0.238674256299    14.003074004430
         N           -4.663522589743    -0.808950549453     0.411299256299    14.003074004430
         C            2.711482410257     0.879038450547     0.558136256299    12.000000000000
         C            1.246731410257     1.110710450547     0.886514256299    12.000000000000
         C            2.661706410257    -0.388806549453    -0.286807743701    12.000000000000
         C            0.396733610257     0.620547250547    -0.390937343701    12.000000000000
         C            2.811985410257    -1.656531549453     0.521132256299    12.000000000000
         C           -1.117449589743    -1.112334549453    -0.309613743701    12.000000000000
         C           -1.734800589743     1.207376450547     0.080707256299    12.000000000000
         C           -2.407419589743    -1.501076549453    -0.105879743701    12.000000000000
         C           -3.352104589743    -0.469675549453     0.167173256299    12.000000000000
         H            3.344268410257     0.760269450547     1.449515256299     1.007825032230
         H            0.914594410257     0.447313450547     1.692151256299     1.007825032230
         H            0.995216410257     2.137551450547     1.156809256299     1.007825032230
         H            0.537341410257     1.516738450547    -1.126250743701     1.007825032230
         H            3.427379410257    -0.360798549453    -1.067963743701     1.007825032230
         H            1.980636410257    -1.729699549453     1.241885256299     1.007825032230
         H            3.755976410257    -1.606030549453     1.086951256299     1.007825032230
         H            3.113738410257     2.749808450547     0.176645256299     1.007825032230
         H           -0.300852589743    -1.785716549453    -0.545035743701     1.007825032230
         H            2.919917410257    -3.561587549453     0.117874256299     1.007825032230
         H           -2.693580589743    -2.545599549453    -0.154587743701     1.007825032230
         H           -5.018823589743    -1.634257549453    -0.058056743701     1.007825032230
         H           -5.289583589743    -0.010313549453     0.384763256299     1.007825032230

  Basis Set: AUG-CC-PVTZ
    Blend: AUG-CC-PVTZ
  Basis Set: (AUG-CC-PVTZ AUX)
    Blend: AUG-CC-PVTZ-JKFIT
	 Reference Energy          =    -811.4277833362125421 [Eh]
	 Singles Energy            =      -0.0000000000000000 [Eh]
	 Same-Spin Energy          =      -0.8324412234415104 [Eh]
	 Opposite-Spin Energy      =      -2.5296824236687030 [Eh]
	 Correlation Energy        =      -3.3621236471102134 [Eh]
	 Total Energy              =    -814.7899069833227941 [Eh]

	 ================> DF-SCS-MP2 Energies <==================
	-----------------------------------------------------------
	 SCS Same-Spin Scale       =       0.3333333333333333 [-]
	 SCS Opposite-Spin Scale   =       1.2000000000000000 [-]
	 SCS Same-Spin Energy      =      -0.2774804078138368 [Eh]
	 SCS Opposite-Spin Energy  =      -3.0356189084024434 [Eh]
	 SCS Correlation Energy    =      -3.3130993162162801 [Eh]
	 SCS Total Energy          =    -814.7408826524288088 [Eh]
	-----------------------------------------------------------

  Dipole Moment: [D]
     X:    -0.1071      Y:    -4.7865      Z:     2.5435     Total:     5.4214

*** Psi4 exiting successfully. Buy a developer a beer!
