                               Psi4 1.3.2 release

  ==> Input File <==

--------------------------------------------------------------------------
#psi4
#
memory 32 gb

molecule  {
0 1
  O        1.3620710    -0.3800110    -0.9318440
  O        3.2020570     1.9012130    -0.2995130
  O        2.7994070    -2.7489470    -0.4002010
  O       -1.3621860     2.3740050     0.1547830
  N       -0.7982440     0.1994180    -0.2292560
  N       -3.0541720     0.8052390     0.2400120
  N       -4.6835423    -0.7658117     0.4182748
  C        2.7015950     0.8755540     0.5594740
  C        1.2368440     1.1072260     0.8878520
  C        2.6518190    -0.3922910    -0.2854700
  C        0.5739580     0.6830040    -0.4149160
  C        2.8020980    -1.6600160     0.5224700
  C       -1.1273370    -1.1158190    -0.3082760
  C       -1.7446880     1.2038920     0.0820450
  C       -2.3820151    -1.4698142    -0.1091602
  C       -3.3619920    -0.4731600     0.1685110
  H        3.3343810     0.7567850     1.4508530
  H        0.9047070     0.4438290     1.6934890
  H        0.9853290     2.1340670     1.1581470
  H        0.5274540     1.5132540    -1.1249130
  H        3.4174920    -0.3642830    -1.0666260
  H        1.9707490    -1.7331840     1.2432230
  H        3.7460890    -1.6095150     1.0882890
  H        3.1038510     2.7463240     0.1779830
  H       -0.3107400    -1.7892010    -0.5436980
  H        2.9100300    -3.5650720     0.1192120
  H       -2.7034680    -2.5490840    -0.1532500
  H       -5.0287110    -1.6377420    -0.0567190
  H       -5.2994710    -0.0137980     0.3861010
units angstrom
no_reorient  #important for SAPT in psi4, default
symmetry c1  #important for SAPT in psi4, default
}

set PROPERTIES_ORIGIN ["COM"]
properties('MP2/aug-cc-pvtz', properties = ['dipole'])
--------------------------------------------------------------------------

    Molecular point group: c1
  Charge       = 0
  Multiplicity = 1
  Basis Set: AUG-CC-PVTZ
    Blend: AUG-CC-PVTZ
  Basis Set: (AUG-CC-PVTZ AUX)
    Blend: AUG-CC-PVTZ-JKFIT

    Orbital Energies [Eh]
    ---------------------

    Doubly Occupied:

       1A    -20.577348     2A    -20.573614     3A    -20.571893
       4A    -20.501609     5A    -15.617575     6A    -15.590838
       7A    -15.539904     8A    -11.368144     9A    -11.346529
      10A    -11.329031    11A    -11.311091    12A    -11.300023
      13A    -11.296358    14A    -11.292343    15A    -11.238513
      16A    -11.235623    17A     -1.415603    18A     -1.381523
      19A     -1.373038    20A     -1.364952    21A     -1.293962
      22A     -1.262120    23A     -1.168727    24A     -1.082765
      25A     -1.071115    26A     -1.028195    27A     -0.926477
      28A     -0.896734    29A     -0.868565    30A     -0.830146
      31A     -0.806631    32A     -0.758741    33A     -0.737317
      34A     -0.719908    35A     -0.709926    36A     -0.693078
      37A     -0.688229    38A     -0.671508    39A     -0.655292
      40A     -0.632676    41A     -0.628496    42A     -0.618499
      43A     -0.606077    44A     -0.599125    45A     -0.586560
      46A     -0.569736    47A     -0.568145    48A     -0.544266
      49A     -0.532437    50A     -0.522042    51A     -0.509724
      52A     -0.485541    53A     -0.483263    54A     -0.468096
      55A     -0.460827    56A     -0.443639    57A     -0.437035
      58A     -0.414873    59A     -0.383089    60A     -0.338652

  @DF-RHF Final Energy:  -811.47304869141851

   => Energetics <=

    Nuclear Repulsion Energy =           1171.0750550478965124
    One-Electron Energy =               -3437.2406298834680456
    Two-Electron Energy =                1454.6925261441529074
    Total Energy =                       -811.4730486914186258
  Basis Set: (AUG-CC-PVTZ AUX)
    Blend: AUG-CC-PVTZ-RI
    Molecular point group: c1

    Geometry (in Angstrom), charge = 0, multiplicity = 1:

       Center              X                  Y                   Z               Mass
    ------------   -----------------  -----------------  -----------------  -----------------
         O            1.360830864742    -0.384722069090    -0.931947572573    15.994914619570
         O            3.200816864742     1.896501930910    -0.299616572573    15.994914619570
         O            2.798166864742    -2.753658069090    -0.400304572573    15.994914619570
         O           -1.363426135258     2.369293930910     0.154679427427    15.994914619570
         N           -0.799484135258     0.194706930910    -0.229359572573    14.003074004430
         N           -3.055412135258     0.800527930910     0.239908427427    14.003074004430
         N           -4.684782435258    -0.770522769090     0.418171227427    14.003074004430
         C            2.700354864742     0.870842930910     0.559370427427    12.000000000000
         C            1.235603864742     1.102514930910     0.887748427427    12.000000000000
         C            2.650578864742    -0.397002069090    -0.285573572573    12.000000000000
         C            0.572717864742     0.678292930910    -0.415019572573    12.000000000000
         C            2.800857864742    -1.664727069090     0.522366427427    12.000000000000
         C           -1.128577135258    -1.120530069090    -0.308379572573    12.000000000000
         C           -1.745928135258     1.199180930910     0.081941427427    12.000000000000
         C           -2.383255235258    -1.474525269090    -0.109263772573    12.000000000000
         C           -3.363232135258    -0.477871069090     0.168407427427    12.000000000000
         H            3.333140864742     0.752073930910     1.450749427427     1.007825032230
         H            0.903466864742     0.439117930910     1.693385427427     1.007825032230
         H            0.984088864742     2.129355930910     1.158043427427     1.007825032230
         H            0.526213864742     1.508542930910    -1.125016572573     1.007825032230
         H            3.416251864742    -0.368994069090    -1.066729572573     1.007825032230
         H            1.969508864742    -1.737895069090     1.243119427427     1.007825032230
         H            3.744848864742    -1.614226069090     1.088185427427     1.007825032230
         H            3.102610864742     2.741612930910     0.177879427427     1.007825032230
         H           -0.311980135258    -1.793912069090    -0.543801572573     1.007825032230
         H            2.908789864742    -3.569783069090     0.119108427427     1.007825032230
         H           -2.704708135258    -2.553795069090    -0.153353572573     1.007825032230
         H           -5.029951135258    -1.642453069090    -0.056822572573     1.007825032230
         H           -5.300711135258    -0.018509069090     0.385997427427     1.007825032230

  Basis Set: AUG-CC-PVTZ
    Blend: AUG-CC-PVTZ
  Basis Set: (AUG-CC-PVTZ AUX)
    Blend: AUG-CC-PVTZ-JKFIT
	 Reference Energy          =    -811.4730486914185121 [Eh]
	 Singles Energy            =      -0.0000000000000000 [Eh]
	 Same-Spin Energy          =      -0.8294846570602066 [Eh]
	 Opposite-Spin Energy      =      -2.5249026150751828 [Eh]
	 Correlation Energy        =      -3.3543872721353893 [Eh]
	 Total Energy              =    -814.8274359635538531 [Eh]

	 ================> DF-SCS-MP2 Energies <==================
	-----------------------------------------------------------
	 SCS Same-Spin Scale       =       0.3333333333333333 [-]
	 SCS Opposite-Spin Scale   =       1.2000000000000000 [-]
	 SCS Same-Spin Energy      =      -0.2764948856867355 [Eh]
	 SCS Opposite-Spin Energy  =      -3.0298831380902191 [Eh]
	 SCS Correlation Energy    =      -3.3063780237769547 [Eh]
	 SCS Total Energy          =    -814.7794267151954273 [Eh]
	-----------------------------------------------------------

  Dipole Moment: [D]
     X:     0.9724      Y:    -4.7568      Z:     2.5024     Total:     5.4621

*** Psi4 exiting successfully. Buy a developer a beer!
