                               Psi4 1.3.2 release

  ==> Input File <==

--------------------------------------------------------------------------
#psi4
#
memory 32 gb

molecule  {
0 1
  O        1.3620710    -0.3800110    -0.9318440
  O        3.2020570     1.9012130    -0.2995130
  O        2.7994070    -2.7489470    -0.4002010
  O       -1.3621860     2.3740050     0.1547830
  N       -0.7982440     0.1994180    -0.2292560
  N       -3.0541720     0.8052390     0.2400120
  N       -4.6734100    -0.8124350     0.4126370
  C        2.7015950     0.8755540     0.5594740
  C        1.2298611     1.0579257     0.9063756
  C        2.6518190    -0.3922910    -0.2854700
  C        0.5739580     0.6830040    -0.4149160
  C        2.8020980    -1.6600160     0.5224700
  C       -1.1273370    -1.1158190    -0.3082760
  C       -1.7446880     1.2038920     0.0820450
  C       -2.4173070    -1.5045610    -0.1045420
  C       -3.3619920    -0.4731600     0.1685110
  H        3.3343810     0.7567850     1.4508530
  H        0.9047070     0.4438290     1.6934890
  H        0.9853290     2.1340670     1.1581470
  H        0.5102801     1.4900588    -1.1498862
  H        3.4174920    -0.3642830    -1.0666260
  H        1.9707490    -1.7331840     1.2432230
  H        3.7460890    -1.6095150     1.0882890
  H        3.1038510     2.7463240     0.1779830
  H       -0.3107400    -1.7892010    -0.5436980
  H        2.9100300    -3.5650720     0.1192120
  H       -2.7034680    -2.5490840    -0.1532500
  H       -5.0287110    -1.6377420    -0.0567190
  H       -5.2994710    -0.0137980     0.3861010
units angstrom
no_reorient  #important for SAPT in psi4, default
symmetry c1  #important for SAPT in psi4, default
}

set PROPERTIES_ORIGIN ["COM"]
properties('MP2/aug-cc-pvtz', properties = ['dipole'])
--------------------------------------------------------------------------

    Molecular point group: c1
  Charge       = 0
  Multiplicity = 1
  Basis Set: AUG-CC-PVTZ
    Blend: AUG-CC-PVTZ
  Basis Set: (AUG-CC-PVTZ AUX)
    Blend: AUG-CC-PVTZ-JKFIT

    Orbital Energies [Eh]
    ---------------------

    Doubly Occupied:

       1A    -20.577593     2A    -20.575966     3A    -20.571587
       4A    -20.502657     5A    -15.620857     6A    -15.588213
       7A    -15.540628     8A    -11.369587     9A    -11.344841
      10A    -11.331128    11A    -11.317979    12A    -11.301047
      13A    -11.296748    14A    -11.292223    15A    -11.237140
      16A    -11.236804    17A     -1.416645    18A     -1.382221
      19A     -1.373575    20A     -1.365756    21A     -1.291987
      22A     -1.261284    23A     -1.168971    24A     -1.079297
      25A     -1.069209    26A     -1.027198    27A     -0.926745
      28A     -0.897436    29A     -0.869015    30A     -0.832222
      31A     -0.805232    32A     -0.754298    33A     -0.738558
      34A     -0.719998    35A     -0.706548    36A     -0.692477
      37A     -0.690059    38A     -0.676446    39A     -0.656311
      40A     -0.638027    41A     -0.629846    42A     -0.618914
      43A     -0.604108    44A     -0.595430    45A     -0.587767
      46A     -0.571696    47A     -0.568676    48A     -0.543439
      49A     -0.535972    50A     -0.517211    51A     -0.513347
      52A     -0.485037    53A     -0.480830    54A     -0.469168
      55A     -0.460862    56A     -0.444373    57A     -0.438156
      58A     -0.415944    59A     -0.383743    60A     -0.334606

  @DF-RHF Final Energy:  -811.47551619634078

   => Energetics <=

    Nuclear Repulsion Energy =           1170.1585422219545762
    One-Electron Energy =               -3435.3808500377767814
    Two-Electron Energy =                1453.7467916194814279
    Total Energy =                       -811.4755161963407772
  Basis Set: (AUG-CC-PVTZ AUX)
    Blend: AUG-CC-PVTZ-RI
    Molecular point group: c1

    Geometry (in Angstrom), charge = 0, multiplicity = 1:

       Center              X                  Y                   Z               Mass
    ------------   -----------------  -----------------  -----------------  -----------------
         O            1.362516194428    -0.377302953638    -0.932711965501    15.994914619570
         O            3.202502194428     1.903921046362    -0.300380965501    15.994914619570
         O            2.799852194428    -2.746238953638    -0.401068965501    15.994914619570
         O           -1.361740805572     2.376713046362     0.153915034499    15.994914619570
         N           -0.797798805572     0.202126046362    -0.230123965501    14.003074004430
         N           -3.053726805572     0.807947046362     0.239144034499    14.003074004430
         N           -4.672964805572    -0.809726953638     0.411769034499    14.003074004430
         C            2.702040194428     0.878262046362     0.558606034499    12.000000000000
         C            1.230306294428     1.060633746362     0.905507634499    12.000000000000
         C            2.652264194428    -0.389582953638    -0.286337965501    12.000000000000
         C            0.574403194428     0.685712046362    -0.415783965501    12.000000000000
         C            2.802543194428    -1.657307953638     0.521602034499    12.000000000000
         C           -1.126891805572    -1.113110953638    -0.309143965501    12.000000000000
         C           -1.744242805572     1.206600046362     0.081177034499    12.000000000000
         C           -2.416861805572    -1.501852953638    -0.105409965501    12.000000000000
         C           -3.361546805572    -0.470451953638     0.167643034499    12.000000000000
         H            3.334826194428     0.759493046362     1.449985034499     1.007825032230
         H            0.905152194428     0.446537046362     1.692621034499     1.007825032230
         H            0.985774194428     2.136775046362     1.157279034499     1.007825032230
         H            0.510725294428     1.492766846362    -1.150754165501     1.007825032230
         H            3.417937194428    -0.361574953638    -1.067493965501     1.007825032230
         H            1.971194194428    -1.730475953638     1.242355034499     1.007825032230
         H            3.746534194428    -1.606806953638     1.087421034499     1.007825032230
         H            3.104296194428     2.749032046362     0.177115034499     1.007825032230
         H           -0.310294805572    -1.786492953638    -0.544565965501     1.007825032230
         H            2.910475194428    -3.562363953638     0.118344034499     1.007825032230
         H           -2.703022805572    -2.546375953638    -0.154117965501     1.007825032230
         H           -5.028265805572    -1.635033953638    -0.057586965501     1.007825032230
         H           -5.299025805572    -0.011089953638     0.385233034499     1.007825032230

  Basis Set: AUG-CC-PVTZ
    Blend: AUG-CC-PVTZ
  Basis Set: (AUG-CC-PVTZ AUX)
    Blend: AUG-CC-PVTZ-JKFIT
	 Reference Energy          =    -811.4755161963407772 [Eh]
	 Singles Energy            =      -0.0000000000000000 [Eh]
	 Same-Spin Energy          =      -0.8298675816823984 [Eh]
	 Opposite-Spin Energy      =      -2.5255084021881631 [Eh]
	 Correlation Energy        =      -3.3553759838705615 [Eh]
	 Total Energy              =    -814.8308921802113218 [Eh]

	 ================> DF-SCS-MP2 Energies <==================
	-----------------------------------------------------------
	 SCS Same-Spin Scale       =       0.3333333333333333 [-]
	 SCS Opposite-Spin Scale   =       1.2000000000000000 [-]
	 SCS Same-Spin Energy      =      -0.2766225272274661 [Eh]
	 SCS Opposite-Spin Energy  =      -3.0306100826257958 [Eh]
	 SCS Correlation Energy    =      -3.3072326098532621 [Eh]
	 SCS Total Energy          =    -814.7827488061940358 [Eh]
	-----------------------------------------------------------

  Dipole Moment: [D]
     X:     1.0854      Y:    -4.6770      Z:     2.4892     Total:     5.4082

*** Psi4 exiting successfully. Buy a developer a beer!
