                               Psi4 1.3.2 release

  ==> Input File <==

--------------------------------------------------------------------------
#psi4
#
memory 32 gb

molecule  {
0 1
  O        1.3620710    -0.3800110    -0.9318440
  O        3.2020570     1.9012130    -0.2995130
  O        2.7994070    -2.7489470    -0.4002010
  O       -1.3621860     2.3740050     0.1547830
  N       -0.7982440     0.1994180    -0.2292560
  N       -3.0541720     0.8052390     0.2400120
  N       -4.6734100    -0.8124350     0.4126370
  C        2.7015950     0.8755540     0.5594740
  C        1.2368440     1.1072260     0.8878520
  C        2.6518190    -0.3922910    -0.2854700
  C        0.5659548     0.7068540    -0.4101806
  C        2.8020980    -1.6600160     0.5224700
  C       -1.1273370    -1.1158190    -0.3082760
  C       -1.7267305     1.2208120     0.0810659
  C       -2.4173070    -1.5045610    -0.1045420
  C       -3.3619920    -0.4731600     0.1685110
  H        3.3343810     0.7567850     1.4508530
  H        0.9047070     0.4438290     1.6934890
  H        0.9853290     2.1340670     1.1581470
  H        0.5274540     1.5132540    -1.1249130
  H        3.4174920    -0.3642830    -1.0666260
  H        1.9707490    -1.7331840     1.2432230
  H        3.7460890    -1.6095150     1.0882890
  H        3.1038510     2.7463240     0.1779830
  H       -0.3107400    -1.7892010    -0.5436980
  H        2.9100300    -3.5650720     0.1192120
  H       -2.7034680    -2.5490840    -0.1532500
  H       -5.0287110    -1.6377420    -0.0567190
  H       -5.2994710    -0.0137980     0.3861010
units angstrom
no_reorient  #important for SAPT in psi4, default
symmetry c1  #important for SAPT in psi4, default
}

set PROPERTIES_ORIGIN ["COM"]
properties('MP2/aug-cc-pvtz', properties = ['dipole'])
--------------------------------------------------------------------------

    Molecular point group: c1
  Charge       = 0
  Multiplicity = 1
  Basis Set: AUG-CC-PVTZ
    Blend: AUG-CC-PVTZ
  Basis Set: (AUG-CC-PVTZ AUX)
    Blend: AUG-CC-PVTZ-JKFIT

    Orbital Energies [Eh]
    ---------------------

    Doubly Occupied:

       1A    -20.576949     2A    -20.574881     3A    -20.570328
       4A    -20.509880     5A    -15.620900     6A    -15.586254
       7A    -15.538871     8A    -11.370738     9A    -11.342166
      10A    -11.331115    11A    -11.317528    12A    -11.301242
      13A    -11.295947    14A    -11.291535    15A    -11.237952
      16A    -11.235923    17A     -1.412579    18A     -1.391135
      19A     -1.373239    20A     -1.364826    21A     -1.294673
      22A     -1.260536    23A     -1.163173    24A     -1.079876
      25A     -1.067419    26A     -1.027773    27A     -0.926660
      28A     -0.897068    29A     -0.866836    30A     -0.829186
      31A     -0.805301    32A     -0.752172    33A     -0.737901
      34A     -0.720433    35A     -0.706174    36A     -0.692563
      37A     -0.689186    38A     -0.674733    39A     -0.654838
      40A     -0.637466    41A     -0.628351    42A     -0.621956
      43A     -0.605493    44A     -0.593634    45A     -0.588808
      46A     -0.574328    47A     -0.566699    48A     -0.543841
      49A     -0.533016    50A     -0.523573    51A     -0.514217
      52A     -0.485533    53A     -0.484546    54A     -0.467835
      55A     -0.461753    56A     -0.449071    57A     -0.439302
      58A     -0.413264    59A     -0.382666    60A     -0.335010

  @DF-RHF Final Energy:  -811.47788197814873

   => Energetics <=

    Nuclear Repulsion Energy =           1169.7413812223901459
    One-Electron Energy =               -3434.5568162960471454
    Two-Electron Energy =                1453.3375530955081558
    Total Energy =                       -811.4778819781486163
  Basis Set: (AUG-CC-PVTZ AUX)
    Blend: AUG-CC-PVTZ-RI
    Molecular point group: c1

    Geometry (in Angstrom), charge = 0, multiplicity = 1:

       Center              X                  Y                   Z               Mass
    ------------   -----------------  -----------------  -----------------  -----------------
         O            1.361544975538    -0.382165419431    -0.932042457472    15.994914619570
         O            3.201530975538     1.899058580569    -0.299711457472    15.994914619570
         O            2.798880975538    -2.751101419431    -0.400399457472    15.994914619570
         O           -1.362712024462     2.371850580569     0.154584542528    15.994914619570
         N           -0.798770024462     0.197263580569    -0.229454457472    14.003074004430
         N           -3.054698024462     0.803084580569     0.239813542528    14.003074004430
         N           -4.673936024462    -0.814589419431     0.412438542528    14.003074004430
         C            2.701068975538     0.873399580569     0.559275542528    12.000000000000
         C            1.236317975538     1.105071580569     0.887653542528    12.000000000000
         C            2.651292975538    -0.394445419431    -0.285668457472    12.000000000000
         C            0.565428775538     0.704699580569    -0.410379057472    12.000000000000
         C            2.801571975538    -1.662170419431     0.522271542528    12.000000000000
         C           -1.127863024462    -1.117973419431    -0.308474457472    12.000000000000
         C           -1.727256524462     1.218657580569     0.080867442528    12.000000000000
         C           -2.417833024462    -1.506715419431    -0.104740457472    12.000000000000
         C           -3.362518024462    -0.475314419431     0.168312542528    12.000000000000
         H            3.333854975538     0.754630580569     1.450654542528     1.007825032230
         H            0.904180975538     0.441674580569     1.693290542528     1.007825032230
         H            0.984802975538     2.131912580569     1.157948542528     1.007825032230
         H            0.526927975538     1.511099580569    -1.125111457472     1.007825032230
         H            3.416965975538    -0.366437419431    -1.066824457472     1.007825032230
         H            1.970222975538    -1.735338419431     1.243024542528     1.007825032230
         H            3.745562975538    -1.611669419431     1.088090542528     1.007825032230
         H            3.103324975538     2.744169580569     0.177784542528     1.007825032230
         H           -0.311266024462    -1.791355419431    -0.543896457472     1.007825032230
         H            2.909503975538    -3.567226419431     0.119013542528     1.007825032230
         H           -2.703994024462    -2.551238419431    -0.153448457472     1.007825032230
         H           -5.029237024462    -1.639896419431    -0.056917457472     1.007825032230
         H           -5.299997024462    -0.015952419431     0.385902542528     1.007825032230

  Basis Set: AUG-CC-PVTZ
    Blend: AUG-CC-PVTZ
  Basis Set: (AUG-CC-PVTZ AUX)
    Blend: AUG-CC-PVTZ-JKFIT
	 Reference Energy          =    -811.4778819781487300 [Eh]
	 Singles Energy            =      -0.0000000000000000 [Eh]
	 Same-Spin Energy          =      -0.8293623729516647 [Eh]
	 Opposite-Spin Energy      =      -2.5251890660116616 [Eh]
	 Correlation Energy        =      -3.3545514389633264 [Eh]
	 Total Energy              =    -814.8324334171120427 [Eh]

	 ================> DF-SCS-MP2 Energies <==================
	-----------------------------------------------------------
	 SCS Same-Spin Scale       =       0.3333333333333333 [-]
	 SCS Opposite-Spin Scale   =       1.2000000000000000 [-]
	 SCS Same-Spin Energy      =      -0.2764541243172216 [Eh]
	 SCS Opposite-Spin Energy  =      -3.0302268792139939 [Eh]
	 SCS Correlation Energy    =      -3.3066810035312155 [Eh]
	 SCS Total Energy          =    -814.7845629816799828 [Eh]
	-----------------------------------------------------------

  Dipole Moment: [D]
     X:     1.1279      Y:    -4.4193      Z:     2.5042     Total:     5.2032

*** Psi4 exiting successfully. Buy a developer a beer!
