                               Psi4 1.3.2 release

  ==> Input File <==

--------------------------------------------------------------------------
#psi4
#
memory 32 gb

molecule  {
0 1
  O        1.3620710    -0.3800110    -0.9318440
  O        3.2020570     1.9012130    -0.2995130
  O        2.7994070    -2.7489470    -0.4002010
  O       -1.3621860     2.3740050     0.1547830
  N       -0.7982440     0.1994180    -0.2292560
  N       -3.0104193     0.7943798     0.2310344
  N       -4.6734100    -0.8124350     0.4126370
  C        2.7015950     0.8755540     0.5594740
  C        1.2368440     1.1072260     0.8878520
  C        2.6518190    -0.3922910    -0.2854700
  C        0.5739580     0.6830040    -0.4149160
  C        2.8020980    -1.6600160     0.5224700
  C       -1.1273370    -1.1158190    -0.3082760
  C       -1.7446880     1.2038920     0.0820450
  C       -2.3817002    -1.4699573    -0.1075303
  C       -3.3619920    -0.4731600     0.1685110
  H        3.3343810     0.7567850     1.4508530
  H        0.9047070     0.4438290     1.6934890
  H        0.9853290     2.1340670     1.1581470
  H        0.5274540     1.5132540    -1.1249130
  H        3.4174920    -0.3642830    -1.0666260
  H        1.9707490    -1.7331840     1.2432230
  H        3.7460890    -1.6095150     1.0882890
  H        3.1038510     2.7463240     0.1779830
  H       -0.3107400    -1.7892010    -0.5436980
  H        2.9100300    -3.5650720     0.1192120
  H       -2.7034680    -2.5490840    -0.1532500
  H       -5.0287110    -1.6377420    -0.0567190
  H       -5.2994710    -0.0137980     0.3861010
units angstrom
no_reorient  #important for SAPT in psi4, default
symmetry c1  #important for SAPT in psi4, default
}

set PROPERTIES_ORIGIN ["COM"]
properties('MP2/aug-cc-pvtz', properties = ['dipole'])
--------------------------------------------------------------------------

    Molecular point group: c1
  Charge       = 0
  Multiplicity = 1
  Basis Set: AUG-CC-PVTZ
    Blend: AUG-CC-PVTZ
  Basis Set: (AUG-CC-PVTZ AUX)
    Blend: AUG-CC-PVTZ-JKFIT

    Orbital Energies [Eh]
    ---------------------

    Doubly Occupied:

       1A    -20.576719     2A    -20.572826     3A    -20.570630
       4A    -20.497507     5A    -15.615254     6A    -15.595593
       7A    -15.536779     8A    -11.364263     9A    -11.350422
      10A    -11.327387    11A    -11.309471    12A    -11.299138
      13A    -11.295634    14A    -11.291428    15A    -11.236244
      16A    -11.234549    17A     -1.414599    18A     -1.381902
      19A     -1.372340    20A     -1.364253    21A     -1.294264
      22A     -1.260646    23A     -1.178258    24A     -1.081771
      25A     -1.070216    26A     -1.027542    27A     -0.927284
      28A     -0.894525    29A     -0.873206    30A     -0.831558
      31A     -0.805287    32A     -0.759448    33A     -0.736510
      34A     -0.719854    35A     -0.710270    36A     -0.691625
      37A     -0.688853    38A     -0.677587    39A     -0.655743
      40A     -0.632259    41A     -0.628775    42A     -0.614679
      43A     -0.606213    44A     -0.598197    45A     -0.587773
      46A     -0.569695    47A     -0.567561    48A     -0.543631
      49A     -0.532456    50A     -0.521036    51A     -0.509529
      52A     -0.484655    53A     -0.482649    54A     -0.467369
      55A     -0.459923    56A     -0.441379    57A     -0.432536
      58A     -0.413570    59A     -0.385670    60A     -0.337845

  @DF-RHF Final Energy:  -811.47585193344787

   => Energetics <=

    Nuclear Repulsion Energy =           1172.2883500486536832
    One-Electron Energy =               -3439.7108256412734590
    Two-Electron Energy =                1455.9466236591717916
    Total Energy =                       -811.4758519334479843
  Basis Set: (AUG-CC-PVTZ AUX)
    Blend: AUG-CC-PVTZ-RI
    Molecular point group: c1

    Geometry (in Angstrom), charge = 0, multiplicity = 1:

       Center              X                  Y                   Z               Mass
    ------------   -----------------  -----------------  -----------------  -----------------
         O            1.357491517262    -0.381169967504    -0.931132471802    15.994914619570
         O            3.197477517262     1.900054032496    -0.298801471802    15.994914619570
         O            2.794827517262    -2.750105967504    -0.399489471802    15.994914619570
         O           -1.366765482738     2.372846032496     0.155494528198    15.994914619570
         N           -0.802823482738     0.198259032496    -0.228544471802    14.003074004430
         N           -3.014998782738     0.793220832496     0.231745928198    14.003074004430
         N           -4.677989482738    -0.813593967504     0.413348528198    14.003074004430
         C            2.697015517262     0.874395032496     0.560185528198    12.000000000000
         C            1.232264517262     1.106067032496     0.888563528198    12.000000000000
         C            2.647239517262    -0.393449967504    -0.284758471802    12.000000000000
         C            0.569378517262     0.681845032496    -0.414204471802    12.000000000000
         C            2.797518517262    -1.661174967504     0.523181528198    12.000000000000
         C           -1.131916482738    -1.116977967504    -0.307564471802    12.000000000000
         C           -1.749267482738     1.202733032496     0.082756528198    12.000000000000
         C           -2.386279682738    -1.471116267504    -0.106818771802    12.000000000000
         C           -3.366571482738    -0.474318967504     0.169222528198    12.000000000000
         H            3.329801517262     0.755626032496     1.451564528198     1.007825032230
         H            0.900127517262     0.442670032496     1.694200528198     1.007825032230
         H            0.980749517262     2.132908032496     1.158858528198     1.007825032230
         H            0.522874517262     1.512095032496    -1.124201471802     1.007825032230
         H            3.412912517262    -0.365441967504    -1.065914471802     1.007825032230
         H            1.966169517262    -1.734342967504     1.243934528198     1.007825032230
         H            3.741509517262    -1.610673967504     1.089000528198     1.007825032230
         H            3.099271517262     2.745165032496     0.178694528198     1.007825032230
         H           -0.315319482738    -1.790359967504    -0.542986471802     1.007825032230
         H            2.905450517262    -3.566230967504     0.119923528198     1.007825032230
         H           -2.708047482738    -2.550242967504    -0.152538471802     1.007825032230
         H           -5.033290482738    -1.638900967504    -0.056007471802     1.007825032230
         H           -5.304050482738    -0.014956967504     0.386812528198     1.007825032230

  Basis Set: AUG-CC-PVTZ
    Blend: AUG-CC-PVTZ
  Basis Set: (AUG-CC-PVTZ AUX)
    Blend: AUG-CC-PVTZ-JKFIT
	 Reference Energy          =    -811.4758519334478706 [Eh]
	 Singles Energy            =      -0.0000000000000000 [Eh]
	 Same-Spin Energy          =      -0.8297474044489768 [Eh]
	 Opposite-Spin Energy      =      -2.5242799878042188 [Eh]
	 Correlation Energy        =      -3.3540273922531956 [Eh]
	 Total Energy              =    -814.8298793257010857 [Eh]

	 ================> DF-SCS-MP2 Energies <==================
	-----------------------------------------------------------
	 SCS Same-Spin Scale       =       0.3333333333333333 [-]
	 SCS Opposite-Spin Scale   =       1.2000000000000000 [-]
	 SCS Same-Spin Energy      =      -0.2765824681496589 [Eh]
	 SCS Opposite-Spin Energy  =      -3.0291359853650626 [Eh]
	 SCS Correlation Energy    =      -3.3057184535147215 [Eh]
	 SCS Total Energy          =    -814.7815703869625850 [Eh]
	-----------------------------------------------------------

  Dipole Moment: [D]
     X:     0.7400      Y:    -4.7836      Z:     2.5201     Total:     5.4572

*** Psi4 exiting successfully. Buy a developer a beer!
