                               Psi4 1.3.2 release

  ==> Input File <==

--------------------------------------------------------------------------
#psi4
#
memory 32 gb

molecule  {
0 1
  O        1.3620710    -0.3800110    -0.9318440
  O        3.2020570     1.9012130    -0.2995130
  O        2.7994070    -2.7489470    -0.4002010
  O       -1.3621860     2.3740050     0.1547830
  N       -0.7982440     0.1994180    -0.2292560
  N       -3.0541720     0.8052390     0.2400120
  N       -4.6734100    -0.8124350     0.4126370
  C        2.7419840     0.8928529     0.5294621
  C        1.2368440     1.1072260     0.8878520
  C        2.6518190    -0.3922910    -0.2854700
  C        0.5739580     0.6830040    -0.4149160
  C        2.8020980    -1.6600160     0.5224700
  C       -1.1273370    -1.1158190    -0.3082760
  C       -1.7446880     1.2038920     0.0820450
  C       -2.4173070    -1.5045610    -0.1045420
  C       -3.3619920    -0.4731600     0.1685110
  H        3.3343810     0.7567850     1.4508530
  H        0.9047070     0.4438290     1.6934890
  H        0.9853290     2.1340670     1.1581470
  H        0.5274540     1.5132540    -1.1249130
  H        3.4283925    -0.3300078    -1.0537790
  H        1.9707490    -1.7331840     1.2432230
  H        3.7460890    -1.6095150     1.0882890
  H        3.1038510     2.7463240     0.1779830
  H       -0.3107400    -1.7892010    -0.5436980
  H        2.9100300    -3.5650720     0.1192120
  H       -2.7034680    -2.5490840    -0.1532500
  H       -5.0287110    -1.6377420    -0.0567190
  H       -5.2994710    -0.0137980     0.3861010
units angstrom
no_reorient  #important for SAPT in psi4, default
symmetry c1  #important for SAPT in psi4, default
}

set PROPERTIES_ORIGIN ["COM"]
properties('MP2/aug-cc-pvtz', properties = ['dipole'])
--------------------------------------------------------------------------

    Molecular point group: c1
  Charge       = 0
  Multiplicity = 1
  Basis Set: AUG-CC-PVTZ
    Blend: AUG-CC-PVTZ
  Basis Set: (AUG-CC-PVTZ AUX)
    Blend: AUG-CC-PVTZ-JKFIT

    Orbital Energies [Eh]
    ---------------------

    Doubly Occupied:

       1A    -20.579130     2A    -20.577309     3A    -20.572682
       4A    -20.502367     5A    -15.621087     6A    -15.587910
       7A    -15.540269     8A    -11.369255     9A    -11.344500
      10A    -11.329562    11A    -11.317718    12A    -11.301114
      13A    -11.297038    14A    -11.292269    15A    -11.236453
      16A    -11.235756    17A     -1.418057    18A     -1.389816
      19A     -1.378741    20A     -1.368086    21A     -1.291646
      22A     -1.260821    23A     -1.168564    24A     -1.074518
      25A     -1.065996    26A     -1.025004    27A     -0.925837
      28A     -0.897230    29A     -0.869991    30A     -0.830974
      31A     -0.804839    32A     -0.753785    33A     -0.738015
      34A     -0.720125    35A     -0.711433    36A     -0.696536
      37A     -0.690128    38A     -0.675641    39A     -0.656512
      40A     -0.637030    41A     -0.628276    42A     -0.619165
      43A     -0.604350    44A     -0.597558    45A     -0.589012
      46A     -0.573723    47A     -0.570345    48A     -0.545534
      49A     -0.535373    50A     -0.522103    51A     -0.511119
      52A     -0.482697    53A     -0.477405    54A     -0.467490
      55A     -0.456737    56A     -0.441218    57A     -0.437665
      58A     -0.415473    59A     -0.382947    60A     -0.334219

  @DF-RHF Final Energy:  -811.47747693457097

   => Energetics <=

    Nuclear Repulsion Energy =           1169.6463770072250554
    One-Electron Energy =               -3434.3553986005795196
    Two-Electron Energy =                1453.2315446587833776
    Total Energy =                       -811.4774769345710865
  Basis Set: (AUG-CC-PVTZ AUX)
    Blend: AUG-CC-PVTZ-RI
    Molecular point group: c1

    Geometry (in Angstrom), charge = 0, multiplicity = 1:

       Center              X                  Y                   Z               Mass
    ------------   -----------------  -----------------  -----------------  -----------------
         O            1.359888358368    -0.381077264355    -0.930315081431    15.994914619570
         O            3.199874358368     1.900146735645    -0.297984081431    15.994914619570
         O            2.797224358368    -2.750013264355    -0.398672081431    15.994914619570
         O           -1.364368641632     2.372938735645     0.156311918569    15.994914619570
         N           -0.800426641632     0.198351735645    -0.227727081431    14.003074004430
         N           -3.056354641632     0.804172735645     0.241540918569    14.003074004430
         N           -4.675592641632    -0.813501264355     0.414165918569    14.003074004430
         C            2.739801358368     0.891786635645     0.530991018569    12.000000000000
         C            1.234661358368     1.106159735645     0.889380918569    12.000000000000
         C            2.649636358368    -0.393357264355    -0.283941081431    12.000000000000
         C            0.571775358368     0.681937735645    -0.413387081431    12.000000000000
         C            2.799915358368    -1.661082264355     0.523998918569    12.000000000000
         C           -1.129519641632    -1.116885264355    -0.306747081431    12.000000000000
         C           -1.746870641632     1.202825735645     0.083573918569    12.000000000000
         C           -2.419489641632    -1.505627264355    -0.103013081431    12.000000000000
         C           -3.364174641632    -0.474226264355     0.170039918569    12.000000000000
         H            3.332198358368     0.755718735645     1.452381918569     1.007825032230
         H            0.902524358368     0.442762735645     1.695017918569     1.007825032230
         H            0.983146358368     2.133000735645     1.159675918569     1.007825032230
         H            0.525271358368     1.512187735645    -1.123384081431     1.007825032230
         H            3.426209858368    -0.331074064355    -1.052250081431     1.007825032230
         H            1.968566358368    -1.734250264355     1.244751918569     1.007825032230
         H            3.743906358368    -1.610581264355     1.089817918569     1.007825032230
         H            3.101668358368     2.745257735645     0.179511918569     1.007825032230
         H           -0.312922641632    -1.790267264355    -0.542169081431     1.007825032230
         H            2.907847358368    -3.566138264355     0.120740918569     1.007825032230
         H           -2.705650641632    -2.550150264355    -0.151721081431     1.007825032230
         H           -5.030893641632    -1.638808264355    -0.055190081431     1.007825032230
         H           -5.301653641632    -0.014864264355     0.387629918569     1.007825032230

  Basis Set: AUG-CC-PVTZ
    Blend: AUG-CC-PVTZ
  Basis Set: (AUG-CC-PVTZ AUX)
    Blend: AUG-CC-PVTZ-JKFIT
	 Reference Energy          =    -811.4774769345709728 [Eh]
	 Singles Energy            =      -0.0000000000000000 [Eh]
	 Same-Spin Energy          =      -0.8295870813847035 [Eh]
	 Opposite-Spin Energy      =      -2.5245975888318779 [Eh]
	 Correlation Energy        =      -3.3541846702165814 [Eh]
	 Total Energy              =    -814.8316616047875414 [Eh]

	 ================> DF-SCS-MP2 Energies <==================
	-----------------------------------------------------------
	 SCS Same-Spin Scale       =       0.3333333333333333 [-]
	 SCS Opposite-Spin Scale   =       1.2000000000000000 [-]
	 SCS Same-Spin Energy      =      -0.2765290271282345 [Eh]
	 SCS Opposite-Spin Energy  =      -3.0295171065982536 [Eh]
	 SCS Correlation Energy    =      -3.3060461337264879 [Eh]
	 SCS Total Energy          =    -814.7835230682974270 [Eh]
	-----------------------------------------------------------

  Dipole Moment: [D]
     X:     1.2131      Y:    -4.5411      Z:     2.4223     Total:     5.2878

*** Psi4 exiting successfully. Buy a developer a beer!
