                               Psi4 1.3.2 release

  ==> Input File <==

--------------------------------------------------------------------------
#psi4
#
memory 32 gb

molecule  {
0 1
  O        1.3620710    -0.3800110    -0.9318440
  O        3.2020570     1.9012130    -0.2995130
  O        2.7994070    -2.7489470    -0.4002010
  O       -1.3621860     2.3740050     0.1547830
  N       -0.7982440     0.1994180    -0.2292560
  N       -3.0541720     0.8052390     0.2400120
  N       -4.6734100    -0.8124350     0.4126370
  C        2.7015950     0.8755540     0.5594740
  C        1.2368440     1.1072260     0.8878520
  C        2.6518190    -0.3922910    -0.2854700
  C        0.5184837     0.7578283    -0.3785301
  C        2.8020980    -1.6600160     0.5224700
  C       -1.1273370    -1.1158190    -0.3082760
  C       -1.7446880     1.2038920     0.0820450
  C       -2.4173070    -1.5045610    -0.1045420
  C       -3.3619920    -0.4731600     0.1685110
  H        3.3343810     0.7567850     1.4508530
  H        0.9047070     0.4438290     1.6934890
  H        0.9853290     2.1340670     1.1581470
  H        0.5274540     1.5132540    -1.1249130
  H        3.4174920    -0.3642830    -1.0666260
  H        1.9707490    -1.7331840     1.2432230
  H        3.7460890    -1.6095150     1.0882890
  H        3.1038510     2.7463240     0.1779830
  H       -0.3107400    -1.7892010    -0.5436980
  H        2.9100300    -3.5650720     0.1192120
  H       -2.7034680    -2.5490840    -0.1532500
  H       -5.0287110    -1.6377420    -0.0567190
  H       -5.2994710    -0.0137980     0.3861010
units angstrom
no_reorient  #important for SAPT in psi4, default
symmetry c1  #important for SAPT in psi4, default
}

set PROPERTIES_ORIGIN ["COM"]
properties('MP2/aug-cc-pvtz', properties = ['dipole'])
--------------------------------------------------------------------------

    Molecular point group: c1
  Charge       = 0
  Multiplicity = 1
  Basis Set: AUG-CC-PVTZ
    Blend: AUG-CC-PVTZ
  Basis Set: (AUG-CC-PVTZ AUX)
    Blend: AUG-CC-PVTZ-JKFIT

    Orbital Energies [Eh]
    ---------------------

    Doubly Occupied:

       1A    -20.574266     2A    -20.573424     3A    -20.560179
       4A    -20.507476     5A    -15.626108     6A    -15.590581
       7A    -15.542956     8A    -11.372707     9A    -11.347768
      10A    -11.332523    11A    -11.322025    12A    -11.299941
      13A    -11.292529    14A    -11.285766    15A    -11.240186
      16A    -11.237943    17A     -1.401510    18A     -1.383155
      19A     -1.370711    20A     -1.352255    21A     -1.295211
      22A     -1.265567    23A     -1.172458    24A     -1.084152
      25A     -1.065245    26A     -1.027113    27A     -0.930211
      28A     -0.898960    29A     -0.871090    30A     -0.831289
      31A     -0.800778    32A     -0.756680    33A     -0.740246
      34A     -0.717205    35A     -0.708221    36A     -0.693867
      37A     -0.684822    38A     -0.674518    39A     -0.653078
      40A     -0.637780    41A     -0.629779    42A     -0.619256
      43A     -0.604258    44A     -0.592062    45A     -0.586298
      46A     -0.578943    47A     -0.558930    48A     -0.539045
      49A     -0.533593    50A     -0.519808    51A     -0.512660
      52A     -0.483902    53A     -0.477859    54A     -0.464558
      55A     -0.460498    56A     -0.446726    57A     -0.436728
      58A     -0.419003    59A     -0.387178    60A     -0.339232

  @DF-RHF Final Energy:  -811.46850772004177

   => Energetics <=

    Nuclear Repulsion Energy =           1169.3571600377622417
    One-Electron Energy =               -3433.8256958629654036
    Two-Electron Energy =                1453.0000281051613911
    Total Energy =                       -811.4685077200417709
  Basis Set: (AUG-CC-PVTZ AUX)
    Blend: AUG-CC-PVTZ-RI
    Molecular point group: c1

    Geometry (in Angstrom), charge = 0, multiplicity = 1:

       Center              X                  Y                   Z               Mass
    ------------   -----------------  -----------------  -----------------  -----------------
         O            1.365002376150    -0.383964928479    -0.933766682032    15.994914619570
         O            3.204988376150     1.897259071521    -0.301435682032    15.994914619570
         O            2.802338376150    -2.752900928479    -0.402123682032    15.994914619570
         O           -1.359254623850     2.370051071521     0.152860317968    15.994914619570
         N           -0.795312623850     0.195464071521    -0.231178682032    14.003074004430
         N           -3.051240623850     0.801285071521     0.238089317968    14.003074004430
         N           -4.670478623850    -0.816388928479     0.410714317968    14.003074004430
         C            2.704526376150     0.871600071521     0.557551317968    12.000000000000
         C            1.239775376150     1.103272071521     0.885929317968    12.000000000000
         C            2.654750376150    -0.396244928479    -0.287392682032    12.000000000000
         C            0.521415076150     0.753874371521    -0.380452782032    12.000000000000
         C            2.805029376150    -1.663969928479     0.520547317968    12.000000000000
         C           -1.124405623850    -1.119772928479    -0.310198682032    12.000000000000
         C           -1.741756623850     1.199938071521     0.080122317968    12.000000000000
         C           -2.414375623850    -1.508514928479    -0.106464682032    12.000000000000
         C           -3.359060623850    -0.477113928479     0.166588317968    12.000000000000
         H            3.337312376150     0.752831071521     1.448930317968     1.007825032230
         H            0.907638376150     0.439875071521     1.691566317968     1.007825032230
         H            0.988260376150     2.130113071521     1.156224317968     1.007825032230
         H            0.530385376150     1.509300071521    -1.126835682032     1.007825032230
         H            3.420423376150    -0.368236928479    -1.068548682032     1.007825032230
         H            1.973680376150    -1.737137928479     1.241300317968     1.007825032230
         H            3.749020376150    -1.613468928479     1.086366317968     1.007825032230
         H            3.106782376150     2.742370071521     0.176060317968     1.007825032230
         H           -0.307808623850    -1.793154928479    -0.545620682032     1.007825032230
         H            2.912961376150    -3.569025928479     0.117289317968     1.007825032230
         H           -2.700536623850    -2.553037928479    -0.155172682032     1.007825032230
         H           -5.025779623850    -1.641695928479    -0.058641682032     1.007825032230
         H           -5.296539623850    -0.017751928479     0.384178317968     1.007825032230

  Basis Set: AUG-CC-PVTZ
    Blend: AUG-CC-PVTZ
  Basis Set: (AUG-CC-PVTZ AUX)
    Blend: AUG-CC-PVTZ-JKFIT
	 Reference Energy          =    -811.4685077200417709 [Eh]
	 Singles Energy            =      -0.0000000000000000 [Eh]
	 Same-Spin Energy          =      -0.8303303909512776 [Eh]
	 Opposite-Spin Energy      =      -2.5273389491539722 [Eh]
	 Correlation Energy        =      -3.3576693401052498 [Eh]
	 Total Energy              =    -814.8261770601470744 [Eh]

	 ================> DF-SCS-MP2 Energies <==================
	-----------------------------------------------------------
	 SCS Same-Spin Scale       =       0.3333333333333333 [-]
	 SCS Opposite-Spin Scale   =       1.2000000000000000 [-]
	 SCS Same-Spin Energy      =      -0.2767767969837592 [Eh]
	 SCS Opposite-Spin Energy  =      -3.0328067389847666 [Eh]
	 SCS Correlation Energy    =      -3.3095835359685259 [Eh]
	 SCS Total Energy          =    -814.7780912560102706 [Eh]
	-----------------------------------------------------------

  Dipole Moment: [D]
     X:     0.6140      Y:    -4.4856      Z:     2.5708     Total:     5.2064

*** Psi4 exiting successfully. Buy a developer a beer!
