                               Psi4 1.3.2 release

  ==> Input File <==

--------------------------------------------------------------------------
#psi4
#
memory 32 gb

molecule  {
0 1
  O        1.3620710    -0.3800110    -0.9318440
  O        3.2020570     1.9012130    -0.2995130
  O        2.7994070    -2.7489470    -0.4002010
  O       -1.3621860     2.3740050     0.1547830
  N       -0.7982440     0.1994180    -0.2292560
  N       -3.0541720     0.8052390     0.2400120
  N       -4.6734100    -0.8124350     0.4126370
  C        2.7015950     0.8755540     0.5594740
  C        1.2368440     1.1072260     0.8878520
  C        2.6518190    -0.3922910    -0.2854700
  C        0.5739580     0.6830040    -0.4149160
  C        2.8020980    -1.6600160     0.5224700
  C       -1.1273370    -1.1158190    -0.3082760
  C       -1.5546194     1.2617556     0.0591164
  C       -2.4173070    -1.5045610    -0.1045420
  C       -3.3619920    -0.4731600     0.1685110
  H        3.3343810     0.7567850     1.4508530
  H        0.9047070     0.4438290     1.6934890
  H        0.9853290     2.1340670     1.1581470
  H        0.5274540     1.5132540    -1.1249130
  H        3.4174920    -0.3642830    -1.0666260
  H        1.9707490    -1.7331840     1.2432230
  H        3.7460890    -1.6095150     1.0882890
  H        3.1038510     2.7463240     0.1779830
  H       -0.3107400    -1.7892010    -0.5436980
  H        2.9100300    -3.5650720     0.1192120
  H       -2.7034680    -2.5490840    -0.1532500
  H       -5.0287110    -1.6377420    -0.0567190
  H       -5.2994710    -0.0137980     0.3861010
units angstrom
no_reorient  #important for SAPT in psi4, default
symmetry c1  #important for SAPT in psi4, default
}

set PROPERTIES_ORIGIN ["COM"]
properties('MP2/aug-cc-pvtz', properties = ['dipole'])
--------------------------------------------------------------------------

    Molecular point group: c1
  Charge       = 0
  Multiplicity = 1
  Basis Set: AUG-CC-PVTZ
    Blend: AUG-CC-PVTZ
  Basis Set: (AUG-CC-PVTZ AUX)
    Blend: AUG-CC-PVTZ-JKFIT

    Orbital Energies [Eh]
    ---------------------

    Doubly Occupied:

       1A    -20.579350     2A    -20.579343     3A    -20.576467
       4A    -20.533069     5A    -15.623647     6A    -15.570486
       7A    -15.524669     8A    -11.371114     9A    -11.335882
      10A    -11.318068    11A    -11.312998    12A    -11.306166
      13A    -11.299148    14A    -11.296421    15A    -11.244263
      16A    -11.235593    17A     -1.455420    18A     -1.416703
      19A     -1.376947    20A     -1.371919    21A     -1.311715
      22A     -1.251362    23A     -1.125747    24A     -1.083086
      25A     -1.067406    26A     -1.034128    27A     -0.926973
      28A     -0.913318    29A     -0.862032    30A     -0.814926
      31A     -0.807975    32A     -0.748216    33A     -0.734812
      34A     -0.724642    35A     -0.705364    36A     -0.694770
      37A     -0.693199    38A     -0.676222    39A     -0.656025
      40A     -0.652157    41A     -0.638763    42A     -0.632825
      43A     -0.607501    44A     -0.596062    45A     -0.587690
      46A     -0.577463    47A     -0.570133    48A     -0.548539
      49A     -0.536007    50A     -0.528733    51A     -0.523343
      52A     -0.493431    53A     -0.490629    54A     -0.472047
      55A     -0.468803    56A     -0.458004    57A     -0.442099
      58A     -0.382542    59A     -0.366958    60A     -0.330471

  @DF-RHF Final Energy:  -811.43505653540603

   => Energetics <=

    Nuclear Repulsion Energy =           1171.6175380228544327
    One-Electron Energy =               -3437.9776116797970644
    Two-Electron Energy =                1454.9250171215362570
    Total Energy =                       -811.4350565354061473
  Basis Set: (AUG-CC-PVTZ AUX)
    Blend: AUG-CC-PVTZ-RI
    Molecular point group: c1

    Geometry (in Angstrom), charge = 0, multiplicity = 1:

       Center              X                  Y                   Z               Mass
    ------------   -----------------  -----------------  -----------------  -----------------
         O            1.352027313672    -0.383068685329    -0.930632364797    15.994914619570
         O            3.192013313672     1.898155314671    -0.298301364797    15.994914619570
         O            2.789363313672    -2.752004685329    -0.398989364797    15.994914619570
         O           -1.372229686328     2.370947314671     0.155994635203    15.994914619570
         N           -0.808287686328     0.196360314671    -0.228044364797    14.003074004430
         N           -3.064215686328     0.802181314671     0.241223635203    14.003074004430
         N           -4.683453686328    -0.815492685329     0.413848635203    14.003074004430
         C            2.691551313672     0.872496314671     0.560685635203    12.000000000000
         C            1.226800313672     1.104168314671     0.889063635203    12.000000000000
         C            2.641775313672    -0.395348685329    -0.284258364797    12.000000000000
         C            0.563914313672     0.679946314671    -0.413704364797    12.000000000000
         C            2.792054313672    -1.663073685329     0.523681635203    12.000000000000
         C           -1.137380686328    -1.118876685329    -0.307064364797    12.000000000000
         C           -1.564663086328     1.258697914671     0.060328035203    12.000000000000
         C           -2.427350686328    -1.507618685329    -0.103330364797    12.000000000000
         C           -3.372035686328    -0.476217685329     0.169722635203    12.000000000000
         H            3.324337313672     0.753727314671     1.452064635203     1.007825032230
         H            0.894663313672     0.440771314671     1.694700635203     1.007825032230
         H            0.975285313672     2.131009314671     1.159358635203     1.007825032230
         H            0.517410313672     1.510196314671    -1.123701364797     1.007825032230
         H            3.407448313672    -0.367340685329    -1.065414364797     1.007825032230
         H            1.960705313672    -1.736241685329     1.244434635203     1.007825032230
         H            3.736045313672    -1.612572685329     1.089500635203     1.007825032230
         H            3.093807313672     2.743266314671     0.179194635203     1.007825032230
         H           -0.320783686328    -1.792258685329    -0.542486364797     1.007825032230
         H            2.899986313672    -3.568129685329     0.120423635203     1.007825032230
         H           -2.713511686328    -2.552141685329    -0.152038364797     1.007825032230
         H           -5.038754686328    -1.640799685329    -0.055507364797     1.007825032230
         H           -5.309514686328    -0.016855685329     0.387312635203     1.007825032230

  Basis Set: AUG-CC-PVTZ
    Blend: AUG-CC-PVTZ
  Basis Set: (AUG-CC-PVTZ AUX)
    Blend: AUG-CC-PVTZ-JKFIT
	 Reference Energy          =    -811.4350565354060336 [Eh]
	 Singles Energy            =      -0.0000000000000000 [Eh]
	 Same-Spin Energy          =      -0.8295962522945390 [Eh]
	 Opposite-Spin Energy      =      -2.5280111278375568 [Eh]
	 Correlation Energy        =      -3.3576073801320958 [Eh]
	 Total Energy              =    -814.7926639155381281 [Eh]

	 ================> DF-SCS-MP2 Energies <==================
	-----------------------------------------------------------
	 SCS Same-Spin Scale       =       0.3333333333333333 [-]
	 SCS Opposite-Spin Scale   =       1.2000000000000000 [-]
	 SCS Same-Spin Energy      =      -0.2765320840981796 [Eh]
	 SCS Opposite-Spin Energy  =      -3.0336133534050682 [Eh]
	 SCS Correlation Energy    =      -3.3101454375032477 [Eh]
	 SCS Total Energy          =    -814.7452019729092854 [Eh]
	-----------------------------------------------------------

  Dipole Moment: [D]
     X:     2.3138      Y:    -3.7896      Z:     2.4202     Total:     5.0569

*** Psi4 exiting successfully. Buy a developer a beer!
