                               Psi4 1.3.2 release

  ==> Input File <==

--------------------------------------------------------------------------
#psi4
#
memory 32 gb

molecule  {
0 1
  O        1.3620710    -0.3800110    -0.9318440
  O        3.2020570     1.9012130    -0.2995130
  O        2.7994070    -2.7489470    -0.4002010
  O       -1.3621860     2.3740050     0.1547830
  N       -0.7893264     0.2079546    -0.2294439
  N       -3.0573102     0.8166245     0.2422726
  N       -4.6734100    -0.8124350     0.4126370
  C        2.7015950     0.8755540     0.5594740
  C        1.2368440     1.1072260     0.8878520
  C        2.6518190    -0.3922910    -0.2854700
  C        0.5739580     0.6830040    -0.4149160
  C        2.8020980    -1.6600160     0.5224700
  C       -1.1273370    -1.1158190    -0.3082760
  C       -1.7446880     1.2038920     0.0820450
  C       -2.4173070    -1.5045610    -0.1045420
  C       -3.3619920    -0.4731600     0.1685110
  H        3.3343810     0.7567850     1.4508530
  H        0.9047070     0.4438290     1.6934890
  H        0.9853290     2.1340670     1.1581470
  H        0.5274540     1.5132540    -1.1249130
  H        3.4174920    -0.3642830    -1.0666260
  H        1.9707490    -1.7331840     1.2432230
  H        3.7460890    -1.6095150     1.0882890
  H        3.1038510     2.7463240     0.1779830
  H       -0.3107400    -1.7892010    -0.5436980
  H        2.9100300    -3.5650720     0.1192120
  H       -2.7034680    -2.5490840    -0.1532500
  H       -5.0287110    -1.6377420    -0.0567190
  H       -5.2994710    -0.0137980     0.3861010
units angstrom
no_reorient  #important for SAPT in psi4, default
symmetry c1  #important for SAPT in psi4, default
}

set PROPERTIES_ORIGIN ["COM"]
properties('MP2/aug-cc-pvtz', properties = ['dipole'])
--------------------------------------------------------------------------

    Molecular point group: c1
  Charge       = 0
  Multiplicity = 1
  Basis Set: AUG-CC-PVTZ
    Blend: AUG-CC-PVTZ
  Basis Set: (AUG-CC-PVTZ AUX)
    Blend: AUG-CC-PVTZ-JKFIT

    Orbital Energies [Eh]
    ---------------------

    Doubly Occupied:

       1A    -20.577654     2A    -20.573897     3A    -20.572531
       4A    -20.501101     5A    -15.621613     6A    -15.589920
       7A    -15.542439     8A    -11.368598     9A    -11.347381
      10A    -11.329450    11A    -11.320156    12A    -11.300359
      13A    -11.296693    14A    -11.292774    15A    -11.238973
      16A    -11.236016    17A     -1.416523    18A     -1.381549
      19A     -1.373340    20A     -1.365295    21A     -1.290175
      22A     -1.260730    23A     -1.168427    24A     -1.079125
      25A     -1.069280    26A     -1.027745    27A     -0.926994
      28A     -0.897116    29A     -0.867720    30A     -0.830533
      31A     -0.806318    32A     -0.754471    33A     -0.738198
      34A     -0.720656    35A     -0.707091    36A     -0.692766
      37A     -0.689067    38A     -0.675805    39A     -0.656662
      40A     -0.637307    41A     -0.626847    42A     -0.618338
      43A     -0.604187    44A     -0.595258    45A     -0.587765
      46A     -0.572787    47A     -0.568302    48A     -0.544642
      49A     -0.532421    50A     -0.523438    51A     -0.510045
      52A     -0.485348    53A     -0.480837    54A     -0.468268
      55A     -0.460444    56A     -0.443803    57A     -0.437879
      58A     -0.417190    59A     -0.382876    60A     -0.335766

  @DF-RHF Final Energy:  -811.47854347428540

   => Energetics <=

    Nuclear Repulsion Energy =           1169.6924036963532672
    One-Electron Energy =               -3434.4641099380105516
    Two-Electron Energy =                1453.2931627673719959
    Total Energy =                       -811.4785434742852885
  Basis Set: (AUG-CC-PVTZ AUX)
    Blend: AUG-CC-PVTZ-RI
    Molecular point group: c1

    Geometry (in Angstrom), charge = 0, multiplicity = 1:

       Center              X                  Y                   Z               Mass
    ------------   -----------------  -----------------  -----------------  -----------------
         O            1.361714609301    -0.381239492273    -0.931971774546    15.994914619570
         O            3.201700609301     1.899984507727    -0.299640774546    15.994914619570
         O            2.799050609301    -2.750175492273    -0.400328774546    15.994914619570
         O           -1.362542390699     2.372776507727     0.154655225454    15.994914619570
         N           -0.789682790699     0.206726107727    -0.229571674546    14.003074004430
         N           -3.057666590699     0.815396007727     0.242144825454    14.003074004430
         N           -4.673766390699    -0.813663492273     0.412509225454    14.003074004430
         C            2.701238609301     0.874325507727     0.559346225454    12.000000000000
         C            1.236487609301     1.105997507727     0.887724225454    12.000000000000
         C            2.651462609301    -0.393519492273    -0.285597774546    12.000000000000
         C            0.573601609301     0.681775507727    -0.415043774546    12.000000000000
         C            2.801741609301    -1.661244492273     0.522342225454    12.000000000000
         C           -1.127693390699    -1.117047492273    -0.308403774546    12.000000000000
         C           -1.745044390699     1.202663507727     0.081917225454    12.000000000000
         C           -2.417663390699    -1.505789492273    -0.104669774546    12.000000000000
         C           -3.362348390699    -0.474388492273     0.168383225454    12.000000000000
         H            3.334024609301     0.755556507727     1.450725225454     1.007825032230
         H            0.904350609301     0.442600507727     1.693361225454     1.007825032230
         H            0.984972609301     2.132838507727     1.158019225454     1.007825032230
         H            0.527097609301     1.512025507727    -1.125040774546     1.007825032230
         H            3.417135609301    -0.365511492273    -1.066753774546     1.007825032230
         H            1.970392609301    -1.734412492273     1.243095225454     1.007825032230
         H            3.745732609301    -1.610743492273     1.088161225454     1.007825032230
         H            3.103494609301     2.745095507727     0.177855225454     1.007825032230
         H           -0.311096390699    -1.790429492273    -0.543825774546     1.007825032230
         H            2.909673609301    -3.566300492273     0.119084225454     1.007825032230
         H           -2.703824390699    -2.550312492273    -0.153377774546     1.007825032230
         H           -5.029067390699    -1.638970492273    -0.056846774546     1.007825032230
         H           -5.299827390699    -0.015026492273     0.385973225454     1.007825032230

  Basis Set: AUG-CC-PVTZ
    Blend: AUG-CC-PVTZ
  Basis Set: (AUG-CC-PVTZ AUX)
    Blend: AUG-CC-PVTZ-JKFIT
	 Reference Energy          =    -811.4785434742854022 [Eh]
	 Singles Energy            =      -0.0000000000000000 [Eh]
	 Same-Spin Energy          =      -0.8296652445370326 [Eh]
	 Opposite-Spin Energy      =      -2.5253867448988081 [Eh]
	 Correlation Energy        =      -3.3550519894358408 [Eh]
	 Total Energy              =    -814.8335954637212808 [Eh]

	 ================> DF-SCS-MP2 Energies <==================
	-----------------------------------------------------------
	 SCS Same-Spin Scale       =       0.3333333333333333 [-]
	 SCS Opposite-Spin Scale   =       1.2000000000000000 [-]
	 SCS Same-Spin Energy      =      -0.2765550815123442 [Eh]
	 SCS Opposite-Spin Energy  =      -3.0304640938785696 [Eh]
	 SCS Correlation Energy    =      -3.3070191753909137 [Eh]
	 SCS Total Energy          =    -814.7855626496763080 [Eh]
	-----------------------------------------------------------

  Dipole Moment: [D]
     X:     0.9975      Y:    -4.7558      Z:     2.4900     Total:     5.4601

*** Psi4 exiting successfully. Buy a developer a beer!
