                               Psi4 1.3.2 release

  ==> Input File <==

--------------------------------------------------------------------------
#psi4
#
memory 32 gb

molecule  {
0 1
  O        1.3620710    -0.3800110    -0.9318440
  O        3.2020570     1.9012130    -0.2995130
  O        2.7994070    -2.7489470    -0.4002010
  O       -1.3621860     2.3740050     0.1547830
  N       -0.7982440     0.1994180    -0.2292560
  N       -3.0541720     0.8052390     0.2400120
  N       -4.6734100    -0.8124350     0.4126370
  C        2.7198346     0.9008273     0.6326307
  C        1.2368440     1.1072260     0.8878520
  C        2.6518190    -0.3922910    -0.2854700
  C        0.5033885     0.7003207    -0.3822101
  C        2.8020980    -1.6600160     0.5224700
  C       -1.1273370    -1.1158190    -0.3082760
  C       -1.7446880     1.2038920     0.0820450
  C       -2.4173070    -1.5045610    -0.1045420
  C       -3.3619920    -0.4731600     0.1685110
  H        3.3343810     0.7567850     1.4508530
  H        0.9047070     0.4438290     1.6934890
  H        0.9853290     2.1340670     1.1581470
  H        0.5274540     1.5132540    -1.1249130
  H        3.4174920    -0.3642830    -1.0666260
  H        1.9707490    -1.7331840     1.2432230
  H        3.7460890    -1.6095150     1.0882890
  H        3.1038510     2.7463240     0.1779830
  H       -0.3107400    -1.7892010    -0.5436980
  H        2.9100300    -3.5650720     0.1192120
  H       -2.7034680    -2.5490840    -0.1532500
  H       -5.0287110    -1.6377420    -0.0567190
  H       -5.2994710    -0.0137980     0.3861010
units angstrom
no_reorient  #important for SAPT in psi4, default
symmetry c1  #important for SAPT in psi4, default
}

set PROPERTIES_ORIGIN ["COM"]
properties('MP2/aug-cc-pvtz', properties = ['dipole'])
--------------------------------------------------------------------------

    Molecular point group: c1
  Charge       = 0
  Multiplicity = 1
  Basis Set: AUG-CC-PVTZ
    Blend: AUG-CC-PVTZ
  Basis Set: (AUG-CC-PVTZ AUX)
    Blend: AUG-CC-PVTZ-JKFIT

    Orbital Energies [Eh]
    ---------------------

    Doubly Occupied:

       1A    -20.573745     2A    -20.572107     3A    -20.563425
       4A    -20.507821     5A    -15.627266     6A    -15.591444
       7A    -15.544292     8A    -11.374256     9A    -11.348827
      10A    -11.330879    11A    -11.322856    12A    -11.297852
      13A    -11.291629    14A    -11.289455    15A    -11.241397
      16A    -11.237500    17A     -1.405138    18A     -1.381474
      19A     -1.367661    20A     -1.354346    21A     -1.297284
      22A     -1.270153    23A     -1.174298    24A     -1.082639
      25A     -1.062069    26A     -1.023139    27A     -0.931146
      28A     -0.900343    29A     -0.871360    30A     -0.828825
      31A     -0.806834    32A     -0.759145    33A     -0.742612
      34A     -0.716275    35A     -0.708545    36A     -0.688118
      37A     -0.680748    38A     -0.674898    39A     -0.657260
      40A     -0.636037    41A     -0.631294    42A     -0.620727
      43A     -0.606258    44A     -0.591975    45A     -0.587804
      46A     -0.581325    47A     -0.560452    48A     -0.540240
      49A     -0.533189    50A     -0.515182    51A     -0.508696
      52A     -0.481834    53A     -0.471529    54A     -0.468172
      55A     -0.460949    56A     -0.447231    57A     -0.433288
      58A     -0.420795    59A     -0.386676    60A     -0.339457

  @DF-RHF Final Energy:  -811.46331674965211

   => Energetics <=

    Nuclear Repulsion Energy =           1168.5681176420737302
    One-Electron Energy =               -3432.2185264360105066
    Two-Electron Energy =                1452.1870920442843271
    Total Energy =                       -811.4633167496522219
  Basis Set: (AUG-CC-PVTZ AUX)
    Blend: AUG-CC-PVTZ-RI
    Molecular point group: c1

    Geometry (in Angstrom), charge = 0, multiplicity = 1:

       Center              X                  Y                   Z               Mass
    ------------   -----------------  -----------------  -----------------  -----------------
         O            1.364836218683    -0.382261592498    -0.937437993739    15.994914619570
         O            3.204822218683     1.898962407502    -0.305106993739    15.994914619570
         O            2.802172218683    -2.751197592498    -0.405794993739    15.994914619570
         O           -1.359420781317     2.371754407502     0.149189006261    15.994914619570
         N           -0.795478781317     0.197167407502    -0.234849993739    14.003074004430
         N           -3.051406781317     0.802988407502     0.234418006261    14.003074004430
         N           -4.670644781317    -0.814685592498     0.407043006261    14.003074004430
         C            2.722599818683     0.898576707502     0.627036706261    12.000000000000
         C            1.239609218683     1.104975407502     0.882258006261    12.000000000000
         C            2.654584218683    -0.394541592498    -0.291063993739    12.000000000000
         C            0.506153718683     0.698070107502    -0.387804093739    12.000000000000
         C            2.804863218683    -1.662266592498     0.516876006261    12.000000000000
         C           -1.124571781317    -1.118069592498    -0.313869993739    12.000000000000
         C           -1.741922781317     1.201641407502     0.076451006261    12.000000000000
         C           -2.414541781317    -1.506811592498    -0.110135993739    12.000000000000
         C           -3.359226781317    -0.475410592498     0.162917006261    12.000000000000
         H            3.337146218683     0.754534407502     1.445259006261     1.007825032230
         H            0.907472218683     0.441578407502     1.687895006261     1.007825032230
         H            0.988094218683     2.131816407502     1.152553006261     1.007825032230
         H            0.530219218683     1.511003407502    -1.130506993739     1.007825032230
         H            3.420257218683    -0.366533592498    -1.072219993739     1.007825032230
         H            1.973514218683    -1.735434592498     1.237629006261     1.007825032230
         H            3.748854218683    -1.611765592498     1.082695006261     1.007825032230
         H            3.106616218683     2.744073407502     0.172389006261     1.007825032230
         H           -0.307974781317    -1.791451592498    -0.549291993739     1.007825032230
         H            2.912795218683    -3.567322592498     0.113618006261     1.007825032230
         H           -2.700702781317    -2.551334592498    -0.158843993739     1.007825032230
         H           -5.025945781317    -1.639992592498    -0.062312993739     1.007825032230
         H           -5.296705781317    -0.016048592498     0.380507006261     1.007825032230

  Basis Set: AUG-CC-PVTZ
    Blend: AUG-CC-PVTZ
  Basis Set: (AUG-CC-PVTZ AUX)
    Blend: AUG-CC-PVTZ-JKFIT
	 Reference Energy          =    -811.4633167496521082 [Eh]
	 Singles Energy            =      -0.0000000000000000 [Eh]
	 Same-Spin Energy          =      -0.8302842301845290 [Eh]
	 Opposite-Spin Energy      =      -2.5275809372104767 [Eh]
	 Correlation Energy        =      -3.3578651673950057 [Eh]
	 Total Energy              =    -814.8211819170471699 [Eh]

	 ================> DF-SCS-MP2 Energies <==================
	-----------------------------------------------------------
	 SCS Same-Spin Scale       =       0.3333333333333333 [-]
	 SCS Opposite-Spin Scale   =       1.2000000000000000 [-]
	 SCS Same-Spin Energy      =      -0.2767614100615097 [Eh]
	 SCS Opposite-Spin Energy  =      -3.0330971246525720 [Eh]
	 SCS Correlation Energy    =      -3.3098585347140816 [Eh]
	 SCS Total Energy          =    -814.7731752843661752 [Eh]
	-----------------------------------------------------------

  Dipole Moment: [D]
     X:     0.5448      Y:    -4.6110      Z:     2.6264     Total:     5.3344

*** Psi4 exiting successfully. Buy a developer a beer!
