                               Psi4 1.3.2 release

  ==> Input File <==

--------------------------------------------------------------------------
#psi4
#
memory 32 gb

molecule  {
0 1
  O        1.3620710    -0.3800110    -0.9318440
  O        3.2020570     1.9012130    -0.2995130
  O        2.7994070    -2.7489470    -0.4002010
  O       -1.3621860     2.3740050     0.1547830
  N       -0.7982440     0.1994180    -0.2292560
  N       -3.0541720     0.8052390     0.2400120
  N       -4.6734100    -0.8124350     0.4126370
  C        2.6409131     0.8467165     0.6025505
  C        1.2368440     1.1072260     0.8878520
  C        2.6518190    -0.3922910    -0.2854700
  C        0.5739580     0.6830040    -0.4149160
  C        2.8020980    -1.6600160     0.5224700
  C       -1.1273370    -1.1158190    -0.3082760
  C       -1.7446880     1.2038920     0.0820450
  C       -2.4173070    -1.5045610    -0.1045420
  C       -3.3619920    -0.4731600     0.1685110
  H        3.3343810     0.7567850     1.4508530
  H        0.9047070     0.4438290     1.6934890
  H        0.9853290     2.1340670     1.1581470
  H        0.5274540     1.5132540    -1.1249130
  H        3.3993966    -0.4157467    -1.0841075
  H        1.9707490    -1.7331840     1.2432230
  H        3.7460890    -1.6095150     1.0882890
  H        3.1038510     2.7463240     0.1779830
  H       -0.3107400    -1.7892010    -0.5436980
  H        2.9100300    -3.5650720     0.1192120
  H       -2.7034680    -2.5490840    -0.1532500
  H       -5.0287110    -1.6377420    -0.0567190
  H       -5.2994710    -0.0137980     0.3861010
units angstrom
no_reorient  #important for SAPT in psi4, default
symmetry c1  #important for SAPT in psi4, default
}

set PROPERTIES_ORIGIN ["COM"]
properties('MP2/aug-cc-pvtz', properties = ['dipole'])
--------------------------------------------------------------------------

    Molecular point group: c1
  Charge       = 0
  Multiplicity = 1
  Basis Set: AUG-CC-PVTZ
    Blend: AUG-CC-PVTZ
  Basis Set: (AUG-CC-PVTZ AUX)
    Blend: AUG-CC-PVTZ-JKFIT

    Orbital Energies [Eh]
    ---------------------

    Doubly Occupied:

       1A    -20.578540     2A    -20.573209     3A    -20.566736
       4A    -20.504029     5A    -15.622653     6A    -15.588989
       7A    -15.541556     8A    -11.370809     9A    -11.345797
      10A    -11.332538    11A    -11.319098    12A    -11.302306
      13A    -11.296817    14A    -11.294836    15A    -11.237837
      16A    -11.237553    17A     -1.417106    18A     -1.382321
      19A     -1.371232    20A     -1.346239    21A     -1.293050
      22A     -1.262291    23A     -1.169896    24A     -1.089986
      25A     -1.071346    26A     -1.031958    27A     -0.928700
      28A     -0.897866    29A     -0.867692    30A     -0.830917
      31A     -0.808749    32A     -0.754972    33A     -0.740310
      34A     -0.723828    35A     -0.705415    36A     -0.694482
      37A     -0.676398    38A     -0.675769    39A     -0.657005
      40A     -0.638488    41A     -0.627064    42A     -0.618168
      43A     -0.605245    44A     -0.592278    45A     -0.588690
      46A     -0.573722    47A     -0.567353    48A     -0.544638
      49A     -0.529080    50A     -0.525567    51A     -0.504741
      52A     -0.494549    53A     -0.484184    54A     -0.469675
      55A     -0.464019    56A     -0.446478    57A     -0.437520
      58A     -0.417299    59A     -0.384700    60A     -0.335904

  @DF-RHF Final Energy:  -811.47094000284073

   => Energetics <=

    Nuclear Repulsion Energy =           1170.4595886864551630
    One-Electron Energy =               -3435.9406682937828919
    Two-Electron Energy =                1454.0101396044872217
    Total Energy =                       -811.4709400028407345
  Basis Set: (AUG-CC-PVTZ AUX)
    Blend: AUG-CC-PVTZ-RI
    Molecular point group: c1

    Geometry (in Angstrom), charge = 0, multiplicity = 1:

       Center              X                  Y                   Z               Mass
    ------------   -----------------  -----------------  -----------------  -----------------
         O            1.365357865083    -0.378258800742    -0.934042646361    15.994914619570
         O            3.205343865083     1.902965199258    -0.301711646361    15.994914619570
         O            2.802693865083    -2.747194800742    -0.402399646361    15.994914619570
         O           -1.358899134917     2.375757199258     0.152584353639    15.994914619570
         N           -0.794957134917     0.201170199258    -0.231454646361    14.003074004430
         N           -3.050885134917     0.806991199258     0.237813353639    14.003074004430
         N           -4.670123134917    -0.810682800742     0.410438353639    14.003074004430
         C            2.644199965083     0.848468699258     0.600351853639    12.000000000000
         C            1.240130865083     1.108978199258     0.885653353639    12.000000000000
         C            2.655105865083    -0.390538800742    -0.287668646361    12.000000000000
         C            0.577244865083     0.684756199258    -0.417114646361    12.000000000000
         C            2.805384865083    -1.658263800742     0.520271353639    12.000000000000
         C           -1.124050134917    -1.114066800742    -0.310474646361    12.000000000000
         C           -1.741401134917     1.205644199258     0.079846353639    12.000000000000
         C           -2.414020134917    -1.502808800742    -0.106740646361    12.000000000000
         C           -3.358705134917    -0.471407800742     0.166312353639    12.000000000000
         H            3.337667865083     0.758537199258     1.448654353639     1.007825032230
         H            0.907993865083     0.445581199258     1.691290353639     1.007825032230
         H            0.988615865083     2.135819199258     1.155948353639     1.007825032230
         H            0.530740865083     1.515006199258    -1.127111646361     1.007825032230
         H            3.402683465083    -0.413994500742    -1.086306146361     1.007825032230
         H            1.974035865083    -1.731431800742     1.241024353639     1.007825032230
         H            3.749375865083    -1.607762800742     1.086090353639     1.007825032230
         H            3.107137865083     2.748076199258     0.175784353639     1.007825032230
         H           -0.307453134917    -1.787448800742    -0.545896646361     1.007825032230
         H            2.913316865083    -3.563319800742     0.117013353639     1.007825032230
         H           -2.700181134917    -2.547331800742    -0.155448646361     1.007825032230
         H           -5.025424134917    -1.635989800742    -0.058917646361     1.007825032230
         H           -5.296184134917    -0.012045800742     0.383902353639     1.007825032230

  Basis Set: AUG-CC-PVTZ
    Blend: AUG-CC-PVTZ
  Basis Set: (AUG-CC-PVTZ AUX)
    Blend: AUG-CC-PVTZ-JKFIT
	 Reference Energy          =    -811.4709400028407345 [Eh]
	 Singles Energy            =      -0.0000000000000000 [Eh]
	 Same-Spin Energy          =      -0.8303429600168262 [Eh]
	 Opposite-Spin Energy      =      -2.5268339959416499 [Eh]
	 Correlation Energy        =      -3.3571769559584759 [Eh]
	 Total Energy              =    -814.8281169587992281 [Eh]

	 ================> DF-SCS-MP2 Energies <==================
	-----------------------------------------------------------
	 SCS Same-Spin Scale       =       0.3333333333333333 [-]
	 SCS Opposite-Spin Scale   =       1.2000000000000000 [-]
	 SCS Same-Spin Energy      =      -0.2767809866722754 [Eh]
	 SCS Opposite-Spin Energy  =      -3.0322007951299796 [Eh]
	 SCS Correlation Energy    =      -3.3089817818022551 [Eh]
	 SCS Total Energy          =    -814.7799217846429656 [Eh]
	-----------------------------------------------------------

  Dipole Moment: [D]
     X:     0.8728      Y:    -4.8759      Z:     2.5815     Total:     5.5857

*** Psi4 exiting successfully. Buy a developer a beer!
