                               Psi4 1.3.2 release

  ==> Input File <==

--------------------------------------------------------------------------
#psi4
#
memory 32 gb

molecule  {
0 1
  O        1.3620710    -0.3800110    -0.9318440
  O        3.2020570     1.9012130    -0.2995130
  O        2.7994070    -2.7489470    -0.4002010
  O       -1.3621860     2.3740050     0.1547830
  N       -0.7982440     0.1994180    -0.2292560
  N       -3.0541720     0.8052390     0.2400120
  N       -4.6734100    -0.8124350     0.4126370
  C        2.7081237     0.8839113     0.5837694
  C        1.2368440     1.1072260     0.8878520
  C        2.6518190    -0.3922910    -0.2854700
  C        0.5502233     0.6886493    -0.4044066
  C        2.8020980    -1.6600160     0.5224700
  C       -1.1273370    -1.1158190    -0.3082760
  C       -1.7446880     1.2038920     0.0820450
  C       -2.4173070    -1.5045610    -0.1045420
  C       -3.3619920    -0.4731600     0.1685110
  H        3.3343810     0.7567850     1.4508530
  H        0.9047070     0.4438290     1.6934890
  H        0.9853290     2.1340670     1.1581470
  H        0.5274540     1.5132540    -1.1249130
  H        3.4174920    -0.3642830    -1.0666260
  H        1.9707490    -1.7331840     1.2432230
  H        3.7460890    -1.6095150     1.0882890
  H        3.1038510     2.7463240     0.1779830
  H       -0.3107400    -1.7892010    -0.5436980
  H        2.9100300    -3.5650720     0.1192120
  H       -2.7034680    -2.5490840    -0.1532500
  H       -5.0287110    -1.6377420    -0.0567190
  H       -5.2994710    -0.0137980     0.3861010
units angstrom
no_reorient  #important for SAPT in psi4, default
symmetry c1  #important for SAPT in psi4, default
}

set PROPERTIES_ORIGIN ["COM"]
properties('MP2/aug-cc-pvtz', properties = ['dipole'])
--------------------------------------------------------------------------

    Molecular point group: c1
  Charge       = 0
  Multiplicity = 1
  Basis Set: AUG-CC-PVTZ
    Blend: AUG-CC-PVTZ
  Basis Set: (AUG-CC-PVTZ AUX)
    Blend: AUG-CC-PVTZ-JKFIT

    Orbital Energies [Eh]
    ---------------------

    Doubly Occupied:

       1A    -20.576399     2A    -20.573553     3A    -20.569706
       4A    -20.504607     5A    -15.623734     6A    -15.589383
       7A    -15.541963     8A    -11.371344     9A    -11.346300
      10A    -11.330476    11A    -11.319814    12A    -11.299680
      13A    -11.295078    14A    -11.291792    15A    -11.238473
      16A    -11.236834    17A     -1.410742    18A     -1.383176
      19A     -1.371643    20A     -1.362188    21A     -1.293901
      22A     -1.264400    23A     -1.170832    24A     -1.079389
      25A     -1.066818    26A     -1.026486    27A     -0.927828
      28A     -0.898431    29A     -0.869612    30A     -0.829798
      31A     -0.806604    32A     -0.755809    33A     -0.740060
      34A     -0.718938    35A     -0.707295    36A     -0.691164
      37A     -0.686577    38A     -0.675390    39A     -0.656272
      40A     -0.636903    41A     -0.629052    42A     -0.619151
      43A     -0.604941    44A     -0.593857    45A     -0.588438
      46A     -0.575860    47A     -0.565903    48A     -0.543288
      49A     -0.532745    50A     -0.521184    51A     -0.509509
      52A     -0.483484    53A     -0.480142    54A     -0.467704
      55A     -0.462164    56A     -0.445557    57A     -0.436824
      58A     -0.417940    59A     -0.384771    60A     -0.336470

  @DF-RHF Final Energy:  -811.47722642903136

   => Energetics <=

    Nuclear Repulsion Energy =           1169.4653914621887907
    One-Electron Energy =               -3434.0084817607980767
    Two-Electron Energy =                1453.0658638695776972
    Total Energy =                       -811.4772264290313615
  Basis Set: (AUG-CC-PVTZ AUX)
    Blend: AUG-CC-PVTZ-RI
    Molecular point group: c1

    Geometry (in Angstrom), charge = 0, multiplicity = 1:

       Center              X                  Y                   Z               Mass
    ------------   -----------------  -----------------  -----------------  -----------------
         O            1.362980189464    -0.380750967262    -0.933683133001    15.994914619570
         O            3.202966189464     1.900473032738    -0.301352133001    15.994914619570
         O            2.800316189464    -2.749686967262    -0.402040133001    15.994914619570
         O           -1.361276810536     2.373265032738     0.152943866999    15.994914619570
         N           -0.797334810536     0.198678032738    -0.231095133001    14.003074004430
         N           -3.053262810536     0.804499032738     0.238172866999    14.003074004430
         N           -4.672500810536    -0.813174967262     0.410797866999    14.003074004430
         C            2.709032889464     0.883171332738     0.581930266999    12.000000000000
         C            1.237753189464     1.106486032738     0.886012866999    12.000000000000
         C            2.652728189464    -0.393030967262    -0.287309133001    12.000000000000
         C            0.551132489464     0.687909332738    -0.406245733001    12.000000000000
         C            2.803007189464    -1.660755967262     0.520630866999    12.000000000000
         C           -1.126427810536    -1.116558967262    -0.310115133001    12.000000000000
         C           -1.743778810536     1.203152032738     0.080205866999    12.000000000000
         C           -2.416397810536    -1.505300967262    -0.106381133001    12.000000000000
         C           -3.361082810536    -0.473899967262     0.166671866999    12.000000000000
         H            3.335290189464     0.756045032738     1.449013866999     1.007825032230
         H            0.905616189464     0.443089032738     1.691649866999     1.007825032230
         H            0.986238189464     2.133327032738     1.156307866999     1.007825032230
         H            0.528363189464     1.512514032738    -1.126752133001     1.007825032230
         H            3.418401189464    -0.365022967262    -1.068465133001     1.007825032230
         H            1.971658189464    -1.733923967262     1.241383866999     1.007825032230
         H            3.746998189464    -1.610254967262     1.086449866999     1.007825032230
         H            3.104760189464     2.745584032738     0.176143866999     1.007825032230
         H           -0.309830810536    -1.789940967262    -0.545537133001     1.007825032230
         H            2.910939189464    -3.565811967262     0.117372866999     1.007825032230
         H           -2.702558810536    -2.549823967262    -0.155089133001     1.007825032230
         H           -5.027801810536    -1.638481967262    -0.058558133001     1.007825032230
         H           -5.298561810536    -0.014537967262     0.384261866999     1.007825032230

  Basis Set: AUG-CC-PVTZ
    Blend: AUG-CC-PVTZ
  Basis Set: (AUG-CC-PVTZ AUX)
    Blend: AUG-CC-PVTZ-JKFIT
	 Reference Energy          =    -811.4772264290313615 [Eh]
	 Singles Energy            =      -0.0000000000000000 [Eh]
	 Same-Spin Energy          =      -0.8297124299791514 [Eh]
	 Opposite-Spin Energy      =      -2.5256920545005159 [Eh]
	 Correlation Energy        =      -3.3554044844796671 [Eh]
	 Total Energy              =    -814.8326309135110250 [Eh]

	 ================> DF-SCS-MP2 Energies <==================
	-----------------------------------------------------------
	 SCS Same-Spin Scale       =       0.3333333333333333 [-]
	 SCS Opposite-Spin Scale   =       1.2000000000000000 [-]
	 SCS Same-Spin Energy      =      -0.2765708099930504 [Eh]
	 SCS Opposite-Spin Energy  =      -3.0308304654006188 [Eh]
	 SCS Correlation Energy    =      -3.3074012753936692 [Eh]
	 SCS Total Energy          =    -814.7846277044250201 [Eh]
	-----------------------------------------------------------

  Dipole Moment: [D]
     X:     0.8987      Y:    -4.6545      Z:     2.5377     Total:     5.3770

*** Psi4 exiting successfully. Buy a developer a beer!
