                               Psi4 1.3.2 release

  ==> Input File <==

--------------------------------------------------------------------------
#psi4
#
memory 32 gb

molecule  {
0 1
  O        1.3648013    -0.3688347    -0.9369569
  O        3.2020570     1.9012130    -0.2995130
  O        2.7994070    -2.7489470    -0.4002010
  O       -1.3621860     2.3740050     0.1547830
  N       -0.7982440     0.1994180    -0.2292560
  N       -3.0541720     0.8052390     0.2400120
  N       -4.6734100    -0.8124350     0.4126370
  C        2.7015950     0.8755540     0.5594740
  C        1.2368440     1.1072260     0.8878520
  C        2.6518190    -0.3922910    -0.2854700
  C        0.5739580     0.6830040    -0.4149160
  C        2.8141371    -1.6561447     0.5261975
  C       -1.1273370    -1.1158190    -0.3082760
  C       -1.7446880     1.2038920     0.0820450
  C       -2.4173070    -1.5045610    -0.1045420
  C       -3.3619920    -0.4731600     0.1685110
  H        3.3343810     0.7567850     1.4508530
  H        0.9047070     0.4438290     1.6934890
  H        0.9853290     2.1340670     1.1581470
  H        0.5274540     1.5132540    -1.1249130
  H        3.4174920    -0.3642830    -1.0666260
  H        1.9707490    -1.7331840     1.2432230
  H        3.7460890    -1.6095150     1.0882890
  H        3.1038510     2.7463240     0.1779830
  H       -0.3107400    -1.7892010    -0.5436980
  H        2.9100300    -3.5650720     0.1192120
  H       -2.7034680    -2.5490840    -0.1532500
  H       -5.0287110    -1.6377420    -0.0567190
  H       -5.2994710    -0.0137980     0.3861010
units angstrom
no_reorient  #important for SAPT in psi4, default
symmetry c1  #important for SAPT in psi4, default
}

set PROPERTIES_ORIGIN ["COM"]
properties('MP2/aug-cc-pvtz', properties = ['dipole'])
--------------------------------------------------------------------------

    Molecular point group: c1
  Charge       = 0
  Multiplicity = 1
  Basis Set: AUG-CC-PVTZ
    Blend: AUG-CC-PVTZ
  Basis Set: (AUG-CC-PVTZ AUX)
    Blend: AUG-CC-PVTZ-JKFIT

    Orbital Energies [Eh]
    ---------------------

    Doubly Occupied:

       1A    -20.577531     2A    -20.574179     3A    -20.573029
       4A    -20.502928     5A    -15.621656     6A    -15.588337
       7A    -15.540779     8A    -11.369835     9A    -11.345019
      10A    -11.330201    11A    -11.318390    12A    -11.300699
      13A    -11.297147    14A    -11.293438    15A    -11.237053
      16A    -11.236597    17A     -1.417554    18A     -1.382244
      19A     -1.372378    20A     -1.365429    21A     -1.292199
      22A     -1.261415    23A     -1.169070    24A     -1.078837
      25A     -1.069379    26A     -1.028234    27A     -0.927310
      28A     -0.897563    29A     -0.868805    30A     -0.830934
      31A     -0.806544    32A     -0.754338    33A     -0.738948
      34A     -0.720137    35A     -0.706754    36A     -0.693185
      37A     -0.689395    38A     -0.675727    39A     -0.656499
      40A     -0.637449    41A     -0.627591    42A     -0.618653
      43A     -0.604268    44A     -0.594881    45A     -0.588916
      46A     -0.572710    47A     -0.569036    48A     -0.544739
      49A     -0.532310    50A     -0.523767    51A     -0.510357
      52A     -0.485574    53A     -0.482139    54A     -0.469071
      55A     -0.460901    56A     -0.444640    57A     -0.438064
      58A     -0.416197    59A     -0.383660    60A     -0.334876

  @DF-RHF Final Energy:  -811.47933014505452

   => Energetics <=

    Nuclear Repulsion Energy =           1169.8066444894618598
    One-Electron Energy =               -3434.6729608855252991
    Two-Electron Energy =                1453.3869862510091480
    Total Energy =                       -811.4793301450545187
  Basis Set: (AUG-CC-PVTZ AUX)
    Blend: AUG-CC-PVTZ-RI
    Molecular point group: c1

    Geometry (in Angstrom), charge = 0, multiplicity = 1:

       Center              X                  Y                   Z               Mass
    ------------   -----------------  -----------------  -----------------  -----------------
         O            1.363972803689    -0.369826497865    -0.936793713279    15.994914619570
         O            3.201228503689     1.900221202135    -0.299349813279    15.994914619570
         O            2.798578503689    -2.749938797865    -0.400037813279    15.994914619570
         O           -1.363014496311     2.373013202135     0.154946186721    15.994914619570
         N           -0.799072496311     0.198426202135    -0.229092813279    14.003074004430
         N           -3.055000496311     0.804247202135     0.240175186721    14.003074004430
         N           -4.674238496311    -0.813426797865     0.412800186721    14.003074004430
         C            2.700766503689     0.874562202135     0.559637186721    12.000000000000
         C            1.236015503689     1.106234202135     0.888015186721    12.000000000000
         C            2.650990503689    -0.393282797865    -0.285306813279    12.000000000000
         C            0.573129503689     0.682012202135    -0.414752813279    12.000000000000
         C            2.813308603689    -1.657136497865     0.526360686721    12.000000000000
         C           -1.128165496311    -1.116810797865    -0.308112813279    12.000000000000
         C           -1.745516496311     1.202900202135     0.082208186721    12.000000000000
         C           -2.418135496311    -1.505552797865    -0.104378813279    12.000000000000
         C           -3.362820496311    -0.474151797865     0.168674186721    12.000000000000
         H            3.333552503689     0.755793202135     1.451016186721     1.007825032230
         H            0.903878503689     0.442837202135     1.693652186721     1.007825032230
         H            0.984500503689     2.133075202135     1.158310186721     1.007825032230
         H            0.526625503689     1.512262202135    -1.124749813279     1.007825032230
         H            3.416663503689    -0.365274797865    -1.066462813279     1.007825032230
         H            1.969920503689    -1.734175797865     1.243386186721     1.007825032230
         H            3.745260503689    -1.610506797865     1.088452186721     1.007825032230
         H            3.103022503689     2.745332202135     0.178146186721     1.007825032230
         H           -0.311568496311    -1.790192797865    -0.543534813279     1.007825032230
         H            2.909201503689    -3.566063797865     0.119375186721     1.007825032230
         H           -2.704296496311    -2.550075797865    -0.153086813279     1.007825032230
         H           -5.029539496311    -1.638733797865    -0.056555813279     1.007825032230
         H           -5.300299496311    -0.014789797865     0.386264186721     1.007825032230

  Basis Set: AUG-CC-PVTZ
    Blend: AUG-CC-PVTZ
  Basis Set: (AUG-CC-PVTZ AUX)
    Blend: AUG-CC-PVTZ-JKFIT
	 Reference Energy          =    -811.4793301450545187 [Eh]
	 Singles Energy            =      -0.0000000000000000 [Eh]
	 Same-Spin Energy          =      -0.8296221555188505 [Eh]
	 Opposite-Spin Energy      =      -2.5250871337388969 [Eh]
	 Correlation Energy        =      -3.3547092892577473 [Eh]
	 Total Energy              =    -814.8340394343122171 [Eh]

	 ================> DF-SCS-MP2 Energies <==================
	-----------------------------------------------------------
	 SCS Same-Spin Scale       =       0.3333333333333333 [-]
	 SCS Opposite-Spin Scale   =       1.2000000000000000 [-]
	 SCS Same-Spin Energy      =      -0.2765407185062835 [Eh]
	 SCS Opposite-Spin Energy  =      -3.0301045604866763 [Eh]
	 SCS Correlation Energy    =      -3.3066452789929599 [Eh]
	 SCS Total Energy          =    -814.7859754240474786 [Eh]
	-----------------------------------------------------------

  Dipole Moment: [D]
     X:     1.0953      Y:    -4.6884      Z:     2.5075     Total:     5.4285

*** Psi4 exiting successfully. Buy a developer a beer!
