                               Psi4 1.3.2 release

  ==> Input File <==

--------------------------------------------------------------------------
#psi4
#
memory 32 gb

molecule  {
0 1
  O        1.3620710    -0.3800110    -0.9318440
  O        3.2020570     1.9012130    -0.2995130
  O        2.7994070    -2.7489470    -0.4002010
  O       -1.3621860     2.3740050     0.1547830
  N       -0.7982440     0.1994180    -0.2292560
  N       -3.0541720     0.8052390     0.2400120
  N       -4.6734100    -0.8124350     0.4126370
  C        2.7015950     0.8755540     0.5594740
  C        1.2368440     1.1072260     0.8878520
  C        2.6518190    -0.3922910    -0.2854700
  C        0.5739580     0.6830040    -0.4149160
  C        2.8020980    -1.6600160     0.5224700
  C       -1.1273370    -1.1158190    -0.3082760
  C       -1.7446880     1.2038920     0.0820450
  C       -2.4173070    -1.5045610    -0.1045420
  C       -3.3619920    -0.4731600     0.1685110
  H        3.3343810     0.7567850     1.4508530
  H        0.9047070     0.4438290     1.6934890
  H        0.9853290     2.1340670     1.1581470
  H        0.5274540     1.5132540    -1.1249130
  H        3.2775391    -0.3694024    -0.9238430
  H        1.9707490    -1.7331840     1.2432230
  H        3.7460890    -1.6095150     1.0882890
  H        3.1038510     2.7463240     0.1779830
  H       -0.3107400    -1.7892010    -0.5436980
  H        2.9100300    -3.5650720     0.1192120
  H       -2.7034680    -2.5490840    -0.1532500
  H       -5.0287110    -1.6377420    -0.0567190
  H       -5.2994710    -0.0137980     0.3861010
units angstrom
no_reorient  #important for SAPT in psi4, default
symmetry c1  #important for SAPT in psi4, default
}

set PROPERTIES_ORIGIN ["COM"]
properties('MP2/aug-cc-pvtz', properties = ['dipole'])
--------------------------------------------------------------------------

    Molecular point group: c1
  Charge       = 0
  Multiplicity = 1
  Basis Set: AUG-CC-PVTZ
    Blend: AUG-CC-PVTZ
  Basis Set: (AUG-CC-PVTZ AUX)
    Blend: AUG-CC-PVTZ-JKFIT

    Orbital Energies [Eh]
    ---------------------

    Doubly Occupied:

       1A    -20.578171     2A    -20.574855     3A    -20.571139
       4A    -20.502693     5A    -15.621225     6A    -15.588098
       7A    -15.540473     8A    -11.369509     9A    -11.344720
      10A    -11.329996    11A    -11.317914    12A    -11.300128
      13A    -11.296050    14A    -11.270226    15A    -11.236676
      16A    -11.236156    17A     -1.416522    18A     -1.382391
      19A     -1.374046    20A     -1.365667    21A     -1.291909
      22A     -1.261178    23A     -1.168899    24A     -1.079053
      25A     -1.074391    26A     -1.033693    27A     -0.926496
      28A     -0.899513    29A     -0.871491    30A     -0.830598
      31A     -0.828768    32A     -0.755007    33A     -0.738521
      34A     -0.723444    35A     -0.706785    36A     -0.700335
      37A     -0.689492    38A     -0.676983    39A     -0.656334
      40A     -0.636910    41A     -0.627358    42A     -0.618370
      43A     -0.607384    44A     -0.599141    45A     -0.588661
      46A     -0.580896    47A     -0.571845    48A     -0.545193
      49A     -0.532244    50A     -0.524141    51A     -0.511667
      52A     -0.488137    53A     -0.482530    54A     -0.469014
      55A     -0.462199    56A     -0.445473    57A     -0.438294
      58A     -0.416150    59A     -0.383464    60A     -0.334571

  @DF-RHF Final Energy:  -811.44646275991613

   => Energetics <=

    Nuclear Repulsion Energy =           1171.3476197186578247
    One-Electron Energy =               -3437.6017829794595855
    Two-Electron Energy =                1454.8077005008856304
    Total Energy =                       -811.4464627599161304
  Basis Set: (AUG-CC-PVTZ AUX)
    Blend: AUG-CC-PVTZ-RI
    Molecular point group: c1

    Geometry (in Angstrom), charge = 0, multiplicity = 1:

       Center              X                  Y                   Z               Mass
    ------------   -----------------  -----------------  -----------------  -----------------
         O            1.362692093160    -0.379988317223    -0.932477634794    15.994914619570
         O            3.202678093160     1.901235682777    -0.300146634794    15.994914619570
         O            2.800028093160    -2.748924317223    -0.400834634794    15.994914619570
         O           -1.361564906840     2.374027682777     0.154149365206    15.994914619570
         N           -0.797622906840     0.199440682777    -0.229889634794    14.003074004430
         N           -3.053550906840     0.805261682777     0.239378365206    14.003074004430
         N           -4.672788906840    -0.812412317223     0.412003365206    14.003074004430
         C            2.702216093160     0.875576682777     0.558840365206    12.000000000000
         C            1.237465093160     1.107248682777     0.887218365206    12.000000000000
         C            2.652440093160    -0.392268317223    -0.286103634794    12.000000000000
         C            0.574579093160     0.683026682777    -0.415549634794    12.000000000000
         C            2.802719093160    -1.659993317223     0.521836365206    12.000000000000
         C           -1.126715906840    -1.115796317223    -0.308909634794    12.000000000000
         C           -1.744066906840     1.203914682777     0.081411365206    12.000000000000
         C           -2.416685906840    -1.504538317223    -0.105175634794    12.000000000000
         C           -3.361370906840    -0.473137317223     0.167877365206    12.000000000000
         H            3.335002093160     0.756807682777     1.450219365206     1.007825032230
         H            0.905328093160     0.443851682777     1.692855365206     1.007825032230
         H            0.985950093160     2.134089682777     1.157513365206     1.007825032230
         H            0.528075093160     1.513276682777    -1.125546634794     1.007825032230
         H            3.278160193160    -0.369379717223    -0.924476634794     1.007825032230
         H            1.971370093160    -1.733161317223     1.242589365206     1.007825032230
         H            3.746710093160    -1.609492317223     1.087655365206     1.007825032230
         H            3.104472093160     2.746346682777     0.177349365206     1.007825032230
         H           -0.310118906840    -1.789178317223    -0.544331634794     1.007825032230
         H            2.910651093160    -3.565049317223     0.118578365206     1.007825032230
         H           -2.702846906840    -2.549061317223    -0.153883634794     1.007825032230
         H           -5.028089906840    -1.637719317223    -0.057352634794     1.007825032230
         H           -5.298849906840    -0.013775317223     0.385467365206     1.007825032230

  Basis Set: AUG-CC-PVTZ
    Blend: AUG-CC-PVTZ
  Basis Set: (AUG-CC-PVTZ AUX)
    Blend: AUG-CC-PVTZ-JKFIT
	 Reference Energy          =    -811.4464627599161304 [Eh]
	 Singles Energy            =      -0.0000000000000000 [Eh]
	 Same-Spin Energy          =      -0.8292446872735436 [Eh]
	 Opposite-Spin Energy      =      -2.5239433395859581 [Eh]
	 Correlation Energy        =      -3.3531880268595016 [Eh]
	 Total Energy              =    -814.7996507867756009 [Eh]

	 ================> DF-SCS-MP2 Energies <==================
	-----------------------------------------------------------
	 SCS Same-Spin Scale       =       0.3333333333333333 [-]
	 SCS Opposite-Spin Scale   =       1.2000000000000000 [-]
	 SCS Same-Spin Energy      =      -0.2764148957578478 [Eh]
	 SCS Opposite-Spin Energy  =      -3.0287320075031494 [Eh]
	 SCS Correlation Energy    =      -3.3051469032609972 [Eh]
	 SCS Total Energy          =    -814.7516096631770779 [Eh]
	-----------------------------------------------------------

  Dipole Moment: [D]
     X:     1.1331      Y:    -4.6868      Z:     2.4986     Total:     5.4308

*** Psi4 exiting successfully. Buy a developer a beer!
