                               Psi4 1.3.2 release

  ==> Input File <==

--------------------------------------------------------------------------
#psi4
#
memory 32 gb

molecule  {
0 1
  O        1.3620710    -0.3800110    -0.9318440
  O        3.2020570     1.9012130    -0.2995130
  O        2.7994070    -2.7489470    -0.4002010
  O       -1.3621860     2.3740050     0.1547830
  N       -0.7533136     0.1879099    -0.2390504
  N       -3.0541720     0.8052390     0.2400120
  N       -4.6734100    -0.8124350     0.4126370
  C        2.7015950     0.8755540     0.5594740
  C        1.2368440     1.1072260     0.8878520
  C        2.6518190    -0.3922910    -0.2854700
  C        0.5739580     0.6830040    -0.4149160
  C        2.8020980    -1.6600160     0.5224700
  C       -1.1273370    -1.1158190    -0.3082760
  C       -1.7446880     1.2038920     0.0820450
  C       -2.4040159    -1.5496260    -0.1119271
  C       -3.3619920    -0.4731600     0.1685110
  H        3.3343810     0.7567850     1.4508530
  H        0.9047070     0.4438290     1.6934890
  H        0.9853290     2.1340670     1.1581470
  H        0.5274540     1.5132540    -1.1249130
  H        3.4174920    -0.3642830    -1.0666260
  H        1.9707490    -1.7331840     1.2432230
  H        3.7460890    -1.6095150     1.0882890
  H        3.1038510     2.7463240     0.1779830
  H       -0.3107400    -1.7892010    -0.5436980
  H        2.9100300    -3.5650720     0.1192120
  H       -2.7034680    -2.5490840    -0.1532500
  H       -5.0287110    -1.6377420    -0.0567190
  H       -5.2994710    -0.0137980     0.3861010
units angstrom
no_reorient  #important for SAPT in psi4, default
symmetry c1  #important for SAPT in psi4, default
}

set PROPERTIES_ORIGIN ["COM"]
properties('MP2/aug-cc-pvtz', properties = ['dipole'])
--------------------------------------------------------------------------

    Molecular point group: c1
  Charge       = 0
  Multiplicity = 1
  Basis Set: AUG-CC-PVTZ
    Blend: AUG-CC-PVTZ
  Basis Set: (AUG-CC-PVTZ AUX)
    Blend: AUG-CC-PVTZ-JKFIT

    Orbital Energies [Eh]
    ---------------------

    Doubly Occupied:

       1A    -20.576314     2A    -20.573327     3A    -20.569763
       4A    -20.508987     5A    -15.620030     6A    -15.591002
       7A    -15.544753     8A    -11.375718     9A    -11.351105
      10A    -11.326905    11A    -11.316344    12A    -11.299515
      13A    -11.295337    14A    -11.291095    15A    -11.237168
      16A    -11.235162    17A     -1.416088    18A     -1.381572
      19A     -1.372265    20A     -1.364822    21A     -1.291200
      22A     -1.262557    23A     -1.172278    24A     -1.078390
      25A     -1.068094    26A     -1.023987    27A     -0.927048
      28A     -0.888793    29A     -0.869354    30A     -0.832655
      31A     -0.804406    32A     -0.752674    33A     -0.739806
      34A     -0.719896    35A     -0.706193    36A     -0.692614
      37A     -0.688885    38A     -0.675614    39A     -0.659000
      40A     -0.641059    41A     -0.625471    42A     -0.617495
      43A     -0.602092    44A     -0.594836    45A     -0.584733
      46A     -0.578742    47A     -0.566506    48A     -0.543987
      49A     -0.531769    50A     -0.523731    51A     -0.509733
      52A     -0.484641    53A     -0.483254    54A     -0.467071
      55A     -0.460076    56A     -0.446764    57A     -0.436700
      58A     -0.416933    59A     -0.384814    60A     -0.334341

  @DF-RHF Final Energy:  -811.47406394989957

   => Energetics <=

    Nuclear Repulsion Energy =           1169.2216726512713194
    One-Electron Energy =               -3433.5205442344936273
    Two-Electron Energy =                1452.8248076333229619
    Total Energy =                       -811.4740639498995733
  Basis Set: (AUG-CC-PVTZ AUX)
    Blend: AUG-CC-PVTZ-RI
    Molecular point group: c1

    Geometry (in Angstrom), charge = 0, multiplicity = 1:

       Center              X                  Y                   Z               Mass
    ------------   -----------------  -----------------  -----------------  -----------------
         O            1.358598110723    -0.376920073543    -0.930849768295    15.994914619570
         O            3.198584110723     1.904303926457    -0.298518768295    15.994914619570
         O            2.795934110723    -2.745856073543    -0.399206768295    15.994914619570
         O           -1.365658889277     2.377095926457     0.155777231705    15.994914619570
         N           -0.756786489277     0.191000826457    -0.238056168295    14.003074004430
         N           -3.057644889277     0.808329926457     0.241006231705    14.003074004430
         N           -4.676882889277    -0.809344073543     0.413631231705    14.003074004430
         C            2.698122110723     0.878644926457     0.560468231705    12.000000000000
         C            1.233371110723     1.110316926457     0.888846231705    12.000000000000
         C            2.648346110723    -0.389200073543    -0.284475768295    12.000000000000
         C            0.570485110723     0.686094926457    -0.413921768295    12.000000000000
         C            2.798625110723    -1.656925073543     0.523464231705    12.000000000000
         C           -1.130809889277    -1.112728073543    -0.307281768295    12.000000000000
         C           -1.748160889277     1.206982926457     0.083039231705    12.000000000000
         C           -2.407488789277    -1.546535073543    -0.110932868295    12.000000000000
         C           -3.365464889277    -0.470069073543     0.169505231705    12.000000000000
         H            3.330908110723     0.759875926457     1.451847231705     1.007825032230
         H            0.901234110723     0.446919926457     1.694483231705     1.007825032230
         H            0.981856110723     2.137157926457     1.159141231705     1.007825032230
         H            0.523981110723     1.516344926457    -1.123918768295     1.007825032230
         H            3.414019110723    -0.361192073543    -1.065631768295     1.007825032230
         H            1.967276110723    -1.730093073543     1.244217231705     1.007825032230
         H            3.742616110723    -1.606424073543     1.089283231705     1.007825032230
         H            3.100378110723     2.749414926457     0.178977231705     1.007825032230
         H           -0.314212889277    -1.786110073543    -0.542703768295     1.007825032230
         H            2.906557110723    -3.561981073543     0.120206231705     1.007825032230
         H           -2.706940889277    -2.545993073543    -0.152255768295     1.007825032230
         H           -5.032183889277    -1.634651073543    -0.055724768295     1.007825032230
         H           -5.302943889277    -0.010707073543     0.387095231705     1.007825032230

  Basis Set: AUG-CC-PVTZ
    Blend: AUG-CC-PVTZ
  Basis Set: (AUG-CC-PVTZ AUX)
    Blend: AUG-CC-PVTZ-JKFIT
	 Reference Energy          =    -811.4740639498995733 [Eh]
	 Singles Energy            =      -0.0000000000000000 [Eh]
	 Same-Spin Energy          =      -0.8293037694656006 [Eh]
	 Opposite-Spin Energy      =      -2.5253708547980844 [Eh]
	 Correlation Energy        =      -3.3546746242636849 [Eh]
	 Total Energy              =    -814.8287385741632534 [Eh]

	 ================> DF-SCS-MP2 Energies <==================
	-----------------------------------------------------------
	 SCS Same-Spin Scale       =       0.3333333333333333 [-]
	 SCS Opposite-Spin Scale   =       1.2000000000000000 [-]
	 SCS Same-Spin Energy      =      -0.2764345898218669 [Eh]
	 SCS Opposite-Spin Energy  =      -3.0304450257577011 [Eh]
	 SCS Correlation Energy    =      -3.3068796155795681 [Eh]
	 SCS Total Energy          =    -814.7809435654791059 [Eh]
	-----------------------------------------------------------

  Dipole Moment: [D]
     X:     0.7998      Y:    -4.4990      Z:     2.5432     Total:     5.2296

*** Psi4 exiting successfully. Buy a developer a beer!
