                               Psi4 1.3.2 release

  ==> Input File <==

--------------------------------------------------------------------------
#psi4
#
memory 32 gb

molecule  {
0 1
  O        1.3620710    -0.3800110    -0.9318440
  O        3.2020570     1.9012130    -0.2995130
  O        2.7994070    -2.7489470    -0.4002010
  O       -1.3621860     2.3740050     0.1547830
  N       -0.8095414     0.2020452    -0.2268220
  N       -3.0541720     0.8052390     0.2400120
  N       -4.6734100    -0.8124350     0.4126370
  C        2.7015950     0.8755540     0.5594740
  C        1.2368440     1.1072260     0.8878520
  C        2.6518190    -0.3922910    -0.2854700
  C        0.5739580     0.6830040    -0.4149160
  C        2.8020980    -1.6600160     0.5224700
  C       -1.1273370    -1.1158190    -0.3082760
  C       -1.7446880     1.2038920     0.0820450
  C       -2.4203848    -1.4932186    -0.1027342
  C       -3.3619920    -0.4731600     0.1685110
  H        3.3343810     0.7567850     1.4508530
  H        0.9047070     0.4438290     1.6934890
  H        0.9853290     2.1340670     1.1581470
  H        0.5274540     1.5132540    -1.1249130
  H        3.4174920    -0.3642830    -1.0666260
  H        1.9707490    -1.7331840     1.2432230
  H        3.7460890    -1.6095150     1.0882890
  H        3.1038510     2.7463240     0.1779830
  H       -0.3107400    -1.7892010    -0.5436980
  H        2.9100300    -3.5650720     0.1192120
  H       -2.7034680    -2.5490840    -0.1532500
  H       -5.0287110    -1.6377420    -0.0567190
  H       -5.2994710    -0.0137980     0.3861010
units angstrom
no_reorient  #important for SAPT in psi4, default
symmetry c1  #important for SAPT in psi4, default
}

set PROPERTIES_ORIGIN ["COM"]
properties('MP2/aug-cc-pvtz', properties = ['dipole'])
--------------------------------------------------------------------------

    Molecular point group: c1
  Charge       = 0
  Multiplicity = 1
  Basis Set: AUG-CC-PVTZ
    Blend: AUG-CC-PVTZ
  Basis Set: (AUG-CC-PVTZ AUX)
    Blend: AUG-CC-PVTZ-JKFIT

    Orbital Energies [Eh]
    ---------------------

    Doubly Occupied:

       1A    -20.578116     2A    -20.574602     3A    -20.573667
       4A    -20.501554     5A    -15.622131     6A    -15.587674
       7A    -15.539844     8A    -11.368391     9A    -11.343420
      10A    -11.331700    11A    -11.318874    12A    -11.301200
      13A    -11.297253    14A    -11.293574    15A    -11.237198
      16A    -11.237060    17A     -1.416873    18A     -1.382751
      19A     -1.373907    20A     -1.365976    21A     -1.292534
      22A     -1.261172    23A     -1.168311    24A     -1.079201
      25A     -1.069211    26A     -1.029009    27A     -0.926795
      28A     -0.899848    29A     -0.868852    30A     -0.830309
      31A     -0.806820    32A     -0.754743    33A     -0.738589
      34A     -0.721277    35A     -0.706897    36A     -0.692979
      37A     -0.689224    38A     -0.675818    39A     -0.656508
      40A     -0.635939    41A     -0.628268    42A     -0.619087
      43A     -0.605094    44A     -0.595974    45A     -0.588963
      46A     -0.570528    47A     -0.569274    48A     -0.545085
      49A     -0.532722    50A     -0.523560    51A     -0.510660
      52A     -0.486234    53A     -0.481652    54A     -0.468862
      55A     -0.461370    56A     -0.444013    57A     -0.437913
      58A     -0.415999    59A     -0.383504    60A     -0.335046

  @DF-RHF Final Energy:  -811.47883572914782

   => Energetics <=

    Nuclear Repulsion Energy =           1170.1327145962513896
    One-Electron Energy =               -3435.3158759887423912
    Two-Electron Energy =                1453.7043256633432975
    Total Energy =                       -811.4788357291477041
  Basis Set: (AUG-CC-PVTZ AUX)
    Blend: AUG-CC-PVTZ-RI
    Molecular point group: c1

    Geometry (in Angstrom), charge = 0, multiplicity = 1:

       Center              X                  Y                   Z               Mass
    ------------   -----------------  -----------------  -----------------  -----------------
         O            1.362930253132    -0.380772396929    -0.932089581756    15.994914619570
         O            3.202916253132     1.900451603071    -0.299758581756    15.994914619570
         O            2.800266253132    -2.749708396929    -0.400446581756    15.994914619570
         O           -1.361326746868     2.373243603071     0.154537418244    15.994914619570
         N           -0.808682146868     0.201283803071    -0.227067581756    14.003074004430
         N           -3.053312746868     0.804477603071     0.239766418244    14.003074004430
         N           -4.672550746868    -0.813196396929     0.412391418244    14.003074004430
         C            2.702454253132     0.874792603071     0.559228418244    12.000000000000
         C            1.237703253132     1.106464603071     0.887606418244    12.000000000000
         C            2.652678253132    -0.393052396929    -0.285715581756    12.000000000000
         C            0.574817253132     0.682242603071    -0.415161581756    12.000000000000
         C            2.802957253132    -1.660777396929     0.522224418244    12.000000000000
         C           -1.126477746868    -1.116580396929    -0.308521581756    12.000000000000
         C           -1.743828746868     1.203130603071     0.081799418244    12.000000000000
         C           -2.419525546868    -1.493979996929    -0.102979781756    12.000000000000
         C           -3.361132746868    -0.473921396929     0.168265418244    12.000000000000
         H            3.335240253132     0.756023603071     1.450607418244     1.007825032230
         H            0.905566253132     0.443067603071     1.693243418244     1.007825032230
         H            0.986188253132     2.133305603071     1.157901418244     1.007825032230
         H            0.528313253132     1.512492603071    -1.125158581756     1.007825032230
         H            3.418351253132    -0.365044396929    -1.066871581756     1.007825032230
         H            1.971608253132    -1.733945396929     1.242977418244     1.007825032230
         H            3.746948253132    -1.610276396929     1.088043418244     1.007825032230
         H            3.104710253132     2.745562603071     0.177737418244     1.007825032230
         H           -0.309880746868    -1.789962396929    -0.543943581756     1.007825032230
         H            2.910889253132    -3.565833396929     0.118966418244     1.007825032230
         H           -2.702608746868    -2.549845396929    -0.153495581756     1.007825032230
         H           -5.027851746868    -1.638503396929    -0.056964581756     1.007825032230
         H           -5.298611746868    -0.014559396929     0.385855418244     1.007825032230

  Basis Set: AUG-CC-PVTZ
    Blend: AUG-CC-PVTZ
  Basis Set: (AUG-CC-PVTZ AUX)
    Blend: AUG-CC-PVTZ-JKFIT
	 Reference Energy          =    -811.4788357291478178 [Eh]
	 Singles Energy            =      -0.0000000000000000 [Eh]
	 Same-Spin Energy          =      -0.8298187576492004 [Eh]
	 Opposite-Spin Energy      =      -2.5252392974237936 [Eh]
	 Correlation Energy        =      -3.3550580550729938 [Eh]
	 Total Energy              =    -814.8338937842207770 [Eh]

	 ================> DF-SCS-MP2 Energies <==================
	-----------------------------------------------------------
	 SCS Same-Spin Scale       =       0.3333333333333333 [-]
	 SCS Opposite-Spin Scale   =       1.2000000000000000 [-]
	 SCS Same-Spin Energy      =      -0.2766062525497335 [Eh]
	 SCS Opposite-Spin Energy  =      -3.0302871569085523 [Eh]
	 SCS Correlation Energy    =      -3.3068934094582856 [Eh]
	 SCS Total Energy          =    -814.7857291386061434 [Eh]
	-----------------------------------------------------------

  Dipole Moment: [D]
     X:     1.1429      Y:    -4.7206      Z:     2.4763     Total:     5.4518

*** Psi4 exiting successfully. Buy a developer a beer!
