                               Psi4 1.4a3.dev225

  ==> Input File <==

--------------------------------------------------------------------------
#psi4
#
memory 32 gb

molecule  {
0 1
  O       -1.4695130     0.3030610    -1.0874480
  O       -3.6436400    -1.4204040    -0.2669360
  O       -1.6911330     2.8536240     0.0000030
  O        1.1857770    -2.4961310     0.0874550
  N        0.6842480    -0.3150290    -0.3399290
  N        2.9133760    -0.9647370     0.2108410
  N        4.5636770     0.6178870     0.3785230
  C       -2.7686820    -0.6858470     0.5863090
  C       -1.3787780    -1.3118450     0.6568060
  C       -2.4925280     0.6283540    -0.1295840
  C       -0.6939390    -0.7805590    -0.6115670
  C       -2.0414120     1.7324860     0.8087370
  C        1.0545030     0.9838330    -0.4888120
  C        1.6080830    -1.3384950     0.0010630
  C        2.3487550     1.3478080    -0.2622830
  C        3.2705958     0.2899952     0.0925322
  H       -3.2188600    -0.5381750     1.5798200
  H       -0.8341690    -0.9801840     1.5464130
  H       -1.3950130    -2.4033150     0.6754970
  H       -0.6263030    -1.5384450    -1.3968420
  H       -3.3591510     0.9641520    -0.7058050
  H       -1.1849610     1.3939850     1.4098140
  H       -2.8667900     1.9743150     1.4948250
  H       -3.6905400    -2.3294490     0.0774600
  H        0.2668220     1.6750250    -0.7707300
  H       -1.4321050     3.5760960     0.5972330
  H        2.6621150     2.3809760    -0.3596430
  H        4.9550500     1.4416620    -0.0591730
  H        5.1797170    -0.1867780     0.4106900
units angstrom
no_reorient  #important for SAPT in psi4, default
symmetry c1  #important for SAPT in psi4, default
}

set PROPERTIES_ORIGIN ["COM"]
properties('MP2/aug-cc-pvtz', properties = ['dipole'])
--------------------------------------------------------------------------

    Molecular point group: c1
  Charge       = 0
  Multiplicity = 1
  Basis Set: AUG-CC-PVTZ
    Blend: AUG-CC-PVTZ
  Basis Set: (AUG-CC-PVTZ AUX)
    Blend: AUG-CC-PVTZ-JKFIT

    Orbital Energies [Eh]
    ---------------------

    Doubly Occupied:

       1A    -20.582933     2A    -20.573741     3A    -20.572273
       4A    -20.502946     5A    -15.617277     6A    -15.590365
       7A    -15.539589     8A    -11.369927     9A    -11.346077
      10A    -11.332416    11A    -11.311918    12A    -11.299655
      13A    -11.299061    14A    -11.294214    15A    -11.236738
      16A    -11.235513    17A     -1.418205    18A     -1.381626
      19A     -1.377283    20A     -1.365823    21A     -1.292298
      22A     -1.259887    23A     -1.172321    24A     -1.075136
      25A     -1.065638    26A     -1.023050    27A     -0.929277
      28A     -0.892298    29A     -0.869636    30A     -0.830305
      31A     -0.804422    32A     -0.754085    33A     -0.736690
      34A     -0.724855    35A     -0.709028    36A     -0.701577
      37A     -0.691600    38A     -0.673997    39A     -0.650552
      40A     -0.641649    41A     -0.622225    42A     -0.616376
      43A     -0.606403    44A     -0.595599    45A     -0.587286
      46A     -0.572454    47A     -0.565306    48A     -0.551554
      49A     -0.527854    50A     -0.520019    51A     -0.510633
      52A     -0.484636    53A     -0.480298    54A     -0.471822
      55A     -0.459063    56A     -0.447778    57A     -0.440191
      58A     -0.413265    59A     -0.383861    60A     -0.332604

  @DF-RHF Final Energy:  -811.47944523114313

   => Energetics <=

    Nuclear Repulsion Energy =           1185.0594381586834061
    One-Electron Energy =               -3465.2075508882680879
    Two-Electron Energy =                1468.6686674984416641
    Total Energy =                       -811.4794452311430177
  Basis Set: (AUG-CC-PVTZ AUX)
    Blend: AUG-CC-PVTZ-RI
    Molecular point group: c1

    Geometry (in Angstrom), charge = 0, multiplicity = 1:

       Center              X                  Y                   Z               Mass
    ------------   -----------------  -----------------  -----------------  -----------------
         O           -1.494645401486     0.327548847931    -1.068079810712    15.994914619570
         O           -3.668772401486    -1.395916152069    -0.247567810712    15.994914619570
         O           -1.716265401486     2.878111847931     0.019371189288    15.994914619570
         O            1.160644598514    -2.471643152069     0.106823189288    15.994914619570
         N            0.659115598514    -0.290541152069    -0.320560810712    14.003074004430
         N            2.888243598514    -0.940249152069     0.230209189288    14.003074004430
         N            4.538544598514     0.642374847931     0.397891189288    14.003074004430
         C           -2.793814401486    -0.661359152069     0.605677189288    12.000000000000
         C           -1.403910401486    -1.287357152069     0.676174189288    12.000000000000
         C           -2.517660401486     0.652841847931    -0.110215810712    12.000000000000
         C           -0.719071401486    -0.756071152069    -0.592198810712    12.000000000000
         C           -2.066544401486     1.756973847931     0.828105189288    12.000000000000
         C            1.029370598514     1.008320847931    -0.469443810712    12.000000000000
         C            1.582950598514    -1.314007152069     0.020431189288    12.000000000000
         C            2.323622598514     1.372295847931    -0.242914810712    12.000000000000
         C            3.245463398514     0.314483047931     0.111900389288    12.000000000000
         H           -3.243992401486    -0.513687152069     1.599188189288     1.007825032230
         H           -0.859301401486    -0.955696152069     1.565781189288     1.007825032230
         H           -1.420145401486    -2.378827152069     0.694865189288     1.007825032230
         H           -0.651435401486    -1.513957152069    -1.377473810712     1.007825032230
         H           -3.384283401486     0.988639847931    -0.686436810712     1.007825032230
         H           -1.210093401486     1.418472847931     1.429182189288     1.007825032230
         H           -2.891922401486     1.998802847931     1.514193189288     1.007825032230
         H           -3.715672401486    -2.304961152069     0.096828189288     1.007825032230
         H            0.241689598514     1.699512847931    -0.751361810712     1.007825032230
         H           -1.457237401486     3.600583847931     0.616601189288     1.007825032230
         H            2.636982598514     2.405463847931    -0.340274810712     1.007825032230
         H            4.929917598514     1.466149847931    -0.039804810712     1.007825032230
         H            5.154584598514    -0.162290152069     0.430058189288     1.007825032230

  Basis Set: AUG-CC-PVTZ
    Blend: AUG-CC-PVTZ
  Basis Set: (AUG-CC-PVTZ AUX)
    Blend: AUG-CC-PVTZ-JKFIT
	 Reference Energy          =    -811.4794452311431314 [Eh]
	 Singles Energy            =      -0.0000000000000000 [Eh]
	 Same-Spin Energy          =      -0.8304989898769907 [Eh]
	 Opposite-Spin Energy      =      -2.5266570557434420 [Eh]
	 Correlation Energy        =      -3.3571560456204326 [Eh]
	 Total Energy              =    -814.8366012767635311 [Eh]

	 ================> DF-SCS-MP2 Energies <==================
	-----------------------------------------------------------
	 SCS Same-Spin Scale       =       0.3333333333333333 [-]
	 SCS Opposite-Spin Scale   =       1.2000000000000000 [-]
	 SCS Same-Spin Energy      =      -0.2768329966256635 [Eh]
	 SCS Opposite-Spin Energy  =      -3.0319884668921304 [Eh]
	 SCS Correlation Energy    =      -3.3088214635177939 [Eh]
	 SCS Total Energy          =    -814.7882666946609334 [Eh]
	-----------------------------------------------------------

  Dipole Moment: [D]
     X:    -0.1981      Y:     4.5541      Z:     2.4359     Total:     5.1685

*** Psi4 exiting successfully. Buy a developer a beer!
