                               Psi4 1.3.2 release

  ==> Input File <==

--------------------------------------------------------------------------
#psi4
#
memory 32 gb

molecule  {
0 1
  O        1.3696561    -0.3790616    -0.9220834
  O        3.2020570     1.9012130    -0.2995130
  O        2.7994070    -2.7489470    -0.4002010
  O       -1.3621860     2.3740050     0.1547830
  N       -0.7982440     0.1994180    -0.2292560
  N       -3.0541720     0.8052390     0.2400120
  N       -4.6734100    -0.8124350     0.4126370
  C        2.7015950     0.8755540     0.5594740
  C        1.2461668     1.0979356     0.8860658
  C        2.6518190    -0.3922910    -0.2854700
  C        0.5739580     0.6830040    -0.4149160
  C        2.8020980    -1.6600160     0.5224700
  C       -1.1273370    -1.1158190    -0.3082760
  C       -1.7446880     1.2038920     0.0820450
  C       -2.4173070    -1.5045610    -0.1045420
  C       -3.3619920    -0.4731600     0.1685110
  H        3.3343810     0.7567850     1.4508530
  H        0.9047070     0.4438290     1.6934890
  H        0.9853290     2.1340670     1.1581470
  H        0.5274540     1.5132540    -1.1249130
  H        3.4174920    -0.3642830    -1.0666260
  H        1.9707490    -1.7331840     1.2432230
  H        3.7460890    -1.6095150     1.0882890
  H        3.1038510     2.7463240     0.1779830
  H       -0.3107400    -1.7892010    -0.5436980
  H        2.9100300    -3.5650720     0.1192120
  H       -2.7034680    -2.5490840    -0.1532500
  H       -5.0287110    -1.6377420    -0.0567190
  H       -5.2994710    -0.0137980     0.3861010
units angstrom
no_reorient  #important for SAPT in psi4, default
symmetry c1  #important for SAPT in psi4, default
}

set PROPERTIES_ORIGIN ["COM"]
properties('MP2/aug-cc-pvtz', properties = ['dipole'])
--------------------------------------------------------------------------

    Molecular point group: c1
  Charge       = 0
  Multiplicity = 1
  Basis Set: AUG-CC-PVTZ
    Blend: AUG-CC-PVTZ
  Basis Set: (AUG-CC-PVTZ AUX)
    Blend: AUG-CC-PVTZ-JKFIT

    Orbital Energies [Eh]
    ---------------------

    Doubly Occupied:

       1A    -20.577385     2A    -20.574171     3A    -20.572277
       4A    -20.503366     5A    -15.622367     6A    -15.588639
       7A    -15.541144     8A    -11.370317     9A    -11.345387
      10A    -11.331295    11A    -11.318726    12A    -11.299687
      13A    -11.296076    14A    -11.291831    15A    -11.237408
      16A    -11.236680    17A     -1.419031    18A     -1.382850
      19A     -1.373308    20A     -1.366029    21A     -1.292661
      22A     -1.262054    23A     -1.169489    24A     -1.079570
      25A     -1.069223    26A     -1.028454    27A     -0.927233
      28A     -0.897932    29A     -0.868844    30A     -0.831083
      31A     -0.806452    32A     -0.754510    33A     -0.739445
      34A     -0.721107    35A     -0.707030    36A     -0.692671
      37A     -0.689208    38A     -0.676468    39A     -0.657410
      40A     -0.637755    41A     -0.627967    42A     -0.618890
      43A     -0.604898    44A     -0.595748    45A     -0.588931
      46A     -0.573292    47A     -0.569359    48A     -0.543814
      49A     -0.532621    50A     -0.521950    51A     -0.510380
      52A     -0.484843    53A     -0.482357    54A     -0.468440
      55A     -0.461429    56A     -0.444648    57A     -0.437620
      58A     -0.416722    59A     -0.384100    60A     -0.335305

  @DF-RHF Final Energy:  -811.47939215176746

   => Energetics <=

    Nuclear Repulsion Energy =           1170.3429584390382843
    One-Electron Energy =               -3435.7249316727325095
    Two-Electron Energy =                1453.9025810819268827
    Total Energy =                       -811.4793921517673425
  Basis Set: (AUG-CC-PVTZ AUX)
    Blend: AUG-CC-PVTZ-RI
    Molecular point group: c1

    Geometry (in Angstrom), charge = 0, multiplicity = 1:

       Center              X                  Y                   Z               Mass
    ------------   -----------------  -----------------  -----------------  -----------------
         O            1.368629196048    -0.378637580637    -0.922676457519    15.994914619570
         O            3.201030096048     1.901637019363    -0.300106057519    15.994914619570
         O            2.798380096048    -2.748522980637    -0.400794057519    15.994914619570
         O           -1.363212903952     2.374429019363     0.154189942481    15.994914619570
         N           -0.799270903952     0.199842019363    -0.229849057519    14.003074004430
         N           -3.055198903952     0.805663019363     0.239418942481    14.003074004430
         N           -4.674436903952    -0.812010980637     0.412043942481    14.003074004430
         C            2.700568096048     0.875978019363     0.558880942481    12.000000000000
         C            1.245139896048     1.098359619363     0.885472742481    12.000000000000
         C            2.650792096048    -0.391866980637    -0.286063057519    12.000000000000
         C            0.572931096048     0.683428019363    -0.415509057519    12.000000000000
         C            2.801071096048    -1.659591980637     0.521876942481    12.000000000000
         C           -1.128363903952    -1.115394980637    -0.308869057519    12.000000000000
         C           -1.745714903952     1.204316019363     0.081451942481    12.000000000000
         C           -2.418333903952    -1.504136980637    -0.105135057519    12.000000000000
         C           -3.363018903952    -0.472735980637     0.167917942481    12.000000000000
         H            3.333354096048     0.757209019363     1.450259942481     1.007825032230
         H            0.903680096048     0.444253019363     1.692895942481     1.007825032230
         H            0.984302096048     2.134491019363     1.157553942481     1.007825032230
         H            0.526427096048     1.513678019363    -1.125506057519     1.007825032230
         H            3.416465096048    -0.363858980637    -1.067219057519     1.007825032230
         H            1.969722096048    -1.732759980637     1.242629942481     1.007825032230
         H            3.745062096048    -1.609090980637     1.087695942481     1.007825032230
         H            3.102824096048     2.746748019363     0.177389942481     1.007825032230
         H           -0.311766903952    -1.788776980637    -0.544291057519     1.007825032230
         H            2.909003096048    -3.564647980637     0.118618942481     1.007825032230
         H           -2.704494903952    -2.548659980637    -0.153843057519     1.007825032230
         H           -5.029737903952    -1.637317980637    -0.057312057519     1.007825032230
         H           -5.300497903952    -0.013373980637     0.385507942481     1.007825032230

  Basis Set: AUG-CC-PVTZ
    Blend: AUG-CC-PVTZ
  Basis Set: (AUG-CC-PVTZ AUX)
    Blend: AUG-CC-PVTZ-JKFIT
	 Reference Energy          =    -811.4793921517674562 [Eh]
	 Singles Energy            =      -0.0000000000000000 [Eh]
	 Same-Spin Energy          =      -0.8296821393049049 [Eh]
	 Opposite-Spin Energy      =      -2.5249086071013385 [Eh]
	 Correlation Energy        =      -3.3545907464062434 [Eh]
	 Total Energy              =    -814.8339828981736446 [Eh]

	 ================> DF-SCS-MP2 Energies <==================
	-----------------------------------------------------------
	 SCS Same-Spin Scale       =       0.3333333333333333 [-]
	 SCS Opposite-Spin Scale   =       1.2000000000000000 [-]
	 SCS Same-Spin Energy      =      -0.2765607131016349 [Eh]
	 SCS Opposite-Spin Energy  =      -3.0298903285216059 [Eh]
	 SCS Correlation Energy    =      -3.3064510416232409 [Eh]
	 SCS Total Energy          =    -814.7858431933907468 [Eh]
	-----------------------------------------------------------

  Dipole Moment: [D]
     X:     1.0110      Y:    -4.6788      Z:     2.4669     Total:     5.3851

*** Psi4 exiting successfully. Buy a developer a beer!
