                               Psi4 1.4a3.dev225

  ==> Input File <==

--------------------------------------------------------------------------
#psi4
#
memory 32 gb

molecule  {
0 1
  O       -1.4695130     0.3030610    -1.0874480
  O       -3.6436400    -1.4204040    -0.2669360
  O       -1.6911330     2.8536240     0.0000030
  O        1.1857770    -2.4961310     0.0874550
  N        0.6842480    -0.3150290    -0.3399290
  N        2.9133760    -0.9647370     0.2108410
  N        4.5636770     0.6178870     0.3785230
  C       -2.7686820    -0.6858470     0.5863090
  C       -1.3787780    -1.3118450     0.6568060
  C       -2.4925280     0.6283540    -0.1295840
  C       -0.6939390    -0.7805590    -0.6115670
  C       -2.0414120     1.7324860     0.8087370
  C        1.0545030     0.9838330    -0.4888120
  C        1.6080830    -1.3384950     0.0010630
  C        2.3487550     1.3478080    -0.2622830
  C        3.2260099     0.3411576     0.0753711
  H       -3.2188600    -0.5381750     1.5798200
  H       -0.8341690    -0.9801840     1.5464130
  H       -1.3950130    -2.4033150     0.6754970
  H       -0.6263030    -1.5384450    -1.3968420
  H       -3.3591510     0.9641520    -0.7058050
  H       -1.1849610     1.3939850     1.4098140
  H       -2.8667900     1.9743150     1.4948250
  H       -3.6905400    -2.3294490     0.0774600
  H        0.2668220     1.6750250    -0.7707300
  H       -1.4321050     3.5760960     0.5972330
  H        2.6621150     2.3809760    -0.3596430
  H        4.9550500     1.4416620    -0.0591730
  H        5.1797170    -0.1867780     0.4106900
units angstrom
no_reorient  #important for SAPT in psi4, default
symmetry c1  #important for SAPT in psi4, default
}

set PROPERTIES_ORIGIN ["COM"]
properties('MP2/aug-cc-pvtz', properties = ['dipole'])
--------------------------------------------------------------------------

    Molecular point group: c1
  Charge       = 0
  Multiplicity = 1
  Basis Set: AUG-CC-PVTZ
    Blend: AUG-CC-PVTZ
  Basis Set: (AUG-CC-PVTZ AUX)
    Blend: AUG-CC-PVTZ-JKFIT

    Orbital Energies [Eh]
    ---------------------

    Doubly Occupied:

       1A    -20.585263     2A    -20.576193     3A    -20.573633
       4A    -20.499132     5A    -15.623918     6A    -15.584889
       7A    -15.540112     8A    -11.365786     9A    -11.344436
      10A    -11.335101    11A    -11.321487    12A    -11.301796
      13A    -11.300692    14A    -11.296184    15A    -11.238590
      16A    -11.234347    17A     -1.420595    18A     -1.382376
      19A     -1.377912    20A     -1.366743    21A     -1.287011
      22A     -1.253553    23A     -1.158836    24A     -1.080722
      25A     -1.072612    26A     -1.029048    27A     -0.932803
      28A     -0.901823    29A     -0.863601    30A     -0.829837
      31A     -0.807029    32A     -0.752726    33A     -0.740618
      34A     -0.726878    35A     -0.705993    36A     -0.703015
      37A     -0.687231    38A     -0.669799    39A     -0.652595
      40A     -0.642956    41A     -0.624157    42A     -0.620768
      43A     -0.607563    44A     -0.597070    45A     -0.586983
      46A     -0.572022    47A     -0.567146    48A     -0.550910
      49A     -0.524101    50A     -0.522026    51A     -0.511169
      52A     -0.486288    53A     -0.481765    54A     -0.473898
      55A     -0.460567    56A     -0.449490    57A     -0.441656
      58A     -0.413637    59A     -0.379270    60A     -0.336795

  @DF-RHF Final Energy:  -811.47394903016436

   => Energetics <=

    Nuclear Repulsion Energy =           1185.3762317675293616
    One-Electron Energy =               -3465.7500525927862327
    Two-Electron Energy =                1468.8998717950926221
    Total Energy =                       -811.4739490301644764
  Basis Set: (AUG-CC-PVTZ AUX)
    Blend: AUG-CC-PVTZ-RI
    Molecular point group: c1

    Geometry (in Angstrom), charge = 0, multiplicity = 1:

       Center              X                  Y                   Z               Mass
    ------------   -----------------  -----------------  -----------------  -----------------
         O           -1.492289378004     0.324845306771    -1.067172977956    15.994914619570
         O           -3.666416378004    -1.398619693229    -0.246660977956    15.994914619570
         O           -1.713909378004     2.875408306771     0.020278022044    15.994914619570
         O            1.163000621996    -2.474346693229     0.107730022044    15.994914619570
         N            0.661471621996    -0.293244693229    -0.319653977956    14.003074004430
         N            2.890599621996    -0.942952693229     0.231116022044    14.003074004430
         N            4.540900621996     0.639671306771     0.398798022044    14.003074004430
         C           -2.791458378004    -0.664062693229     0.606584022044    12.000000000000
         C           -1.401554378004    -1.290060693229     0.677081022044    12.000000000000
         C           -2.515304378004     0.650138306771    -0.109308977956    12.000000000000
         C           -0.716715378004    -0.758774693229    -0.591291977956    12.000000000000
         C           -2.064188378004     1.754270306771     0.829012022044    12.000000000000
         C            1.031726621996     1.005617306771    -0.468536977956    12.000000000000
         C            1.585306621996    -1.316710693229     0.021338022044    12.000000000000
         C            2.325978621996     1.369592306771    -0.242007977956    12.000000000000
         C            3.203233521996     0.362941906771     0.095646122044    12.000000000000
         H           -3.241636378004    -0.516390693229     1.600095022044     1.007825032230
         H           -0.856945378004    -0.958399693229     1.566688022044     1.007825032230
         H           -1.417789378004    -2.381530693229     0.695772022044     1.007825032230
         H           -0.649079378004    -1.516660693229    -1.376566977956     1.007825032230
         H           -3.381927378004     0.985936306771    -0.685529977956     1.007825032230
         H           -1.207737378004     1.415769306771     1.430089022044     1.007825032230
         H           -2.889566378004     1.996099306771     1.515100022044     1.007825032230
         H           -3.713316378004    -2.307664693229     0.097735022044     1.007825032230
         H            0.244045621996     1.696809306771    -0.750454977956     1.007825032230
         H           -1.454881378004     3.597880306771     0.617508022044     1.007825032230
         H            2.639338621996     2.402760306771    -0.339367977956     1.007825032230
         H            4.932273621996     1.463446306771    -0.038897977956     1.007825032230
         H            5.156940621996    -0.164993693229     0.430965022044     1.007825032230

  Basis Set: AUG-CC-PVTZ
    Blend: AUG-CC-PVTZ
  Basis Set: (AUG-CC-PVTZ AUX)
    Blend: AUG-CC-PVTZ-JKFIT
	 Reference Energy          =    -811.4739490301643627 [Eh]
	 Singles Energy            =      -0.0000000000000000 [Eh]
	 Same-Spin Energy          =      -0.8316348256079260 [Eh]
	 Opposite-Spin Energy      =      -2.5281485256543226 [Eh]
	 Correlation Energy        =      -3.3597833512622488 [Eh]
	 Total Energy              =    -814.8337323814265574 [Eh]

	 ================> DF-SCS-MP2 Energies <==================
	-----------------------------------------------------------
	 SCS Same-Spin Scale       =       0.3333333333333333 [-]
	 SCS Opposite-Spin Scale   =       1.2000000000000000 [-]
	 SCS Same-Spin Energy      =      -0.2772116085359753 [Eh]
	 SCS Opposite-Spin Energy  =      -3.0337782307851868 [Eh]
	 SCS Correlation Energy    =      -3.3109898393211621 [Eh]
	 SCS Total Energy          =    -814.7849388694854724 [Eh]
	-----------------------------------------------------------

  Dipole Moment: [D]
     X:    -0.6725      Y:     4.7080      Z:     2.3353     Total:     5.2982

*** Psi4 exiting successfully. Buy a developer a beer!
