                               Psi4 1.3.2 release

  ==> Input File <==

--------------------------------------------------------------------------
#psi4
#
memory 32 gb

molecule  {
0 1
  O        1.3620710    -0.3800110    -0.9318440
  O        3.1984433     1.9334637    -0.2616630
  O        2.7994070    -2.7489470    -0.4002010
  O       -1.3621860     2.3740050     0.1547830
  N       -0.7982440     0.1994180    -0.2292560
  N       -3.0541720     0.8052390     0.2400120
  N       -4.6734100    -0.8124350     0.4126370
  C        2.7015950     0.8755540     0.5594740
  C        1.2368440     1.1072260     0.8878520
  C        2.6329575    -0.4185840    -0.2432307
  C        0.5739580     0.6830040    -0.4149160
  C        2.8020980    -1.6600160     0.5224700
  C       -1.1273370    -1.1158190    -0.3082760
  C       -1.7446880     1.2038920     0.0820450
  C       -2.4173070    -1.5045610    -0.1045420
  C       -3.3619920    -0.4731600     0.1685110
  H        3.3343810     0.7567850     1.4508530
  H        0.9047070     0.4438290     1.6934890
  H        0.9853290     2.1340670     1.1581470
  H        0.5274540     1.5132540    -1.1249130
  H        3.4174920    -0.3642830    -1.0666260
  H        1.9707490    -1.7331840     1.2432230
  H        3.7460890    -1.6095150     1.0882890
  H        3.1038510     2.7463240     0.1779830
  H       -0.3107400    -1.7892010    -0.5436980
  H        2.9100300    -3.5650720     0.1192120
  H       -2.7034680    -2.5490840    -0.1532500
  H       -5.0287110    -1.6377420    -0.0567190
  H       -5.2994710    -0.0137980     0.3861010
units angstrom
no_reorient  #important for SAPT in psi4, default
symmetry c1  #important for SAPT in psi4, default
}

set PROPERTIES_ORIGIN ["COM"]
properties('MP2/aug-cc-pvtz', properties = ['dipole'])
--------------------------------------------------------------------------

    Molecular point group: c1
  Charge       = 0
  Multiplicity = 1
  Basis Set: AUG-CC-PVTZ
    Blend: AUG-CC-PVTZ
  Basis Set: (AUG-CC-PVTZ AUX)
    Blend: AUG-CC-PVTZ-JKFIT

    Orbital Energies [Eh]
    ---------------------

    Doubly Occupied:

       1A    -20.579819     2A    -20.573672     3A    -20.568967
       4A    -20.502967     5A    -15.621555     6A    -15.588357
       7A    -15.540767     8A    -11.369786     9A    -11.345027
      10A    -11.330604    11A    -11.318341    12A    -11.302837
      13A    -11.297832    14A    -11.296198    15A    -11.237083
      16A    -11.236400    17A     -1.417454    18A     -1.384213
      19A     -1.378665    20A     -1.369136    21A     -1.292201
      22A     -1.261401    23A     -1.169090    24A     -1.082131
      25A     -1.072886    26A     -1.031509    27A     -0.931782
      28A     -0.897612    29A     -0.869849    30A     -0.832035
      31A     -0.802594    32A     -0.754412    33A     -0.738787
      34A     -0.725647    35A     -0.710748    36A     -0.696260
      37A     -0.691022    38A     -0.676410    39A     -0.657432
      40A     -0.639369    41A     -0.627344    42A     -0.618756
      43A     -0.608652    44A     -0.596691    45A     -0.590048
      46A     -0.573151    47A     -0.563780    48A     -0.545141
      49A     -0.533190    50A     -0.525755    51A     -0.510675
      52A     -0.484564    53A     -0.479812    54A     -0.469246
      55A     -0.461645    56A     -0.444245    57A     -0.440076
      58A     -0.416210    59A     -0.383753    60A     -0.334914

  @DF-RHF Final Energy:  -811.47615995487570

   => Energetics <=

    Nuclear Repulsion Energy =           1170.2313630372525495
    One-Electron Energy =               -3435.4140489300016270
    Two-Electron Energy =                1453.7065259378730389
    Total Energy =                       -811.4761599548758113
  Basis Set: (AUG-CC-PVTZ AUX)
    Blend: AUG-CC-PVTZ-RI
    Molecular point group: c1

    Geometry (in Angstrom), charge = 0, multiplicity = 1:

       Center              X                  Y                   Z               Mass
    ------------   -----------------  -----------------  -----------------  -----------------
         O            1.363322197547    -0.380893201208    -0.936741918791    15.994914619570
         O            3.199694497547     1.932581498792    -0.266560918791    15.994914619570
         O            2.800658197547    -2.749829201208    -0.405098918791    15.994914619570
         O           -1.360934802453     2.373122798792     0.149885081209    15.994914619570
         N           -0.796992802453     0.198535798792    -0.234153918791    14.003074004430
         N           -3.052920802453     0.804356798792     0.235114081209    14.003074004430
         N           -4.672158802453    -0.813317201208     0.407739081209    14.003074004430
         C            2.702846197547     0.874671798792     0.554576081209    12.000000000000
         C            1.238095197547     1.106343798792     0.882954081209    12.000000000000
         C            2.634208697547    -0.419466201208    -0.248128618791    12.000000000000
         C            0.575209197547     0.682121798792    -0.419813918791    12.000000000000
         C            2.803349197547    -1.660898201208     0.517572081209    12.000000000000
         C           -1.126085802453    -1.116701201208    -0.313173918791    12.000000000000
         C           -1.743436802453     1.203009798792     0.077147081209    12.000000000000
         C           -2.416055802453    -1.505443201208    -0.109439918791    12.000000000000
         C           -3.360740802453    -0.474042201208     0.163613081209    12.000000000000
         H            3.335632197547     0.755902798792     1.445955081209     1.007825032230
         H            0.905958197547     0.442946798792     1.688591081209     1.007825032230
         H            0.986580197547     2.133184798792     1.153249081209     1.007825032230
         H            0.528705197547     1.512371798792    -1.129810918791     1.007825032230
         H            3.418743197547    -0.365165201208    -1.071523918791     1.007825032230
         H            1.972000197547    -1.734066201208     1.238325081209     1.007825032230
         H            3.747340197547    -1.610397201208     1.083391081209     1.007825032230
         H            3.105102197547     2.745441798792     0.173085081209     1.007825032230
         H           -0.309488802453    -1.790083201208    -0.548595918791     1.007825032230
         H            2.911281197547    -3.565954201208     0.114314081209     1.007825032230
         H           -2.702216802453    -2.549966201208    -0.158147918791     1.007825032230
         H           -5.027459802453    -1.638624201208    -0.061616918791     1.007825032230
         H           -5.298219802453    -0.014680201208     0.381203081209     1.007825032230

  Basis Set: AUG-CC-PVTZ
    Blend: AUG-CC-PVTZ
  Basis Set: (AUG-CC-PVTZ AUX)
    Blend: AUG-CC-PVTZ-JKFIT
	 Reference Energy          =    -811.4761599548756976 [Eh]
	 Singles Energy            =      -0.0000000000000000 [Eh]
	 Same-Spin Energy          =      -0.8294903265642982 [Eh]
	 Opposite-Spin Energy      =      -2.5240572532089001 [Eh]
	 Correlation Energy        =      -3.3535475797731982 [Eh]
	 Total Energy              =    -814.8297075346489464 [Eh]

	 ================> DF-SCS-MP2 Energies <==================
	-----------------------------------------------------------
	 SCS Same-Spin Scale       =       0.3333333333333333 [-]
	 SCS Opposite-Spin Scale   =       1.2000000000000000 [-]
	 SCS Same-Spin Energy      =      -0.2764967755214327 [Eh]
	 SCS Opposite-Spin Energy  =      -3.0288687038506801 [Eh]
	 SCS Correlation Energy    =      -3.3053654793721128 [Eh]
	 SCS Total Energy          =    -814.7815254342477829 [Eh]
	-----------------------------------------------------------

  Dipole Moment: [D]
     X:     1.0671      Y:    -4.7787      Z:     2.5040     Total:     5.4995

*** Psi4 exiting successfully. Buy a developer a beer!
