                               Psi4 1.3.2 release

  ==> Input File <==

--------------------------------------------------------------------------
#psi4
#
memory 32 gb

molecule  {
0 1
  O        1.3620710    -0.3800110    -0.9318440
  O        3.2020570     1.9012130    -0.2995130
  O        2.8046219    -2.7803151    -0.3618508
  O       -1.3621860     2.3740050     0.1547830
  N       -0.7982440     0.1994180    -0.2292560
  N       -3.0541720     0.8052390     0.2400120
  N       -4.6734100    -0.8124350     0.4126370
  C        2.7015950     0.8755540     0.5594740
  C        1.2368440     1.1072260     0.8878520
  C        2.6536296    -0.3645963    -0.2406306
  C        0.5739580     0.6830040    -0.4149160
  C        2.8020980    -1.6600160     0.5224700
  C       -1.1273370    -1.1158190    -0.3082760
  C       -1.7446880     1.2038920     0.0820450
  C       -2.4173070    -1.5045610    -0.1045420
  C       -3.3619920    -0.4731600     0.1685110
  H        3.3343810     0.7567850     1.4508530
  H        0.9047070     0.4438290     1.6934890
  H        0.9853290     2.1340670     1.1581470
  H        0.5274540     1.5132540    -1.1249130
  H        3.4174920    -0.3642830    -1.0666260
  H        1.9707490    -1.7331840     1.2432230
  H        3.7460890    -1.6095150     1.0882890
  H        3.1038510     2.7463240     0.1779830
  H       -0.3107400    -1.7892010    -0.5436980
  H        2.9100300    -3.5650720     0.1192120
  H       -2.7034680    -2.5490840    -0.1532500
  H       -5.0287110    -1.6377420    -0.0567190
  H       -5.2994710    -0.0137980     0.3861010
units angstrom
no_reorient  #important for SAPT in psi4, default
symmetry c1  #important for SAPT in psi4, default
}

set PROPERTIES_ORIGIN ["COM"]
properties('MP2/aug-cc-pvtz', properties = ['dipole'])
--------------------------------------------------------------------------

    Molecular point group: c1
  Charge       = 0
  Multiplicity = 1
  Basis Set: AUG-CC-PVTZ
    Blend: AUG-CC-PVTZ
  Basis Set: (AUG-CC-PVTZ AUX)
    Blend: AUG-CC-PVTZ-JKFIT

    Orbital Energies [Eh]
    ---------------------

    Doubly Occupied:

       1A    -20.576280     2A    -20.572947     3A    -20.572460
       4A    -20.502943     5A    -15.621374     6A    -15.588222
       7A    -15.540619     8A    -11.369669     9A    -11.344872
      10A    -11.329811    11A    -11.318048    12A    -11.301556
      13A    -11.299490    14A    -11.296237    15A    -11.238204
      16A    -11.236822    17A     -1.414491    18A     -1.384215
      19A     -1.380183    20A     -1.367041    21A     -1.291954
      22A     -1.260873    23A     -1.168847    24A     -1.084762
      25A     -1.072337    26A     -1.029041    27A     -0.931346
      28A     -0.897961    29A     -0.871920    30A     -0.831067
      31A     -0.803151    32A     -0.754035    33A     -0.738685
      34A     -0.728566    35A     -0.708886    36A     -0.695960
      37A     -0.691230    38A     -0.674882    39A     -0.656352
      40A     -0.638488    41A     -0.628030    42A     -0.619235
      43A     -0.604448    44A     -0.595903    45A     -0.588161
      46A     -0.573584    47A     -0.564852    48A     -0.542954
      49A     -0.534390    50A     -0.523814    51A     -0.509550
      52A     -0.496097    53A     -0.482166    54A     -0.468253
      55A     -0.461763    56A     -0.443973    57A     -0.437702
      58A     -0.416135    59A     -0.383617    60A     -0.334788

  @DF-RHF Final Energy:  -811.47601511222376

   => Energetics <=

    Nuclear Repulsion Energy =           1169.8907647737244133
    One-Electron Energy =               -3434.7430816251712713
    Two-Electron Energy =                1453.3763017392227539
    Total Energy =                       -811.4760151122238767
  Basis Set: (AUG-CC-PVTZ AUX)
    Blend: AUG-CC-PVTZ-RI
    Molecular point group: c1

    Geometry (in Angstrom), charge = 0, multiplicity = 1:

       Center              X                  Y                   Z               Mass
    ------------   -----------------  -----------------  -----------------  -----------------
         O            1.361608001129    -0.379265107114    -0.936914545290    15.994914619570
         O            3.201594001129     1.901958892886    -0.304583545290    15.994914619570
         O            2.804158901129    -2.779569207114    -0.366921345290    15.994914619570
         O           -1.362648998871     2.374750892886     0.149712454710    15.994914619570
         N           -0.798706998871     0.200163892886    -0.234326545290    14.003074004430
         N           -3.054634998871     0.805984892886     0.234941454710    14.003074004430
         N           -4.673872998871    -0.811689107114     0.407566454710    14.003074004430
         C            2.701132001129     0.876299892886     0.554403454710    12.000000000000
         C            1.236381001129     1.107971892886     0.882781454710    12.000000000000
         C            2.653166601129    -0.363850407114    -0.245701145290    12.000000000000
         C            0.573495001129     0.683749892886    -0.419986545290    12.000000000000
         C            2.801635001129    -1.659270107114     0.517399454710    12.000000000000
         C           -1.127799998871    -1.115073107114    -0.313346545290    12.000000000000
         C           -1.745150998871     1.204637892886     0.076974454710    12.000000000000
         C           -2.417769998871    -1.503815107114    -0.109612545290    12.000000000000
         C           -3.362454998871    -0.472414107114     0.163440454710    12.000000000000
         H            3.333918001129     0.757530892886     1.445782454710     1.007825032230
         H            0.904244001129     0.444574892886     1.688418454710     1.007825032230
         H            0.984866001129     2.134812892886     1.153076454710     1.007825032230
         H            0.526991001129     1.513999892886    -1.129983545290     1.007825032230
         H            3.417029001129    -0.363537107114    -1.071696545290     1.007825032230
         H            1.970286001129    -1.732438107114     1.238152454710     1.007825032230
         H            3.745626001129    -1.608769107114     1.083218454710     1.007825032230
         H            3.103388001129     2.747069892886     0.172912454710     1.007825032230
         H           -0.311202998871    -1.788455107114    -0.548768545290     1.007825032230
         H            2.909567001129    -3.564326107114     0.114141454710     1.007825032230
         H           -2.703930998871    -2.548338107114    -0.158320545290     1.007825032230
         H           -5.029173998871    -1.636996107114    -0.061789545290     1.007825032230
         H           -5.299933998871    -0.013052107114     0.381030454710     1.007825032230

  Basis Set: AUG-CC-PVTZ
    Blend: AUG-CC-PVTZ
  Basis Set: (AUG-CC-PVTZ AUX)
    Blend: AUG-CC-PVTZ-JKFIT
	 Reference Energy          =    -811.4760151122237630 [Eh]
	 Singles Energy            =      -0.0000000000000000 [Eh]
	 Same-Spin Energy          =      -0.8295372176377461 [Eh]
	 Opposite-Spin Energy      =      -2.5243570005025404 [Eh]
	 Correlation Energy        =      -3.3538942181402867 [Eh]
	 Total Energy              =    -814.8299093303641030 [Eh]

	 ================> DF-SCS-MP2 Energies <==================
	-----------------------------------------------------------
	 SCS Same-Spin Scale       =       0.3333333333333333 [-]
	 SCS Opposite-Spin Scale   =       1.2000000000000000 [-]
	 SCS Same-Spin Energy      =      -0.2765124058792487 [Eh]
	 SCS Opposite-Spin Energy  =      -3.0292284006030483 [Eh]
	 SCS Correlation Energy    =      -3.3057408064822971 [Eh]
	 SCS Total Energy          =    -814.7817559187060397 [Eh]
	-----------------------------------------------------------

  Dipole Moment: [D]
     X:     1.1034      Y:    -4.5896      Z:     2.5046     Total:     5.3436

*** Psi4 exiting successfully. Buy a developer a beer!
