                               Psi4 1.3.2 release

  ==> Input File <==

--------------------------------------------------------------------------
#psi4
#
memory 32 gb

molecule  {
0 1
  O        1.3620710    -0.3800110    -0.9318440
  O        3.2020570     1.9012130    -0.2995130
  O        2.7994070    -2.7489470    -0.4002010
  O       -1.3621860     2.3740050     0.1547830
  N       -0.7982440     0.1994180    -0.2292560
  N       -3.0541720     0.8052390     0.2400120
  N       -4.6734100    -0.8124350     0.4126370
  C        2.7015950     0.8755540     0.5594740
  C        1.2368440     1.1072260     0.8878520
  C        2.6375754    -0.3523888    -0.2582524
  C        0.6116372     0.6952882    -0.3851098
  C        2.8020980    -1.6600160     0.5224700
  C       -1.1273370    -1.1158190    -0.3082760
  C       -1.7446880     1.2038920     0.0820450
  C       -2.4173070    -1.5045610    -0.1045420
  C       -3.3619920    -0.4731600     0.1685110
  H        3.3343810     0.7567850     1.4508530
  H        0.9047070     0.4438290     1.6934890
  H        0.9853290     2.1340670     1.1581470
  H        0.5274540     1.5132540    -1.1249130
  H        3.4174920    -0.3642830    -1.0666260
  H        1.9707490    -1.7331840     1.2432230
  H        3.7460890    -1.6095150     1.0882890
  H        3.1038510     2.7463240     0.1779830
  H       -0.3107400    -1.7892010    -0.5436980
  H        2.9100300    -3.5650720     0.1192120
  H       -2.7034680    -2.5490840    -0.1532500
  H       -5.0287110    -1.6377420    -0.0567190
  H       -5.2994710    -0.0137980     0.3861010
units angstrom
no_reorient  #important for SAPT in psi4, default
symmetry c1  #important for SAPT in psi4, default
}

set PROPERTIES_ORIGIN ["COM"]
properties('MP2/aug-cc-pvtz', properties = ['dipole'])
--------------------------------------------------------------------------

    Molecular point group: c1
  Charge       = 0
  Multiplicity = 1
  Basis Set: AUG-CC-PVTZ
    Blend: AUG-CC-PVTZ
  Basis Set: (AUG-CC-PVTZ AUX)
    Blend: AUG-CC-PVTZ-JKFIT

    Orbital Energies [Eh]
    ---------------------

    Doubly Occupied:

       1A    -20.578828     2A    -20.576841     3A    -20.576751
       4A    -20.501384     5A    -15.619131     6A    -15.587185
       7A    -15.539228     8A    -11.367865     9A    -11.343595
      10A    -11.332832    11A    -11.316661    12A    -11.302023
      13A    -11.298528    14A    -11.294579    15A    -11.238493
      16A    -11.235400    17A     -1.420977    18A     -1.381039
      19A     -1.374874    20A     -1.367513    21A     -1.290093
      22A     -1.256911    23A     -1.166888    24A     -1.090356
      25A     -1.068712    26A     -1.029731    27A     -0.926065
      28A     -0.895683    29A     -0.869693    30A     -0.831006
      31A     -0.805690    32A     -0.752086    33A     -0.738941
      34A     -0.723012    35A     -0.707468    36A     -0.693555
      37A     -0.690755    38A     -0.673810    39A     -0.654900
      40A     -0.637680    41A     -0.628022    42A     -0.617538
      43A     -0.602569    44A     -0.595516    45A     -0.588612
      46A     -0.571030    47A     -0.564831    48A     -0.546466
      49A     -0.535545    50A     -0.526333    51A     -0.511934
      52A     -0.497306    53A     -0.481987    54A     -0.469037
      55A     -0.461794    56A     -0.443169    57A     -0.436426
      58A     -0.413835    59A     -0.383164    60A     -0.333814

  @DF-RHF Final Energy:  -811.47189978555798

   => Energetics <=

    Nuclear Repulsion Energy =           1170.6454527568471349
    One-Electron Energy =               -3436.3033246925592721
    Two-Electron Energy =                1454.1859721501541571
    Total Energy =                       -811.4718997855579801
  Basis Set: (AUG-CC-PVTZ AUX)
    Blend: AUG-CC-PVTZ-RI
    Molecular point group: c1

    Geometry (in Angstrom), charge = 0, multiplicity = 1:

       Center              X                  Y                   Z               Mass
    ------------   -----------------  -----------------  -----------------  -----------------
         O            1.360832592041    -0.382768688771    -0.934857237051    15.994914619570
         O            3.200818592041     1.898455311229    -0.302526237051    15.994914619570
         O            2.798168592041    -2.751704688771    -0.403214237051    15.994914619570
         O           -1.363424407959     2.371247311229     0.151769762949    15.994914619570
         N           -0.799482407959     0.196660311229    -0.232269237051    14.003074004430
         N           -3.055410407959     0.802481311229     0.236998762949    14.003074004430
         N           -4.674648407959    -0.815192688771     0.409623762949    14.003074004430
         C            2.700356592041     0.872796311229     0.556460762949    12.000000000000
         C            1.235605592041     1.104468311229     0.884838762949    12.000000000000
         C            2.636336992041    -0.355146488771    -0.261265637051    12.000000000000
         C            0.610398792041     0.692530511229    -0.388123037051    12.000000000000
         C            2.800859592041    -1.662773688771     0.519456762949    12.000000000000
         C           -1.128575407959    -1.118576688771    -0.311289237051    12.000000000000
         C           -1.745926407959     1.201134311229     0.079031762949    12.000000000000
         C           -2.418545407959    -1.507318688771    -0.107555237051    12.000000000000
         C           -3.363230407959    -0.475917688771     0.165497762949    12.000000000000
         H            3.333142592041     0.754027311229     1.447839762949     1.007825032230
         H            0.903468592041     0.441071311229     1.690475762949     1.007825032230
         H            0.984090592041     2.131309311229     1.155133762949     1.007825032230
         H            0.526215592041     1.510496311229    -1.127926237051     1.007825032230
         H            3.416253592041    -0.367040688771    -1.069639237051     1.007825032230
         H            1.969510592041    -1.735941688771     1.240209762949     1.007825032230
         H            3.744850592041    -1.612272688771     1.085275762949     1.007825032230
         H            3.102612592041     2.743566311229     0.174969762949     1.007825032230
         H           -0.311978407959    -1.791958688771    -0.546711237051     1.007825032230
         H            2.908791592041    -3.567829688771     0.116198762949     1.007825032230
         H           -2.704706407959    -2.551841688771    -0.156263237051     1.007825032230
         H           -5.029949407959    -1.640499688771    -0.059732237051     1.007825032230
         H           -5.300709407959    -0.016555688771     0.383087762949     1.007825032230

  Basis Set: AUG-CC-PVTZ
    Blend: AUG-CC-PVTZ
  Basis Set: (AUG-CC-PVTZ AUX)
    Blend: AUG-CC-PVTZ-JKFIT
	 Reference Energy          =    -811.4718997855579801 [Eh]
	 Singles Energy            =      -0.0000000000000000 [Eh]
	 Same-Spin Energy          =      -0.8305377851355332 [Eh]
	 Opposite-Spin Energy      =      -2.5264130215084593 [Eh]
	 Correlation Energy        =      -3.3569508066439924 [Eh]
	 Total Energy              =    -814.8288505922020022 [Eh]

	 ================> DF-SCS-MP2 Energies <==================
	-----------------------------------------------------------
	 SCS Same-Spin Scale       =       0.3333333333333333 [-]
	 SCS Opposite-Spin Scale   =       1.2000000000000000 [-]
	 SCS Same-Spin Energy      =      -0.2768459283785111 [Eh]
	 SCS Opposite-Spin Energy  =      -3.0316956258101508 [Eh]
	 SCS Correlation Energy    =      -3.3085415541886620 [Eh]
	 SCS Total Energy          =    -814.7804413397466305 [Eh]
	-----------------------------------------------------------

  Dipole Moment: [D]
     X:     1.2462      Y:    -4.5994      Z:     2.5606     Total:     5.4096

*** Psi4 exiting successfully. Buy a developer a beer!
