                               Psi4 1.3.2 release

  ==> Input File <==

--------------------------------------------------------------------------
#psi4
#
memory 32 gb

molecule  {
0 1
  O        1.3620710    -0.3800110    -0.9318440
  O        3.2020570     1.9012130    -0.2995130
  O        2.7994070    -2.7489470    -0.4002010
  O       -1.3621860     2.3740050     0.1547830
  N       -0.7982440     0.1994180    -0.2292560
  N       -3.0541720     0.8052390     0.2400120
  N       -4.6734100    -0.8124350     0.4126370
  C        2.7015950     0.8755540     0.5594740
  C        1.2368440     1.1072260     0.8878520
  C        2.6518190    -0.3922910    -0.2854700
  C        0.5739580     0.6830040    -0.4149160
  C        2.8020980    -1.6600160     0.5224700
  C       -1.1273370    -1.1158190    -0.3082760
  C       -1.7446880     1.2038920     0.0820450
  C       -2.4173070    -1.5045610    -0.1045420
  C       -3.3619920    -0.4731600     0.1685110
  H        3.3343810     0.7567850     1.4508530
  H        0.9047070     0.4438290     1.6934890
  H        0.9853290     2.1340670     1.1581470
  H        0.5232009     1.5891853    -1.1898464
  H        3.4174920    -0.3642830    -1.0666260
  H        1.9707490    -1.7331840     1.2432230
  H        3.7460890    -1.6095150     1.0882890
  H        3.1038510     2.7463240     0.1779830
  H       -0.3107400    -1.7892010    -0.5436980
  H        2.9100300    -3.5650720     0.1192120
  H       -2.7034680    -2.5490840    -0.1532500
  H       -5.0287110    -1.6377420    -0.0567190
  H       -5.2994710    -0.0137980     0.3861010
units angstrom
no_reorient  #important for SAPT in psi4, default
symmetry c1  #important for SAPT in psi4, default
}

set PROPERTIES_ORIGIN ["COM"]
properties('MP2/aug-cc-pvtz', properties = ['dipole'])
--------------------------------------------------------------------------

    Molecular point group: c1
  Charge       = 0
  Multiplicity = 1
  Basis Set: AUG-CC-PVTZ
    Blend: AUG-CC-PVTZ
  Basis Set: (AUG-CC-PVTZ AUX)
    Blend: AUG-CC-PVTZ-JKFIT

    Orbital Energies [Eh]
    ---------------------

    Doubly Occupied:

       1A    -20.577963     2A    -20.574053     3A    -20.573938
       4A    -20.502812     5A    -15.622595     6A    -15.588394
       7A    -15.540841     8A    -11.369712     9A    -11.345071
      10A    -11.340884    11A    -11.318538    12A    -11.300986
      13A    -11.297147    14A    -11.293388    15A    -11.237612
      16A    -11.237273    17A     -1.416814    18A     -1.382290
      19A     -1.373584    20A     -1.365716    21A     -1.292262
      22A     -1.261539    23A     -1.169030    24A     -1.078543
      25A     -1.068671    26A     -1.027219    27A     -0.924771
      28A     -0.897631    29A     -0.869024    30A     -0.826742
      31A     -0.805066    32A     -0.753630    33A     -0.738248
      34A     -0.719179    35A     -0.706747    36A     -0.691719
      37A     -0.686756    38A     -0.674183    39A     -0.655750
      40A     -0.635106    41A     -0.627168    42A     -0.618120
      43A     -0.604716    44A     -0.595084    45A     -0.588803
      46A     -0.572502    47A     -0.565642    48A     -0.545073
      49A     -0.532551    50A     -0.522700    51A     -0.507509
      52A     -0.486070    53A     -0.482088    54A     -0.468686
      55A     -0.461173    56A     -0.444236    57A     -0.434075
      58A     -0.415911    59A     -0.382722    60A     -0.334839

  @DF-RHF Final Energy:  -811.47188881081695

   => Energetics <=

    Nuclear Repulsion Energy =           1169.3251725258742226
    One-Electron Energy =               -3433.7319323345309385
    Two-Electron Energy =                1452.9348709978396528
    Total Energy =                       -811.4718888108170631
  Basis Set: (AUG-CC-PVTZ AUX)
    Blend: AUG-CC-PVTZ-RI
    Molecular point group: c1

    Geometry (in Angstrom), charge = 0, multiplicity = 1:

       Center              X                  Y                   Z               Mass
    ------------   -----------------  -----------------  -----------------  -----------------
         O            1.362089859287    -0.380348019132    -0.931555792225    15.994914619570
         O            3.202075859287     1.900875980868    -0.299224792225    15.994914619570
         O            2.799425859287    -2.749284019132    -0.399912792225    15.994914619570
         O           -1.362167140713     2.373667980868     0.155071207775    15.994914619570
         N           -0.798225140713     0.199080980868    -0.228967792225    14.003074004430
         N           -3.054153140713     0.804901980868     0.240300207775    14.003074004430
         N           -4.673391140713    -0.812772019132     0.412925207775    14.003074004430
         C            2.701613859287     0.875216980868     0.559762207775    12.000000000000
         C            1.236862859287     1.106888980868     0.888140207775    12.000000000000
         C            2.651837859287    -0.392628019132    -0.285181792225    12.000000000000
         C            0.573976859287     0.682666980868    -0.414627792225    12.000000000000
         C            2.802116859287    -1.660353019132     0.522758207775    12.000000000000
         C           -1.127318140713    -1.116156019132    -0.307987792225    12.000000000000
         C           -1.744669140713     1.203554980868     0.082333207775    12.000000000000
         C           -2.417288140713    -1.504898019132    -0.104253792225    12.000000000000
         C           -3.361973140713    -0.473497019132     0.168799207775    12.000000000000
         H            3.334399859287     0.756447980868     1.451141207775     1.007825032230
         H            0.904725859287     0.443491980868     1.693777207775     1.007825032230
         H            0.985347859287     2.133729980868     1.158435207775     1.007825032230
         H            0.523219759287     1.588848280868    -1.189558192225     1.007825032230
         H            3.417510859287    -0.364620019132    -1.066337792225     1.007825032230
         H            1.970767859287    -1.733521019132     1.243511207775     1.007825032230
         H            3.746107859287    -1.609852019132     1.088577207775     1.007825032230
         H            3.103869859287     2.745986980868     0.178271207775     1.007825032230
         H           -0.310721140713    -1.789538019132    -0.543409792225     1.007825032230
         H            2.910048859287    -3.565409019132     0.119500207775     1.007825032230
         H           -2.703449140713    -2.549421019132    -0.152961792225     1.007825032230
         H           -5.028692140713    -1.638079019132    -0.056430792225     1.007825032230
         H           -5.299452140713    -0.014135019132     0.386389207775     1.007825032230

  Basis Set: AUG-CC-PVTZ
    Blend: AUG-CC-PVTZ
  Basis Set: (AUG-CC-PVTZ AUX)
    Blend: AUG-CC-PVTZ-JKFIT
	 Reference Energy          =    -811.4718888108169494 [Eh]
	 Singles Energy            =      -0.0000000000000000 [Eh]
	 Same-Spin Energy          =      -0.8301479916525683 [Eh]
	 Opposite-Spin Energy      =      -2.5264541450492191 [Eh]
	 Correlation Energy        =      -3.3566021367017873 [Eh]
	 Total Energy              =    -814.8284909475187305 [Eh]

	 ================> DF-SCS-MP2 Energies <==================
	-----------------------------------------------------------
	 SCS Same-Spin Scale       =       0.3333333333333333 [-]
	 SCS Opposite-Spin Scale   =       1.2000000000000000 [-]
	 SCS Same-Spin Energy      =      -0.2767159972175227 [Eh]
	 SCS Opposite-Spin Energy  =      -3.0317449740590630 [Eh]
	 SCS Correlation Energy    =      -3.3084609712765856 [Eh]
	 SCS Total Energy          =    -814.7803497820934808 [Eh]
	-----------------------------------------------------------

  Dipole Moment: [D]
     X:     1.0791      Y:    -4.7017      Z:     2.5057     Total:     5.4359

*** Psi4 exiting successfully. Buy a developer a beer!
