                               Psi4 1.3.2 release

  ==> Input File <==

--------------------------------------------------------------------------
#psi4
#
memory 32 gb

molecule  {
0 1
  O        1.3467213    -0.3816670    -0.9512463
  O        3.2020570     1.9012130    -0.2995130
  O        2.7994070    -2.7489470    -0.4002010
  O       -1.3621860     2.3740050     0.1547830
  N       -0.7982440     0.1994180    -0.2292560
  N       -3.0541720     0.8052390     0.2400120
  N       -4.6734100    -0.8124350     0.4126370
  C        2.7015950     0.8755540     0.5594740
  C        1.2180476     1.1257092     0.8911266
  C        2.6518190    -0.3922910    -0.2854700
  C        0.5739580     0.6830040    -0.4149160
  C        2.8020980    -1.6600160     0.5224700
  C       -1.1273370    -1.1158190    -0.3082760
  C       -1.7446880     1.2038920     0.0820450
  C       -2.4173070    -1.5045610    -0.1045420
  C       -3.3619920    -0.4731600     0.1685110
  H        3.3343810     0.7567850     1.4508530
  H        0.9047070     0.4438290     1.6934890
  H        0.9853290     2.1340670     1.1581470
  H        0.5274540     1.5132540    -1.1249130
  H        3.4174920    -0.3642830    -1.0666260
  H        1.9707490    -1.7331840     1.2432230
  H        3.7460890    -1.6095150     1.0882890
  H        3.1038510     2.7463240     0.1779830
  H       -0.3107400    -1.7892010    -0.5436980
  H        2.9100300    -3.5650720     0.1192120
  H       -2.7034680    -2.5490840    -0.1532500
  H       -5.0287110    -1.6377420    -0.0567190
  H       -5.2994710    -0.0137980     0.3861010
units angstrom
no_reorient  #important for SAPT in psi4, default
symmetry c1  #important for SAPT in psi4, default
}

set PROPERTIES_ORIGIN ["COM"]
properties('MP2/aug-cc-pvtz', properties = ['dipole'])
--------------------------------------------------------------------------

    Molecular point group: c1
  Charge       = 0
  Multiplicity = 1
  Basis Set: AUG-CC-PVTZ
    Blend: AUG-CC-PVTZ
  Basis Set: (AUG-CC-PVTZ AUX)
    Blend: AUG-CC-PVTZ-JKFIT

    Orbital Energies [Eh]
    ---------------------

    Doubly Occupied:

       1A    -20.578498     2A    -20.574681     3A    -20.574038
       4A    -20.502401     5A    -15.620453     6A    -15.587774
       7A    -15.540093     8A    -11.369037     9A    -11.344316
      10A    -11.329720    11A    -11.317393    12A    -11.303153
      13A    -11.298448    14A    -11.295607    15A    -11.237138
      16A    -11.236235    17A     -1.412350    18A     -1.381645
      19A     -1.374124    20A     -1.364890    21A     -1.291343
      22A     -1.260135    23A     -1.168334    24A     -1.077954
      25A     -1.068429    26A     -1.027033    27A     -0.925955
      28A     -0.896560    29A     -0.869274    30A     -0.830240
      31A     -0.806232    32A     -0.753669    33A     -0.737367
      34A     -0.720763    35A     -0.706375    36A     -0.693342
      37A     -0.689306    38A     -0.674586    39A     -0.655153
      40A     -0.635899    41A     -0.626819    42A     -0.617737
      43A     -0.604036    44A     -0.593884    45A     -0.588365
      46A     -0.571812    47A     -0.567691    48A     -0.547546
      49A     -0.532416    50A     -0.526065    51A     -0.510393
      52A     -0.487757    53A     -0.481497    54A     -0.468700
      55A     -0.460190    56A     -0.443960    57A     -0.438083
      58A     -0.415517    59A     -0.382981    60A     -0.334166

  @DF-RHF Final Energy:  -811.47744610392988

   => Energetics <=

    Nuclear Repulsion Energy =           1169.1509130180313605
    One-Electron Energy =               -3433.3976121192372375
    Two-Electron Energy =                1452.7692529972762259
    Total Energy =                       -811.4774461039298785
  Basis Set: (AUG-CC-PVTZ AUX)
    Blend: AUG-CC-PVTZ-RI
    Molecular point group: c1

    Geometry (in Angstrom), charge = 0, multiplicity = 1:

       Center              X                  Y                   Z               Mass
    ------------   -----------------  -----------------  -----------------  -----------------
         O            1.348795671704    -0.382527093858    -0.950052720445    15.994914619570
         O            3.204131371704     1.900352906142    -0.298319420445    15.994914619570
         O            2.801481371704    -2.749807093858    -0.399007420445    15.994914619570
         O           -1.360111628296     2.373144906142     0.155976579555    15.994914619570
         N           -0.796169628296     0.198557906142    -0.228062420445    14.003074004430
         N           -3.052097628296     0.804378906142     0.241205579555    14.003074004430
         N           -4.671335628296    -0.813295093858     0.413830579555    14.003074004430
         C            2.703669371704     0.874693906142     0.560667579555    12.000000000000
         C            1.220121971704     1.124849106142     0.892320179555    12.000000000000
         C            2.653893371704    -0.393151093858    -0.284276420445    12.000000000000
         C            0.576032371704     0.682143906142    -0.413722420445    12.000000000000
         C            2.804172371704    -1.660876093858     0.523663579555    12.000000000000
         C           -1.125262628296    -1.116679093858    -0.307082420445    12.000000000000
         C           -1.742613628296     1.203031906142     0.083238579555    12.000000000000
         C           -2.415232628296    -1.505421093858    -0.103348420445    12.000000000000
         C           -3.359917628296    -0.474020093858     0.169704579555    12.000000000000
         H            3.336455371704     0.755924906142     1.452046579555     1.007825032230
         H            0.906781371704     0.442968906142     1.694682579555     1.007825032230
         H            0.987403371704     2.133206906142     1.159340579555     1.007825032230
         H            0.529528371704     1.512393906142    -1.123719420445     1.007825032230
         H            3.419566371704    -0.365143093858    -1.065432420445     1.007825032230
         H            1.972823371704    -1.734044093858     1.244416579555     1.007825032230
         H            3.748163371704    -1.610375093858     1.089482579555     1.007825032230
         H            3.105925371704     2.745463906142     0.179176579555     1.007825032230
         H           -0.308665628296    -1.790061093858    -0.542504420445     1.007825032230
         H            2.912104371704    -3.565932093858     0.120405579555     1.007825032230
         H           -2.701393628296    -2.549944093858    -0.152056420445     1.007825032230
         H           -5.026636628296    -1.638602093858    -0.055525420445     1.007825032230
         H           -5.297396628296    -0.014658093858     0.387294579555     1.007825032230

  Basis Set: AUG-CC-PVTZ
    Blend: AUG-CC-PVTZ
  Basis Set: (AUG-CC-PVTZ AUX)
    Blend: AUG-CC-PVTZ-JKFIT
	 Reference Energy          =    -811.4774461039298785 [Eh]
	 Singles Energy            =      -0.0000000000000000 [Eh]
	 Same-Spin Energy          =      -0.8296770680622462 [Eh]
	 Opposite-Spin Energy      =      -2.5257468746179175 [Eh]
	 Correlation Energy        =      -3.3554239426801638 [Eh]
	 Total Energy              =    -814.8328700466100827 [Eh]

	 ================> DF-SCS-MP2 Energies <==================
	-----------------------------------------------------------
	 SCS Same-Spin Scale       =       0.3333333333333333 [-]
	 SCS Opposite-Spin Scale   =       1.2000000000000000 [-]
	 SCS Same-Spin Energy      =      -0.2765590226874154 [Eh]
	 SCS Opposite-Spin Energy  =      -3.0308962495415011 [Eh]
	 SCS Correlation Energy    =      -3.3074552722289163 [Eh]
	 SCS Total Energy          =    -814.7849013761588139 [Eh]
	-----------------------------------------------------------

  Dipole Moment: [D]
     X:     1.2008      Y:    -4.6797      Z:     2.5325     Total:     5.4548

*** Psi4 exiting successfully. Buy a developer a beer!
