                               Psi4 1.3.2 release

  ==> Input File <==

--------------------------------------------------------------------------
#psi4
#
memory 32 gb

molecule  {
0 1
  O        1.3620710    -0.3800110    -0.9318440
  O        3.2020570     1.9012130    -0.2995130
  O        2.7994070    -2.7489470    -0.4002010
  O       -1.3621860     2.3740050     0.1547830
  N       -0.7982440     0.1994180    -0.2292560
  N       -3.0541720     0.8052390     0.2400120
  N       -4.6734100    -0.8124350     0.4126370
  C        2.7015950     0.8755540     0.5594740
  C        1.2368440     1.1072260     0.8878520
  C        2.6518190    -0.3922910    -0.2854700
  C        0.6175106     0.7108761    -0.3293221
  C        2.8020980    -1.6600160     0.5224700
  C       -1.1273370    -1.1158190    -0.3082760
  C       -1.7446880     1.2038920     0.0820450
  C       -2.4173070    -1.5045610    -0.1045420
  C       -3.3619920    -0.4731600     0.1685110
  H        3.3343810     0.7567850     1.4508530
  H        0.9047070     0.4438290     1.6934890
  H        0.9853290     2.1340670     1.1581470
  H        0.5274540     1.5132540    -1.1249130
  H        3.4174920    -0.3642830    -1.0666260
  H        1.9707490    -1.7331840     1.2432230
  H        3.7460890    -1.6095150     1.0882890
  H        3.1038510     2.7463240     0.1779830
  H       -0.3107400    -1.7892010    -0.5436980
  H        2.9100300    -3.5650720     0.1192120
  H       -2.7034680    -2.5490840    -0.1532500
  H       -5.0287110    -1.6377420    -0.0567190
  H       -5.2994710    -0.0137980     0.3861010
units angstrom
no_reorient  #important for SAPT in psi4, default
symmetry c1  #important for SAPT in psi4, default
}

set PROPERTIES_ORIGIN ["COM"]
properties('MP2/aug-cc-pvtz', properties = ['dipole'])
--------------------------------------------------------------------------

    Molecular point group: c1
  Charge       = 0
  Multiplicity = 1
  Basis Set: AUG-CC-PVTZ
    Blend: AUG-CC-PVTZ
  Basis Set: (AUG-CC-PVTZ AUX)
    Blend: AUG-CC-PVTZ-JKFIT

    Orbital Energies [Eh]
    ---------------------

    Doubly Occupied:

       1A    -20.577860     2A    -20.576950     3A    -20.573009
       4A    -20.501448     5A    -15.619257     6A    -15.587173
       7A    -15.539007     8A    -11.367560     9A    -11.343580
      10A    -11.334253    11A    -11.316610    12A    -11.305014
      13A    -11.296873    14A    -11.292023    15A    -11.236984
      16A    -11.235387    17A     -1.412467    18A     -1.380827
      19A     -1.374655    20A     -1.364392    21A     -1.289866
      22A     -1.256182    23A     -1.166876    24A     -1.095028
      25A     -1.065965    26A     -1.033908    27A     -0.925477
      28A     -0.895196    29A     -0.867921    30A     -0.826489
      31A     -0.808942    32A     -0.751828    33A     -0.738280
      34A     -0.721599    35A     -0.706899    36A     -0.694270
      37A     -0.689746    38A     -0.673288    39A     -0.653725
      40A     -0.636448    41A     -0.627906    42A     -0.616346
      43A     -0.603498    44A     -0.594960    45A     -0.589459
      46A     -0.571864    47A     -0.561956    48A     -0.546856
      49A     -0.535529    50A     -0.528970    51A     -0.510690
      52A     -0.488824    53A     -0.482143    54A     -0.469051
      55A     -0.463370    56A     -0.444971    57A     -0.435927
      58A     -0.413378    59A     -0.383267    60A     -0.334207

  @DF-RHF Final Energy:  -811.46541158887749

   => Energetics <=

    Nuclear Repulsion Energy =           1170.2852697713626640
    One-Electron Energy =               -3435.6285005780446227
    Two-Electron Energy =                1453.8778192178046993
    Total Energy =                       -811.4654115888774868
  Basis Set: (AUG-CC-PVTZ AUX)
    Blend: AUG-CC-PVTZ-RI
    Molecular point group: c1

    Geometry (in Angstrom), charge = 0, multiplicity = 1:

       Center              X                  Y                   Z               Mass
    ------------   -----------------  -----------------  -----------------  -----------------
         O            1.359769562599    -0.381483864157    -0.936366948114    15.994914619570
         O            3.199755562599     1.899740135843    -0.304035948114    15.994914619570
         O            2.797105562599    -2.750419864157    -0.404723948114    15.994914619570
         O           -1.364487437401     2.372532135843     0.150260051886    15.994914619570
         N           -0.800545437401     0.197945135843    -0.233778948114    14.003074004430
         N           -3.056473437401     0.803766135843     0.235489051886    14.003074004430
         N           -4.675711437401    -0.813907864157     0.408114051886    14.003074004430
         C            2.699293562599     0.874081135843     0.554951051886    12.000000000000
         C            1.234542562599     1.105753135843     0.883329051886    12.000000000000
         C            2.649517562599    -0.393763864157    -0.289992948114    12.000000000000
         C            0.615209162599     0.709403235843    -0.333845048114    12.000000000000
         C            2.799796562599    -1.661488864157     0.517947051886    12.000000000000
         C           -1.129638437401    -1.117291864157    -0.312798948114    12.000000000000
         C           -1.746989437401     1.202419135843     0.077522051886    12.000000000000
         C           -2.419608437401    -1.506033864157    -0.109064948114    12.000000000000
         C           -3.364293437401    -0.474632864157     0.163988051886    12.000000000000
         H            3.332079562599     0.755312135843     1.446330051886     1.007825032230
         H            0.902405562599     0.442356135843     1.688966051886     1.007825032230
         H            0.983027562599     2.132594135843     1.153624051886     1.007825032230
         H            0.525152562599     1.511781135843    -1.129435948114     1.007825032230
         H            3.415190562599    -0.365755864157    -1.071148948114     1.007825032230
         H            1.968447562599    -1.734656864157     1.238700051886     1.007825032230
         H            3.743787562599    -1.610987864157     1.083766051886     1.007825032230
         H            3.101549562599     2.744851135843     0.173460051886     1.007825032230
         H           -0.313041437401    -1.790673864157    -0.548220948114     1.007825032230
         H            2.907728562599    -3.566544864157     0.114689051886     1.007825032230
         H           -2.705769437401    -2.550556864157    -0.157772948114     1.007825032230
         H           -5.031012437401    -1.639214864157    -0.061241948114     1.007825032230
         H           -5.301772437401    -0.015270864157     0.381578051886     1.007825032230

  Basis Set: AUG-CC-PVTZ
    Blend: AUG-CC-PVTZ
  Basis Set: (AUG-CC-PVTZ AUX)
    Blend: AUG-CC-PVTZ-JKFIT
	 Reference Energy          =    -811.4654115888774868 [Eh]
	 Singles Energy            =      -0.0000000000000000 [Eh]
	 Same-Spin Energy          =      -0.8309413161204602 [Eh]
	 Opposite-Spin Energy      =      -2.5273660356374279 [Eh]
	 Correlation Energy        =      -3.3583073517578881 [Eh]
	 Total Energy              =    -814.8237189406353309 [Eh]

	 ================> DF-SCS-MP2 Energies <==================
	-----------------------------------------------------------
	 SCS Same-Spin Scale       =       0.3333333333333333 [-]
	 SCS Opposite-Spin Scale   =       1.2000000000000000 [-]
	 SCS Same-Spin Energy      =      -0.2769804387068200 [Eh]
	 SCS Opposite-Spin Energy  =      -3.0328392427649136 [Eh]
	 SCS Correlation Energy    =      -3.3098196814717338 [Eh]
	 SCS Total Energy          =    -814.7752312703491953 [Eh]
	-----------------------------------------------------------

  Dipole Moment: [D]
     X:     1.2708      Y:    -4.5737      Z:     2.6492     Total:     5.4362

*** Psi4 exiting successfully. Buy a developer a beer!
