                               Psi4 1.3.2 release

  ==> Input File <==

--------------------------------------------------------------------------
#psi4
#
memory 32 gb

molecule  {
0 1
  O        1.3620710    -0.3800110    -0.9318440
  O        3.2020570     1.9012130    -0.2995130
  O        2.7994070    -2.7489470    -0.4002010
  O       -1.3621860     2.3740050     0.1547830
  N       -0.7982440     0.1994180    -0.2292560
  N       -3.0541720     0.8052390     0.2400120
  N       -4.6734100    -0.8124350     0.4126370
  C        2.7015950     0.8755540     0.5594740
  C        1.2368440     1.1072260     0.8878520
  C        2.6518190    -0.3922910    -0.2854700
  C        0.5739580     0.6830040    -0.4149160
  C        2.8020980    -1.6600160     0.5224700
  C       -1.1273370    -1.1158190    -0.3082760
  C       -1.6826536     1.3936618     0.0938417
  C       -2.4173070    -1.5045610    -0.1045420
  C       -3.3619920    -0.4731600     0.1685110
  H        3.3343810     0.7567850     1.4508530
  H        0.9047070     0.4438290     1.6934890
  H        0.9853290     2.1340670     1.1581470
  H        0.5274540     1.5132540    -1.1249130
  H        3.4174920    -0.3642830    -1.0666260
  H        1.9707490    -1.7331840     1.2432230
  H        3.7460890    -1.6095150     1.0882890
  H        3.1038510     2.7463240     0.1779830
  H       -0.3107400    -1.7892010    -0.5436980
  H        2.9100300    -3.5650720     0.1192120
  H       -2.7034680    -2.5490840    -0.1532500
  H       -5.0287110    -1.6377420    -0.0567190
  H       -5.2994710    -0.0137980     0.3861010
units angstrom
no_reorient  #important for SAPT in psi4, default
symmetry c1  #important for SAPT in psi4, default
}

set PROPERTIES_ORIGIN ["COM"]
properties('MP2/aug-cc-pvtz', properties = ['dipole'])
--------------------------------------------------------------------------

    Molecular point group: c1
  Charge       = 0
  Multiplicity = 1
  Basis Set: AUG-CC-PVTZ
    Blend: AUG-CC-PVTZ
  Basis Set: (AUG-CC-PVTZ AUX)
    Blend: AUG-CC-PVTZ-JKFIT

    Orbital Energies [Eh]
    ---------------------

    Doubly Occupied:

       1A    -20.576553     2A    -20.575309     3A    -20.568711
       4A    -20.561568     5A    -15.596081     6A    -15.572035
       7A    -15.521273     8A    -11.374270     9A    -11.325920
      10A    -11.325015    11A    -11.302980    12A    -11.302149
      13A    -11.294770    14A    -11.291250    15A    -11.239501
      16A    -11.216737    17A     -1.546128    18A     -1.410026
      19A     -1.373378    20A     -1.366871    21A     -1.278818
      22A     -1.240416    23A     -1.131488    24A     -1.077115
      25A     -1.058084    26A     -1.016584    27A     -0.918823
      28A     -0.879778    29A     -0.849252    30A     -0.819751
      31A     -0.801705    32A     -0.749251    33A     -0.734671
      34A     -0.724092    35A     -0.713220    36A     -0.694769
      37A     -0.690114    38A     -0.680233    39A     -0.667450
      40A     -0.661688    41A     -0.647740    42A     -0.629457
      43A     -0.603180    44A     -0.602292    45A     -0.583469
      46A     -0.572621    47A     -0.569017    48A     -0.550095
      49A     -0.541262    50A     -0.522645    51A     -0.521759
      52A     -0.489828    53A     -0.487645    54A     -0.483503
      55A     -0.466615    56A     -0.456877    57A     -0.434631
      58A     -0.374271    59A     -0.367192    60A     -0.319356

  @DF-RHF Final Energy:  -811.39768958124660

   => Energetics <=

    Nuclear Repulsion Energy =           1169.7311423316739365
    One-Electron Energy =               -3434.3550961809100954
    Two-Electron Energy =                1453.2262642679897908
    Total Energy =                       -811.3976895812465955
  Basis Set: (AUG-CC-PVTZ AUX)
    Blend: AUG-CC-PVTZ-RI
    Molecular point group: c1

    Geometry (in Angstrom), charge = 0, multiplicity = 1:

       Center              X                  Y                   Z               Mass
    ------------   -----------------  -----------------  -----------------  -----------------
         O            1.358792940959    -0.390038918173    -0.932467331058    15.994914619570
         O            3.198778940959     1.891185081827    -0.300136331058    15.994914619570
         O            2.796128940959    -2.758974918173    -0.400824331058    15.994914619570
         O           -1.365464059041     2.363977081827     0.154159668942    15.994914619570
         N           -0.801522059041     0.189390081827    -0.229879331058    14.003074004430
         N           -3.057450059041     0.795211081827     0.239388668942    14.003074004430
         N           -4.676688059041    -0.822462918173     0.412013668942    14.003074004430
         C            2.698316940959     0.865526081827     0.558850668942    12.000000000000
         C            1.233565940959     1.097198081827     0.887228668942    12.000000000000
         C            2.648540940959    -0.402318918173    -0.286093331058    12.000000000000
         C            0.570679940959     0.672976081827    -0.415539331058    12.000000000000
         C            2.798819940959    -1.670043918173     0.521846668942    12.000000000000
         C           -1.130615059041    -1.125846918173    -0.308899331058    12.000000000000
         C           -1.685931659041     1.383633881827     0.093218368942    12.000000000000
         C           -2.420585059041    -1.514588918173    -0.105165331058    12.000000000000
         C           -3.365270059041    -0.483187918173     0.167887668942    12.000000000000
         H            3.331102940959     0.746757081827     1.450229668942     1.007825032230
         H            0.901428940959     0.433801081827     1.692865668942     1.007825032230
         H            0.982050940959     2.124039081827     1.157523668942     1.007825032230
         H            0.524175940959     1.503226081827    -1.125536331058     1.007825032230
         H            3.414213940959    -0.374310918173    -1.067249331058     1.007825032230
         H            1.967470940959    -1.743211918173     1.242599668942     1.007825032230
         H            3.742810940959    -1.619542918173     1.087665668942     1.007825032230
         H            3.100572940959     2.736296081827     0.177359668942     1.007825032230
         H           -0.314018059041    -1.799228918173    -0.544321331058     1.007825032230
         H            2.906751940959    -3.575099918173     0.118588668942     1.007825032230
         H           -2.706746059041    -2.559111918173    -0.153873331058     1.007825032230
         H           -5.031989059041    -1.647769918173    -0.057342331058     1.007825032230
         H           -5.302749059041    -0.023825918173     0.385477668942     1.007825032230

  Basis Set: AUG-CC-PVTZ
    Blend: AUG-CC-PVTZ
  Basis Set: (AUG-CC-PVTZ AUX)
    Blend: AUG-CC-PVTZ-JKFIT
	 Reference Energy          =    -811.3976895812465955 [Eh]
	 Singles Energy            =      -0.0000000000000000 [Eh]
	 Same-Spin Energy          =      -0.8270362779934707 [Eh]
	 Opposite-Spin Energy      =      -2.5216911493382757 [Eh]
	 Correlation Energy        =      -3.3487274273317462 [Eh]
	 Total Energy              =    -814.7464170085783053 [Eh]

	 ================> DF-SCS-MP2 Energies <==================
	-----------------------------------------------------------
	 SCS Same-Spin Scale       =       0.3333333333333333 [-]
	 SCS Opposite-Spin Scale   =       1.2000000000000000 [-]
	 SCS Same-Spin Energy      =      -0.2756787593311569 [Eh]
	 SCS Opposite-Spin Energy  =      -3.0260293792059305 [Eh]
	 SCS Correlation Energy    =      -3.3017081385370872 [Eh]
	 SCS Total Energy          =    -814.6993977197836330 [Eh]
	-----------------------------------------------------------

  Dipole Moment: [D]
     X:     1.8158      Y:    -2.5180      Z:     2.6093     Total:     4.0553

*** Psi4 exiting successfully. Buy a developer a beer!
