                               Psi4 1.3.2 release

  ==> Input File <==

--------------------------------------------------------------------------
#psi4
#
memory 32 gb

molecule  {
0 1
  O        1.3620710    -0.3800110    -0.9318440
  O        3.2020570     1.9012130    -0.2995130
  O        2.7994070    -2.7489470    -0.4002010
  O       -1.3621860     2.3740050     0.1547830
  N       -0.7982440     0.1994180    -0.2292560
  N       -3.0541720     0.8052390     0.2400120
  N       -4.6734100    -0.8124350     0.4126370
  C        2.7015950     0.8755540     0.5594740
  C        1.2368440     1.1072260     0.8878520
  C        2.6518190    -0.3922910    -0.2854700
  C        0.5739580     0.6830040    -0.4149160
  C        2.8020980    -1.6600160     0.5224700
  C       -1.1273370    -1.1158190    -0.3082760
  C       -1.7446880     1.2038920     0.0820450
  C       -2.4173070    -1.5045610    -0.1045420
  C       -3.2667143    -0.4485108     0.1507747
  H        3.3343810     0.7567850     1.4508530
  H        0.9047070     0.4438290     1.6934890
  H        0.9853290     2.1340670     1.1581470
  H        0.5274540     1.5132540    -1.1249130
  H        3.4174920    -0.3642830    -1.0666260
  H        1.9707490    -1.7331840     1.2432230
  H        3.7460890    -1.6095150     1.0882890
  H        3.1038510     2.7463240     0.1779830
  H       -0.3107400    -1.7892010    -0.5436980
  H        2.9100300    -3.5650720     0.1192120
  H       -2.7034680    -2.5490840    -0.1532500
  H       -5.0287110    -1.6377420    -0.0567190
  H       -5.2994710    -0.0137980     0.3861010
units angstrom
no_reorient  #important for SAPT in psi4, default
symmetry c1  #important for SAPT in psi4, default
}

set PROPERTIES_ORIGIN ["COM"]
properties('MP2/aug-cc-pvtz', properties = ['dipole'])
--------------------------------------------------------------------------

    Molecular point group: c1
  Charge       = 0
  Multiplicity = 1
  Basis Set: AUG-CC-PVTZ
    Blend: AUG-CC-PVTZ
  Basis Set: (AUG-CC-PVTZ AUX)
    Blend: AUG-CC-PVTZ-JKFIT

    Orbital Energies [Eh]
    ---------------------

    Doubly Occupied:

       1A    -20.579782     2A    -20.576817     3A    -20.576347
       4A    -20.508919     5A    -15.629255     6A    -15.570113
       7A    -15.548218     8A    -11.375001     9A    -11.339873
      10A    -11.335257    11A    -11.323650    12A    -11.303648
      13A    -11.299161    14A    -11.295791    15A    -11.240314
      16A    -11.237479    17A     -1.420806    18A     -1.389523
      19A     -1.375808    20A     -1.368830    21A     -1.297926
      22A     -1.255206    23A     -1.156197    24A     -1.087096
      25A     -1.074942    26A     -1.032961    27A     -0.929976
      28A     -0.905411    29A     -0.870742    30A     -0.832626
      31A     -0.809246    32A     -0.752699    33A     -0.744773
      34A     -0.723581    35A     -0.700876    36A     -0.693808
      37A     -0.681181    38A     -0.668207    39A     -0.656010
      40A     -0.644743    41A     -0.633172    42A     -0.619375
      43A     -0.607841    44A     -0.594492    45A     -0.590545
      46A     -0.572603    47A     -0.569208    48A     -0.546889
      49A     -0.528194    50A     -0.527444    51A     -0.507495
      52A     -0.488681    53A     -0.486985    54A     -0.470764
      55A     -0.463687    56A     -0.456869    57A     -0.440445
      58A     -0.422976    59A     -0.387847    60A     -0.340962

  @DF-RHF Final Energy:  -811.46657438590807

   => Energetics <=

    Nuclear Repulsion Energy =           1171.4448585455377270
    One-Electron Energy =               -3437.6843161914321172
    Two-Electron Energy =                1454.7728832599866564
    Total Energy =                       -811.4665743859079612
  Basis Set: (AUG-CC-PVTZ AUX)
    Blend: AUG-CC-PVTZ-RI
    Molecular point group: c1

    Geometry (in Angstrom), charge = 0, multiplicity = 1:

       Center              X                  Y                   Z               Mass
    ------------   -----------------  -----------------  -----------------  -----------------
         O            1.357036287053    -0.381313558566    -0.930906738102    15.994914619570
         O            3.197022287053     1.899910441434    -0.298575738102    15.994914619570
         O            2.794372287053    -2.750249558566    -0.399263738102    15.994914619570
         O           -1.367220712947     2.372702441434     0.155720261898    15.994914619570
         N           -0.803278712947     0.198115441434    -0.228318738102    14.003074004430
         N           -3.059206712947     0.803936441434     0.240949261898    14.003074004430
         N           -4.678444712947    -0.813737558566     0.413574261898    14.003074004430
         C            2.696560287053     0.874251441434     0.560411261898    12.000000000000
         C            1.231809287053     1.105923441434     0.888789261898    12.000000000000
         C            2.646784287053    -0.393593558566    -0.284532738102    12.000000000000
         C            0.568923287053     0.681701441434    -0.413978738102    12.000000000000
         C            2.797063287053    -1.661318558566     0.523407261898    12.000000000000
         C           -1.132371712947    -1.117121558566    -0.307338738102    12.000000000000
         C           -1.749722712947     1.202589441434     0.082982261898    12.000000000000
         C           -2.422341712947    -1.505863558566    -0.103604738102    12.000000000000
         C           -3.271749012947    -0.449813358566     0.151711961898    12.000000000000
         H            3.329346287053     0.755482441434     1.451790261898     1.007825032230
         H            0.899672287053     0.442526441434     1.694426261898     1.007825032230
         H            0.980294287053     2.132764441434     1.159084261898     1.007825032230
         H            0.522419287053     1.511951441434    -1.123975738102     1.007825032230
         H            3.412457287053    -0.365585558566    -1.065688738102     1.007825032230
         H            1.965714287053    -1.734486558566     1.244160261898     1.007825032230
         H            3.741054287053    -1.610817558566     1.089226261898     1.007825032230
         H            3.098816287053     2.745021441434     0.178920261898     1.007825032230
         H           -0.315774712947    -1.790503558566    -0.542760738102     1.007825032230
         H            2.904995287053    -3.566374558566     0.120149261898     1.007825032230
         H           -2.708502712947    -2.550386558566    -0.152312738102     1.007825032230
         H           -5.033745712947    -1.639044558566    -0.055781738102     1.007825032230
         H           -5.304505712947    -0.015100558566     0.387038261898     1.007825032230

  Basis Set: AUG-CC-PVTZ
    Blend: AUG-CC-PVTZ
  Basis Set: (AUG-CC-PVTZ AUX)
    Blend: AUG-CC-PVTZ-JKFIT
	 Reference Energy          =    -811.4665743859080749 [Eh]
	 Singles Energy            =      -0.0000000000000000 [Eh]
	 Same-Spin Energy          =      -0.8298724788758622 [Eh]
	 Opposite-Spin Energy      =      -2.5259245768323217 [Eh]
	 Correlation Energy        =      -3.3557970557081838 [Eh]
	 Total Energy              =    -814.8223714416162693 [Eh]

	 ================> DF-SCS-MP2 Energies <==================
	-----------------------------------------------------------
	 SCS Same-Spin Scale       =       0.3333333333333333 [-]
	 SCS Opposite-Spin Scale   =       1.2000000000000000 [-]
	 SCS Same-Spin Energy      =      -0.2766241596252874 [Eh]
	 SCS Opposite-Spin Energy  =      -3.0311094921987860 [Eh]
	 SCS Correlation Energy    =      -3.3077336518240736 [Eh]
	 SCS Total Energy          =    -814.7743080377321121 [Eh]
	-----------------------------------------------------------

  Dipole Moment: [D]
     X:     2.0394      Y:    -4.3935      Z:     2.3586     Total:     5.3875

*** Psi4 exiting successfully. Buy a developer a beer!
