                               Psi4 1.3.2 release

  ==> Input File <==

--------------------------------------------------------------------------
#psi4
#
memory 32 gb

molecule  {
0 1
  O        1.3014634    -0.4230974    -0.9302927
  O        3.2020570     1.9012130    -0.2995130
  O        2.7994070    -2.7489470    -0.4002010
  O       -1.3621860     2.3740050     0.1547830
  N       -0.7755605     0.1309924    -0.2557108
  N       -3.0541720     0.8052390     0.2400120
  N       -4.6734100    -0.8124350     0.4126370
  C        2.7015950     0.8755540     0.5594740
  C        1.2368440     1.1072260     0.8878520
  C        2.6518190    -0.3922910    -0.2854700
  C        0.5739580     0.6830040    -0.4149160
  C        2.8020980    -1.6600160     0.5224700
  C       -1.1273370    -1.1158190    -0.3082760
  C       -1.7446880     1.2038920     0.0820450
  C       -2.4173070    -1.5045610    -0.1045420
  C       -3.3619920    -0.4731600     0.1685110
  H        3.3343810     0.7567850     1.4508530
  H        0.9047070     0.4438290     1.6934890
  H        0.9853290     2.1340670     1.1581470
  H        0.5274540     1.5132540    -1.1249130
  H        3.4174920    -0.3642830    -1.0666260
  H        1.9707490    -1.7331840     1.2432230
  H        3.7460890    -1.6095150     1.0882890
  H        3.1038510     2.7463240     0.1779830
  H       -0.3107400    -1.7892010    -0.5436980
  H        2.9100300    -3.5650720     0.1192120
  H       -2.7034680    -2.5490840    -0.1532500
  H       -5.0287110    -1.6377420    -0.0567190
  H       -5.2994710    -0.0137980     0.3861010
units angstrom
no_reorient  #important for SAPT in psi4, default
symmetry c1  #important for SAPT in psi4, default
}

set PROPERTIES_ORIGIN ["COM"]
properties('MP2/aug-cc-pvtz', properties = ['dipole'])
--------------------------------------------------------------------------

    Molecular point group: c1
  Charge       = 0
  Multiplicity = 1
  Basis Set: AUG-CC-PVTZ
    Blend: AUG-CC-PVTZ
  Basis Set: (AUG-CC-PVTZ AUX)
    Blend: AUG-CC-PVTZ-JKFIT

    Orbital Energies [Eh]
    ---------------------

    Doubly Occupied:

       1A    -20.578434     2A    -20.577819     3A    -20.573379
       4A    -20.512763     5A    -15.620537     6A    -15.584511
       7A    -15.538378     8A    -11.376882     9A    -11.340848
      10A    -11.332260    11A    -11.308345    12A    -11.305944
      13A    -11.299318    14A    -11.298488    15A    -11.240836
      16A    -11.225553    17A     -1.410760    18A     -1.381634
      19A     -1.375345    20A     -1.365205    21A     -1.295261
      22A     -1.263304    23A     -1.167089    24A     -1.082322
      25A     -1.067934    26A     -1.022825    27A     -0.928673
      28A     -0.890394    29A     -0.867945    30A     -0.829797
      31A     -0.807089    32A     -0.750369    33A     -0.741171
      34A     -0.720914    35A     -0.704864    36A     -0.693262
      37A     -0.690221    38A     -0.673258    39A     -0.650456
      40A     -0.635632    41A     -0.626765    42A     -0.618046
      43A     -0.601587    44A     -0.589921    45A     -0.586953
      46A     -0.579050    47A     -0.566331    48A     -0.544571
      49A     -0.531321    50A     -0.522465    51A     -0.512017
      52A     -0.495003    53A     -0.490266    54A     -0.469915
      55A     -0.465996    56A     -0.447898    57A     -0.439474
      58A     -0.412039    59A     -0.382955    60A     -0.326858

  @DF-RHF Final Energy:  -811.46532988427305

   => Energetics <=

    Nuclear Repulsion Energy =           1169.4520072368120509
    One-Electron Energy =               -3433.9557783134891906
    Two-Electron Energy =                1453.0384411924042070
    Total Energy =                       -811.4653298842731601
  Basis Set: (AUG-CC-PVTZ AUX)
    Blend: AUG-CC-PVTZ-RI
    Molecular point group: c1

    Geometry (in Angstrom), charge = 0, multiplicity = 1:

       Center              X                  Y                   Z               Mass
    ------------   -----------------  -----------------  -----------------  -----------------
         O            1.304333492498    -0.415843363184    -0.928770649442    15.994914619570
         O            3.204927092498     1.908467036816    -0.297990949442    15.994914619570
         O            2.802277092498    -2.741692963184    -0.398678949442    15.994914619570
         O           -1.359315907502     2.381259036816     0.156305050558    15.994914619570
         N           -0.772690407502     0.138246436816    -0.254188749442    14.003074004430
         N           -3.051301907502     0.812493036816     0.241534050558    14.003074004430
         N           -4.670539907502    -0.805180963184     0.414159050558    14.003074004430
         C            2.704465092498     0.882808036816     0.560996050558    12.000000000000
         C            1.239714092498     1.114480036816     0.889374050558    12.000000000000
         C            2.654689092498    -0.385036963184    -0.283947949442    12.000000000000
         C            0.576828092498     0.690258036816    -0.413393949442    12.000000000000
         C            2.804968092498    -1.652761963184     0.523992050558    12.000000000000
         C           -1.124466907502    -1.108564963184    -0.306753949442    12.000000000000
         C           -1.741817907502     1.211146036816     0.083567050558    12.000000000000
         C           -2.414436907502    -1.497306963184    -0.103019949442    12.000000000000
         C           -3.359121907502    -0.465905963184     0.170033050558    12.000000000000
         H            3.337251092498     0.764039036816     1.452375050558     1.007825032230
         H            0.907577092498     0.451083036816     1.695011050558     1.007825032230
         H            0.988199092498     2.141321036816     1.159669050558     1.007825032230
         H            0.530324092498     1.520508036816    -1.123390949442     1.007825032230
         H            3.420362092498    -0.357028963184    -1.065103949442     1.007825032230
         H            1.973619092498    -1.725929963184     1.244745050558     1.007825032230
         H            3.748959092498    -1.602260963184     1.089811050558     1.007825032230
         H            3.106721092498     2.753578036816     0.179505050558     1.007825032230
         H           -0.307869907502    -1.781946963184    -0.542175949442     1.007825032230
         H            2.912900092498    -3.557817963184     0.120734050558     1.007825032230
         H           -2.700597907502    -2.541829963184    -0.151727949442     1.007825032230
         H           -5.025840907502    -1.630487963184    -0.055196949442     1.007825032230
         H           -5.296600907502    -0.006543963184     0.387623050558     1.007825032230

  Basis Set: AUG-CC-PVTZ
    Blend: AUG-CC-PVTZ
  Basis Set: (AUG-CC-PVTZ AUX)
    Blend: AUG-CC-PVTZ-JKFIT
	 Reference Energy          =    -811.4653298842730464 [Eh]
	 Singles Energy            =      -0.0000000000000000 [Eh]
	 Same-Spin Energy          =      -0.8309796952471736 [Eh]
	 Opposite-Spin Energy      =      -2.5278095160164065 [Eh]
	 Correlation Energy        =      -3.3587892112635802 [Eh]
	 Total Energy              =    -814.8241190955366164 [Eh]

	 ================> DF-SCS-MP2 Energies <==================
	-----------------------------------------------------------
	 SCS Same-Spin Scale       =       0.3333333333333333 [-]
	 SCS Opposite-Spin Scale   =       1.2000000000000000 [-]
	 SCS Same-Spin Energy      =      -0.2769932317490579 [Eh]
	 SCS Opposite-Spin Energy  =      -3.0333714192196877 [Eh]
	 SCS Correlation Energy    =      -3.3103646509687454 [Eh]
	 SCS Total Energy          =    -814.7756945352417688 [Eh]
	-----------------------------------------------------------

  Dipole Moment: [D]
     X:     1.5215      Y:    -4.2391      Z:     2.5501     Total:     5.1757

*** Psi4 exiting successfully. Buy a developer a beer!
