                               Psi4 1.3.2 release

  ==> Input File <==

--------------------------------------------------------------------------
#psi4
#
memory 32 gb

molecule  {
0 1
  O        1.3620710    -0.3800110    -0.9318440
  O        3.2020570     1.9012130    -0.2995130
  O        2.7994070    -2.7489470    -0.4002010
  O       -1.3621860     2.3740050     0.1547830
  N       -0.8072337     0.1909579    -0.2290444
  N       -3.0509341     0.7938839     0.2377394
  N       -4.6734100    -0.8124350     0.4126370
  C        2.7015950     0.8755540     0.5594740
  C        1.2368440     1.1072260     0.8878520
  C        2.6518190    -0.3922910    -0.2854700
  C        0.5739580     0.6830040    -0.4149160
  C        2.8020980    -1.6600160     0.5224700
  C       -1.1273370    -1.1158190    -0.3082760
  C       -1.7446880     1.2038920     0.0820450
  C       -2.4173070    -1.5045610    -0.1045420
  C       -3.3619920    -0.4731600     0.1685110
  H        3.3343810     0.7567850     1.4508530
  H        0.9047070     0.4438290     1.6934890
  H        0.9853290     2.1340670     1.1581470
  H        0.5274540     1.5132540    -1.1249130
  H        3.4174920    -0.3642830    -1.0666260
  H        1.9707490    -1.7331840     1.2432230
  H        3.7460890    -1.6095150     1.0882890
  H        3.1038510     2.7463240     0.1779830
  H       -0.3107400    -1.7892010    -0.5436980
  H        2.9100300    -3.5650720     0.1192120
  H       -2.7034680    -2.5490840    -0.1532500
  H       -5.0287110    -1.6377420    -0.0567190
  H       -5.2994710    -0.0137980     0.3861010
units angstrom
no_reorient  #important for SAPT in psi4, default
symmetry c1  #important for SAPT in psi4, default
}

set PROPERTIES_ORIGIN ["COM"]
properties('MP2/aug-cc-pvtz', properties = ['dipole'])
--------------------------------------------------------------------------

    Molecular point group: c1
  Charge       = 0
  Multiplicity = 1
  Basis Set: AUG-CC-PVTZ
    Blend: AUG-CC-PVTZ
  Basis Set: (AUG-CC-PVTZ AUX)
    Blend: AUG-CC-PVTZ-JKFIT

    Orbital Energies [Eh]
    ---------------------

    Doubly Occupied:

       1A    -20.577852     2A    -20.574784     3A    -20.573240
       4A    -20.504982     5A    -15.621804     6A    -15.586773
       7A    -15.539127     8A    -11.371213     9A    -11.342646
      10A    -11.332006    11A    -11.316385    12A    -11.301352
      13A    -11.297039    14A    -11.293378    15A    -11.237550
      16A    -11.235039    17A     -1.416814    18A     -1.383339
      19A     -1.373810    20A     -1.366111    21A     -1.294393
      22A     -1.262152    23A     -1.169749    24A     -1.078927
      25A     -1.068498    26A     -1.028138    27A     -0.926590
      28A     -0.897933    29A     -0.870196    30A     -0.831027
      31A     -0.806417    32A     -0.754014    33A     -0.739252
      34A     -0.721246    35A     -0.706530    36A     -0.692907
      37A     -0.689439    38A     -0.675756    39A     -0.656475
      40A     -0.636981    41A     -0.628409    42A     -0.618691
      43A     -0.605147    44A     -0.594989    45A     -0.589547
      46A     -0.572614    47A     -0.569033    48A     -0.545077
      49A     -0.532633    50A     -0.523982    51A     -0.510772
      52A     -0.486441    53A     -0.483329    54A     -0.468747
      55A     -0.461766    56A     -0.445235    57A     -0.437900
      58A     -0.415158    59A     -0.384563    60A     -0.334009

  @DF-RHF Final Energy:  -811.47944781707679

   => Energetics <=

    Nuclear Repulsion Energy =           1170.1918566676042701
    One-Electron Energy =               -3435.4227938975318466
    Two-Electron Energy =                1453.7514894128510150
    Total Energy =                       -811.4794478170767889
  Basis Set: (AUG-CC-PVTZ AUX)
    Blend: AUG-CC-PVTZ-RI
    Molecular point group: c1

    Geometry (in Angstrom), charge = 0, multiplicity = 1:

       Center              X                  Y                   Z               Mass
    ------------   -----------------  -----------------  -----------------  -----------------
         O            1.362425656974    -0.378789173597    -0.931716878458    15.994914619570
         O            3.202411656974     1.902434826403    -0.299385878458    15.994914619570
         O            2.799761656974    -2.747725173597    -0.400073878458    15.994914619570
         O           -1.361831343026     2.375226826403     0.154910121542    15.994914619570
         N           -0.806879043026     0.192179726403    -0.228917278458    14.003074004430
         N           -3.050579443026     0.795105726403     0.237866521542    14.003074004430
         N           -4.673055343026    -0.811213173597     0.412764121542    14.003074004430
         C            2.701949656974     0.876775826403     0.559601121542    12.000000000000
         C            1.237198656974     1.108447826403     0.887979121542    12.000000000000
         C            2.652173656974    -0.391069173597    -0.285342878458    12.000000000000
         C            0.574312656974     0.684225826403    -0.414788878458    12.000000000000
         C            2.802452656974    -1.658794173597     0.522597121542    12.000000000000
         C           -1.126982343026    -1.114597173597    -0.308148878458    12.000000000000
         C           -1.744333343026     1.205113826403     0.082172121542    12.000000000000
         C           -2.416952343026    -1.503339173597    -0.104414878458    12.000000000000
         C           -3.361637343026    -0.471938173597     0.168638121542    12.000000000000
         H            3.334735656974     0.758006826403     1.450980121542     1.007825032230
         H            0.905061656974     0.445050826403     1.693616121542     1.007825032230
         H            0.985683656974     2.135288826403     1.158274121542     1.007825032230
         H            0.527808656974     1.514475826403    -1.124785878458     1.007825032230
         H            3.417846656974    -0.363061173597    -1.066498878458     1.007825032230
         H            1.971103656974    -1.731962173597     1.243350121542     1.007825032230
         H            3.746443656974    -1.608293173597     1.088416121542     1.007825032230
         H            3.104205656974     2.747545826403     0.178110121542     1.007825032230
         H           -0.310385343026    -1.787979173597    -0.543570878458     1.007825032230
         H            2.910384656974    -3.563850173597     0.119339121542     1.007825032230
         H           -2.703113343026    -2.547862173597    -0.153122878458     1.007825032230
         H           -5.028356343026    -1.636520173597    -0.056591878458     1.007825032230
         H           -5.299116343026    -0.012576173597     0.386228121542     1.007825032230

  Basis Set: AUG-CC-PVTZ
    Blend: AUG-CC-PVTZ
  Basis Set: (AUG-CC-PVTZ AUX)
    Blend: AUG-CC-PVTZ-JKFIT
	 Reference Energy          =    -811.4794478170767889 [Eh]
	 Singles Energy            =      -0.0000000000000000 [Eh]
	 Same-Spin Energy          =      -0.8296767708033993 [Eh]
	 Opposite-Spin Energy      =      -2.5249575509061075 [Eh]
	 Correlation Energy        =      -3.3546343217095069 [Eh]
	 Total Energy              =    -814.8340821387862434 [Eh]

	 ================> DF-SCS-MP2 Energies <==================
	-----------------------------------------------------------
	 SCS Same-Spin Scale       =       0.3333333333333333 [-]
	 SCS Opposite-Spin Scale   =       1.2000000000000000 [-]
	 SCS Same-Spin Energy      =      -0.2765589236011331 [Eh]
	 SCS Opposite-Spin Energy  =      -3.0299490610873288 [Eh]
	 SCS Correlation Energy    =      -3.3065079846884617 [Eh]
	 SCS Total Energy          =    -814.7859558017652262 [Eh]
	-----------------------------------------------------------

  Dipole Moment: [D]
     X:     1.1520      Y:    -4.6009      Z:     2.4889     Total:     5.3563

*** Psi4 exiting successfully. Buy a developer a beer!
