                               Psi4 1.3.2 release

  ==> Input File <==

--------------------------------------------------------------------------
#psi4
#
memory 32 gb

molecule  {
0 1
  O        1.3620710    -0.3800110    -0.9318440
  O        3.2020570     1.9012130    -0.2995130
  O        2.7994070    -2.7489470    -0.4002010
  O       -1.3621860     2.3740050     0.1547830
  N       -0.7982440     0.1994180    -0.2292560
  N       -3.0541720     0.8052390     0.2400120
  N       -4.6734100    -0.8124350     0.4126370
  C        2.7015950     0.8755540     0.5594740
  C        1.2396919     1.1065303     0.9007784
  C        2.6518190    -0.3922910    -0.2854700
  C        0.5739580     0.6830040    -0.4149160
  C        2.8020980    -1.6600160     0.5224700
  C       -1.1273370    -1.1158190    -0.3082760
  C       -1.7446880     1.2038920     0.0820450
  C       -2.4173070    -1.5045610    -0.1045420
  C       -3.3619920    -0.4731600     0.1685110
  H        3.3266614     0.7579363     1.4564349
  H        0.9047070     0.4438290     1.6934890
  H        0.9853290     2.1340670     1.1581470
  H        0.5274540     1.5132540    -1.1249130
  H        3.4174920    -0.3642830    -1.0666260
  H        1.9707490    -1.7331840     1.2432230
  H        3.7460890    -1.6095150     1.0882890
  H        3.1038510     2.7463240     0.1779830
  H       -0.3107400    -1.7892010    -0.5436980
  H        2.9100300    -3.5650720     0.1192120
  H       -2.7034680    -2.5490840    -0.1532500
  H       -5.0287110    -1.6377420    -0.0567190
  H       -5.2994710    -0.0137980     0.3861010
units angstrom
no_reorient  #important for SAPT in psi4, default
symmetry c1  #important for SAPT in psi4, default
}

set PROPERTIES_ORIGIN ["COM"]
properties('MP2/aug-cc-pvtz', properties = ['dipole'])
--------------------------------------------------------------------------

    Molecular point group: c1
  Charge       = 0
  Multiplicity = 1
  Basis Set: AUG-CC-PVTZ
    Blend: AUG-CC-PVTZ
  Basis Set: (AUG-CC-PVTZ AUX)
    Blend: AUG-CC-PVTZ-JKFIT

    Orbital Energies [Eh]
    ---------------------

    Doubly Occupied:

       1A    -20.577783     2A    -20.574770     3A    -20.572906
       4A    -20.502983     5A    -15.621649     6A    -15.588305
       7A    -15.540746     8A    -11.369813     9A    -11.344969
      10A    -11.331107    11A    -11.318198    12A    -11.300857
      13A    -11.296912    14A    -11.293195    15A    -11.236960
      16A    -11.236389    17A     -1.416341    18A     -1.382368
      19A     -1.373642    20A     -1.365736    21A     -1.292155
      22A     -1.261315    23A     -1.169012    24A     -1.078333
      25A     -1.068955    26A     -1.027262    27A     -0.926563
      28A     -0.897420    29A     -0.869020    30A     -0.831221
      31A     -0.806034    32A     -0.754158    33A     -0.738340
      34A     -0.720809    35A     -0.706743    36A     -0.692672
      37A     -0.689545    38A     -0.675887    39A     -0.656515
      40A     -0.637096    41A     -0.627591    42A     -0.618693
      43A     -0.604747    44A     -0.595080    45A     -0.588355
      46A     -0.572055    47A     -0.568999    48A     -0.545250
      49A     -0.533046    50A     -0.523895    51A     -0.510467
      52A     -0.486431    53A     -0.482013    54A     -0.468672
      55A     -0.460772    56A     -0.444098    57A     -0.437540
      58A     -0.416283    59A     -0.383521    60A     -0.334735

  @DF-RHF Final Energy:  -811.47923794928658

   => Energetics <=

    Nuclear Repulsion Energy =           1169.7051912296262799
    One-Electron Energy =               -3434.4750059747971136
    Two-Electron Energy =                1453.2905767958843626
    Total Energy =                       -811.4792379492866985
  Basis Set: (AUG-CC-PVTZ AUX)
    Blend: AUG-CC-PVTZ-RI
    Molecular point group: c1

    Geometry (in Angstrom), charge = 0, multiplicity = 1:

       Center              X                  Y                   Z               Mass
    ------------   -----------------  -----------------  -----------------  -----------------
         O            1.361954753854    -0.379979384086    -0.932551799451    15.994914619570
         O            3.201940753854     1.901244615914    -0.300220799451    15.994914619570
         O            2.799290753854    -2.748915384086    -0.400908799451    15.994914619570
         O           -1.362302246146     2.374036615914     0.154075200549    15.994914619570
         N           -0.798360246146     0.199449615914    -0.229963799451    14.003074004430
         N           -3.054288246146     0.805270615914     0.239304200549    14.003074004430
         N           -4.673526246146    -0.812403384086     0.411929200549    14.003074004430
         C            2.701478753854     0.875585615914     0.558766200549    12.000000000000
         C            1.239575653854     1.106561915914     0.900070600549    12.000000000000
         C            2.651702753854    -0.392259384086    -0.286177799451    12.000000000000
         C            0.573841753854     0.683035615914    -0.415623799451    12.000000000000
         C            2.801981753854    -1.659984384086     0.521762200549    12.000000000000
         C           -1.127453246146    -1.115787384086    -0.308983799451    12.000000000000
         C           -1.744804246146     1.203923615914     0.081337200549    12.000000000000
         C           -2.417423246146    -1.504529384086    -0.105249799451    12.000000000000
         C           -3.362108246146    -0.473128384086     0.167803200549    12.000000000000
         H            3.326545153854     0.757967915914     1.455727100549     1.007825032230
         H            0.904590753854     0.443860615914     1.692781200549     1.007825032230
         H            0.985212753854     2.134098615914     1.157439200549     1.007825032230
         H            0.527337753854     1.513285615914    -1.125620799451     1.007825032230
         H            3.417375753854    -0.364251384086    -1.067333799451     1.007825032230
         H            1.970632753854    -1.733152384086     1.242515200549     1.007825032230
         H            3.745972753854    -1.609483384086     1.087581200549     1.007825032230
         H            3.103734753854     2.746355615914     0.177275200549     1.007825032230
         H           -0.310856246146    -1.789169384086    -0.544405799451     1.007825032230
         H            2.909913753854    -3.565040384086     0.118504200549     1.007825032230
         H           -2.703584246146    -2.549052384086    -0.153957799451     1.007825032230
         H           -5.028827246146    -1.637710384086    -0.057426799451     1.007825032230
         H           -5.299587246146    -0.013766384086     0.385393200549     1.007825032230

  Basis Set: AUG-CC-PVTZ
    Blend: AUG-CC-PVTZ
  Basis Set: (AUG-CC-PVTZ AUX)
    Blend: AUG-CC-PVTZ-JKFIT
	 Reference Energy          =    -811.4792379492865848 [Eh]
	 Singles Energy            =      -0.0000000000000000 [Eh]
	 Same-Spin Energy          =      -0.8296180591576912 [Eh]
	 Opposite-Spin Energy      =      -2.5251476474854897 [Eh]
	 Correlation Energy        =      -3.3547657066431809 [Eh]
	 Total Energy              =    -814.8340036559297914 [Eh]

	 ================> DF-SCS-MP2 Energies <==================
	-----------------------------------------------------------
	 SCS Same-Spin Scale       =       0.3333333333333333 [-]
	 SCS Opposite-Spin Scale   =       1.2000000000000000 [-]
	 SCS Same-Spin Energy      =      -0.2765393530525637 [Eh]
	 SCS Opposite-Spin Energy  =      -3.0301771769825874 [Eh]
	 SCS Correlation Energy    =      -3.3067165300351511 [Eh]
	 SCS Total Energy          =    -814.7859544793217310 [Eh]
	-----------------------------------------------------------

  Dipole Moment: [D]
     X:     1.0767      Y:    -4.6788      Z:     2.4854     Total:     5.4062

*** Psi4 exiting successfully. Buy a developer a beer!
