                               Psi4 1.3.2 release

  ==> Input File <==

--------------------------------------------------------------------------
#psi4
#
memory 32 gb

molecule  {
0 1
  O        1.3620710    -0.3800110    -0.9318440
  O        3.2020570     1.9012130    -0.2995130
  O        2.7941954    -2.7162522    -0.4374271
  O       -1.3621860     2.3740050     0.1547830
  N       -0.7982440     0.1994180    -0.2292560
  N       -3.0541720     0.8052390     0.2400120
  N       -4.6734100    -0.8124350     0.4126370
  C        2.7015950     0.8755540     0.5594740
  C        1.2368440     1.1072260     0.8878520
  C        2.6501915    -0.4215302    -0.3293251
  C        0.5739580     0.6830040    -0.4149160
  C        2.8020980    -1.6600160     0.5224700
  C       -1.1273370    -1.1158190    -0.3082760
  C       -1.7446880     1.2038920     0.0820450
  C       -2.4173070    -1.5045610    -0.1045420
  C       -3.3619920    -0.4731600     0.1685110
  H        3.3343810     0.7567850     1.4508530
  H        0.9047070     0.4438290     1.6934890
  H        0.9853290     2.1340670     1.1581470
  H        0.5274540     1.5132540    -1.1249130
  H        3.4174920    -0.3642830    -1.0666260
  H        1.9707490    -1.7331840     1.2432230
  H        3.7460890    -1.6095150     1.0882890
  H        3.1038510     2.7463240     0.1779830
  H       -0.3107400    -1.7892010    -0.5436980
  H        2.9100300    -3.5650720     0.1192120
  H       -2.7034680    -2.5490840    -0.1532500
  H       -5.0287110    -1.6377420    -0.0567190
  H       -5.2994710    -0.0137980     0.3861010
units angstrom
no_reorient  #important for SAPT in psi4, default
symmetry c1  #important for SAPT in psi4, default
}

set PROPERTIES_ORIGIN ["COM"]
properties('MP2/aug-cc-pvtz', properties = ['dipole'])
--------------------------------------------------------------------------

    Molecular point group: c1
  Charge       = 0
  Multiplicity = 1
  Basis Set: AUG-CC-PVTZ
    Blend: AUG-CC-PVTZ
  Basis Set: (AUG-CC-PVTZ AUX)
    Blend: AUG-CC-PVTZ-JKFIT

    Orbital Energies [Eh]
    ---------------------

    Doubly Occupied:

       1A    -20.582402     2A    -20.573179     3A    -20.572361
       4A    -20.503144     5A    -15.622081     6A    -15.588482
       7A    -15.540970     8A    -11.370113     9A    -11.345191
      10A    -11.331722    11A    -11.318518    12A    -11.299659
      13A    -11.295113    14A    -11.290852    15A    -11.237214
      16A    -11.235475    17A     -1.419073    18A     -1.382097
      19A     -1.369175    20A     -1.362039    21A     -1.292479
      22A     -1.261936    23A     -1.169361    24A     -1.077451
      25A     -1.062501    26A     -1.026878    27A     -0.923560
      28A     -0.897277    29A     -0.866092    30A     -0.830244
      31A     -0.809798    32A     -0.754620    33A     -0.738680
      34A     -0.716584    35A     -0.704746    36A     -0.688272
      37A     -0.687340    38A     -0.676970    39A     -0.657255
      40A     -0.635836    41A     -0.627414    42A     -0.617865
      43A     -0.604172    44A     -0.595805    45A     -0.588683
      46A     -0.574257    47A     -0.569540    48A     -0.547188
      49A     -0.531639    50A     -0.522832    51A     -0.511078
      52A     -0.482546    53A     -0.473908    54A     -0.467451
      55A     -0.459440    56A     -0.444717    57A     -0.436860
      58A     -0.416479    59A     -0.383840    60A     -0.335066

  @DF-RHF Final Energy:  -811.47079182226491

   => Energetics <=

    Nuclear Repulsion Energy =           1170.0284728349934085
    One-Electron Energy =               -3435.1834853768941684
    Two-Electron Energy =                1453.6842207196359595
    Total Energy =                       -811.4707918222648004
  Basis Set: (AUG-CC-PVTZ AUX)
    Blend: AUG-CC-PVTZ-RI
    Molecular point group: c1

    Geometry (in Angstrom), charge = 0, multiplicity = 1:

       Center              X                  Y                   Z               Mass
    ------------   -----------------  -----------------  -----------------  -----------------
         O            1.362524059178    -0.380768796862    -0.926904573911    15.994914619570
         O            3.202510059178     1.900455203138    -0.294573573911    15.994914619570
         O            2.794648459178    -2.717009996862    -0.432487673911    15.994914619570
         O           -1.361732940822     2.373247203138     0.159722426089    15.994914619570
         N           -0.797790940822     0.198660203138    -0.224316573911    14.003074004430
         N           -3.053718940822     0.804481203138     0.244951426089    14.003074004430
         N           -4.672956940822    -0.813192796862     0.417576426089    14.003074004430
         C            2.702048059178     0.874796203138     0.564413426089    12.000000000000
         C            1.237297059178     1.106468203138     0.892791426089    12.000000000000
         C            2.650644559178    -0.422287996862    -0.324385673911    12.000000000000
         C            0.574411059178     0.682246203138    -0.409976573911    12.000000000000
         C            2.802551059178    -1.660773796862     0.527409426089    12.000000000000
         C           -1.126883940822    -1.116576796862    -0.303336573911    12.000000000000
         C           -1.744234940822     1.203134203138     0.086984426089    12.000000000000
         C           -2.416853940822    -1.505318796862    -0.099602573911    12.000000000000
         C           -3.361538940822    -0.473917796862     0.173450426089    12.000000000000
         H            3.334834059178     0.756027203138     1.455792426089     1.007825032230
         H            0.905160059178     0.443071203138     1.698428426089     1.007825032230
         H            0.985782059178     2.133309203138     1.163086426089     1.007825032230
         H            0.527907059178     1.512496203138    -1.119973573911     1.007825032230
         H            3.417945059178    -0.365040796862    -1.061686573911     1.007825032230
         H            1.971202059178    -1.733941796862     1.248162426089     1.007825032230
         H            3.746542059178    -1.610272796862     1.093228426089     1.007825032230
         H            3.104304059178     2.745566203138     0.182922426089     1.007825032230
         H           -0.310286940822    -1.789958796862    -0.538758573911     1.007825032230
         H            2.910483059178    -3.565829796862     0.124151426089     1.007825032230
         H           -2.703014940822    -2.549841796862    -0.148310573911     1.007825032230
         H           -5.028257940822    -1.638499796862    -0.051779573911     1.007825032230
         H           -5.299017940822    -0.014555796862     0.391040426089     1.007825032230

  Basis Set: AUG-CC-PVTZ
    Blend: AUG-CC-PVTZ
  Basis Set: (AUG-CC-PVTZ AUX)
    Blend: AUG-CC-PVTZ-JKFIT
	 Reference Energy          =    -811.4707918222649141 [Eh]
	 Singles Energy            =      -0.0000000000000000 [Eh]
	 Same-Spin Energy          =      -0.8301669130160372 [Eh]
	 Opposite-Spin Energy      =      -2.5267198272569105 [Eh]
	 Correlation Energy        =      -3.3568867402729476 [Eh]
	 Total Energy              =    -814.8276785625378125 [Eh]

	 ================> DF-SCS-MP2 Energies <==================
	-----------------------------------------------------------
	 SCS Same-Spin Scale       =       0.3333333333333333 [-]
	 SCS Opposite-Spin Scale   =       1.2000000000000000 [-]
	 SCS Same-Spin Energy      =      -0.2767223043386791 [Eh]
	 SCS Opposite-Spin Energy  =      -3.0320637927082923 [Eh]
	 SCS Correlation Energy    =      -3.3087860970469714 [Eh]
	 SCS Total Energy          =    -814.7795779193119188 [Eh]
	-----------------------------------------------------------

  Dipole Moment: [D]
     X:     1.0425      Y:    -4.7648      Z:     2.4711     Total:     5.4678

*** Psi4 exiting successfully. Buy a developer a beer!
