                               Psi4 1.3.2 release

  ==> Input File <==

--------------------------------------------------------------------------
#psi4
#
memory 32 gb

molecule  {
0 1
  O        1.3620710    -0.3800110    -0.9318440
  O        3.2020570     1.9012130    -0.2995130
  O        2.7994070    -2.7489470    -0.4002010
  O       -1.3621860     2.3740050     0.1547830
  N       -0.7982440     0.1994180    -0.2292560
  N       -3.0541720     0.8052390     0.2400120
  N       -4.6734100    -0.8124350     0.4126370
  C        2.7015950     0.8755540     0.5594740
  C        1.2368440     1.1072260     0.8878520
  C        2.6518190    -0.3922910    -0.2854700
  C        0.5739580     0.6830040    -0.4149160
  C        2.8020980    -1.6600160     0.5224700
  C       -1.1273370    -1.1158190    -0.3082760
  C       -1.7446880     1.2038920     0.0820450
  C       -2.4173070    -1.5045610    -0.1045420
  C       -3.4149080    -0.5255500     0.1731366
  H        3.3343810     0.7567850     1.4508530
  H        0.9047070     0.4438290     1.6934890
  H        0.9853290     2.1340670     1.1581470
  H        0.5274540     1.5132540    -1.1249130
  H        3.4174920    -0.3642830    -1.0666260
  H        1.9707490    -1.7331840     1.2432230
  H        3.7460890    -1.6095150     1.0882890
  H        3.1038510     2.7463240     0.1779830
  H       -0.3107400    -1.7892010    -0.5436980
  H        2.9100300    -3.5650720     0.1192120
  H       -2.7568455    -2.5334454    -0.1419512
  H       -5.0287110    -1.6377420    -0.0567190
  H       -5.2994710    -0.0137980     0.3861010
units angstrom
no_reorient  #important for SAPT in psi4, default
symmetry c1  #important for SAPT in psi4, default
}

set PROPERTIES_ORIGIN ["COM"]
properties('MP2/aug-cc-pvtz', properties = ['dipole'])
--------------------------------------------------------------------------

    Molecular point group: c1
  Charge       = 0
  Multiplicity = 1
  Basis Set: AUG-CC-PVTZ
    Blend: AUG-CC-PVTZ
  Basis Set: (AUG-CC-PVTZ AUX)
    Blend: AUG-CC-PVTZ-JKFIT

    Orbital Energies [Eh]
    ---------------------

    Doubly Occupied:

       1A    -20.576957     2A    -20.572923     3A    -20.571274
       4A    -20.495325     5A    -15.619065     6A    -15.601219
       7A    -15.533839     8A    -11.362719     9A    -11.347800
      10A    -11.328434    11A    -11.320388    12A    -11.299339
      13A    -11.295881    14A    -11.291761    15A    -11.237169
      16A    -11.234792    17A     -1.414595    18A     -1.376545
      19A     -1.372523    20A     -1.363167    21A     -1.299094
      22A     -1.268012    23A     -1.158556    24A     -1.076446
      25A     -1.066573    26A     -1.026843    27A     -0.926950
      28A     -0.897035    29A     -0.864664    30A     -0.829903
      31A     -0.805552    32A     -0.760011    33A     -0.735963
      34A     -0.722843    35A     -0.717785    36A     -0.692945
      37A     -0.689260    38A     -0.676139    39A     -0.656210
      40A     -0.633891    41A     -0.624751    42A     -0.616191
      43A     -0.602345    44A     -0.597849    45A     -0.583202
      46A     -0.571678    47A     -0.568105    48A     -0.545758
      49A     -0.537722    50A     -0.521666    51A     -0.510600
      52A     -0.484349    53A     -0.478695    54A     -0.467499
      55A     -0.459658    56A     -0.440471    57A     -0.429028
      58A     -0.407489    59A     -0.373648    60A     -0.332343

  @DF-RHF Final Energy:  -811.46931123901231

   => Energetics <=

    Nuclear Repulsion Energy =           1168.9542974721364317
    One-Electron Energy =               -3433.1003363445029208
    Two-Electron Energy =                1452.6767276333539485
    Total Energy =                       -811.4693112390123133
  Basis Set: (AUG-CC-PVTZ AUX)
    Blend: AUG-CC-PVTZ-RI
    Molecular point group: c1

    Geometry (in Angstrom), charge = 0, multiplicity = 1:

       Center              X                  Y                   Z               Mass
    ------------   -----------------  -----------------  -----------------  -----------------
         O            1.365104078203    -0.377312030525    -0.932138537244    15.994914619570
         O            3.205090078203     1.903911969475    -0.299807537244    15.994914619570
         O            2.802440078203    -2.746248030525    -0.400495537244    15.994914619570
         O           -1.359152921797     2.376703969475     0.154488462756    15.994914619570
         N           -0.795210921797     0.202116969475    -0.229550537244    14.003074004430
         N           -3.051138921797     0.807937969475     0.239717462756    14.003074004430
         N           -4.670376921797    -0.809736030525     0.412342462756    14.003074004430
         C            2.704628078203     0.878252969475     0.559179462756    12.000000000000
         C            1.239877078203     1.109924969475     0.887557462756    12.000000000000
         C            2.654852078203    -0.389592030525    -0.285764537244    12.000000000000
         C            0.576991078203     0.685702969475    -0.415210537244    12.000000000000
         C            2.805131078203    -1.657317030525     0.522175462756    12.000000000000
         C           -1.124303921797    -1.113120030525    -0.308570537244    12.000000000000
         C           -1.741654921797     1.206590969475     0.081750462756    12.000000000000
         C           -2.414273921797    -1.501862030525    -0.104836537244    12.000000000000
         C           -3.411874921797    -0.522851030525     0.172842062756    12.000000000000
         H            3.337414078203     0.759483969475     1.450558462756     1.007825032230
         H            0.907740078203     0.446527969475     1.693194462756     1.007825032230
         H            0.988362078203     2.136765969475     1.157852462756     1.007825032230
         H            0.530487078203     1.515952969475    -1.125207537244     1.007825032230
         H            3.420525078203    -0.361584030525    -1.066920537244     1.007825032230
         H            1.973782078203    -1.730485030525     1.242928462756     1.007825032230
         H            3.749122078203    -1.606816030525     1.087994462756     1.007825032230
         H            3.106884078203     2.749022969475     0.177688462756     1.007825032230
         H           -0.307706921797    -1.786502030525    -0.543992537244     1.007825032230
         H            2.913063078203    -3.562373030525     0.118917462756     1.007825032230
         H           -2.753812421797    -2.530746430525    -0.142245737244     1.007825032230
         H           -5.025677921797    -1.635043030525    -0.057013537244     1.007825032230
         H           -5.296437921797    -0.011099030525     0.385806462756     1.007825032230

  Basis Set: AUG-CC-PVTZ
    Blend: AUG-CC-PVTZ
  Basis Set: (AUG-CC-PVTZ AUX)
    Blend: AUG-CC-PVTZ-JKFIT
	 Reference Energy          =    -811.4693112390123133 [Eh]
	 Singles Energy            =      -0.0000000000000000 [Eh]
	 Same-Spin Energy          =      -0.8304744303584959 [Eh]
	 Opposite-Spin Energy      =      -2.5260627666834887 [Eh]
	 Correlation Energy        =      -3.3565371970419848 [Eh]
	 Total Energy              =    -814.8258484360543434 [Eh]

	 ================> DF-SCS-MP2 Energies <==================
	-----------------------------------------------------------
	 SCS Same-Spin Scale       =       0.3333333333333333 [-]
	 SCS Opposite-Spin Scale   =       1.2000000000000000 [-]
	 SCS Same-Spin Energy      =      -0.2768248101194986 [Eh]
	 SCS Opposite-Spin Energy  =      -3.0312753200201863 [Eh]
	 SCS Correlation Energy    =      -3.3081001301396848 [Eh]
	 SCS Total Energy          =    -814.7774113691519915 [Eh]
	-----------------------------------------------------------

  Dipole Moment: [D]
     X:     0.5069      Y:    -5.0146      Z:     2.5583     Total:     5.6522

*** Psi4 exiting successfully. Buy a developer a beer!
