                               Psi4 1.3.2 release

  ==> Input File <==

--------------------------------------------------------------------------
#psi4
#
memory 32 gb

molecule  {
0 1
  O        1.3620710    -0.3800110    -0.9318440
  O        3.2020570     1.9012130    -0.2995130
  O        2.7994070    -2.7489470    -0.4002010
  O       -1.3621860     2.3740050     0.1547830
  N       -0.7982440     0.1994180    -0.2292560
  N       -3.0541720     0.8052390     0.2400120
  N       -4.6734100    -0.8124350     0.4126370
  C        2.7015950     0.8755540     0.5594740
  C        1.2368440     1.1072260     0.8878520
  C        2.6518190    -0.3922910    -0.2854700
  C        0.6610633     0.7387481    -0.2437282
  C        2.8020980    -1.6600160     0.5224700
  C       -1.1273370    -1.1158190    -0.3082760
  C       -1.7446880     1.2038920     0.0820450
  C       -2.4173070    -1.5045610    -0.1045420
  C       -3.3619920    -0.4731600     0.1685110
  H        3.3343810     0.7567850     1.4508530
  H        0.9047070     0.4438290     1.6934890
  H        0.9853290     2.1340670     1.1581470
  H        0.5274540     1.5132540    -1.1249130
  H        3.4174920    -0.3642830    -1.0666260
  H        1.9707490    -1.7331840     1.2432230
  H        3.7460890    -1.6095150     1.0882890
  H        3.1038510     2.7463240     0.1779830
  H       -0.3107400    -1.7892010    -0.5436980
  H        2.9100300    -3.5650720     0.1192120
  H       -2.7034680    -2.5490840    -0.1532500
  H       -5.0287110    -1.6377420    -0.0567190
  H       -5.2994710    -0.0137980     0.3861010
units angstrom
no_reorient  #important for SAPT in psi4, default
symmetry c1  #important for SAPT in psi4, default
}

set PROPERTIES_ORIGIN ["COM"]
properties('MP2/aug-cc-pvtz', properties = ['dipole'])
--------------------------------------------------------------------------

    Molecular point group: c1
  Charge       = 0
  Multiplicity = 1
  Basis Set: AUG-CC-PVTZ
    Blend: AUG-CC-PVTZ
  Basis Set: (AUG-CC-PVTZ AUX)
    Blend: AUG-CC-PVTZ-JKFIT

    Orbital Energies [Eh]
    ---------------------

    Doubly Occupied:

       1A    -20.579983     2A    -20.577977     3A    -20.572399
       4A    -20.499626     5A    -15.616199     6A    -15.585822
       7A    -15.537008     8A    -11.364916     9A    -11.341884
      10A    -11.339113    11A    -11.314410    12A    -11.310446
      13A    -11.296985    14A    -11.291232    15A    -11.235818
      16A    -11.233500    17A     -1.408771    18A     -1.379456
      19A     -1.375392    20A     -1.362038    21A     -1.287477
      22A     -1.250683    23A     -1.164950    24A     -1.120863
      25A     -1.062431    26A     -1.036672    27A     -0.925756
      28A     -0.892876    29A     -0.865666    30A     -0.820913
      31A     -0.812228    32A     -0.749885    33A     -0.738699
      34A     -0.723230    35A     -0.706844    36A     -0.697609
      37A     -0.690336    38A     -0.671146    39A     -0.651928
      40A     -0.636972    41A     -0.628452    42A     -0.614065
      43A     -0.602785    44A     -0.599567    45A     -0.589602
      46A     -0.571266    47A     -0.557795    48A     -0.544947
      49A     -0.539873    50A     -0.529225    51A     -0.505304
      52A     -0.490111    53A     -0.480909    54A     -0.469729
      55A     -0.464973    56A     -0.443418    57A     -0.431933
      58A     -0.409439    59A     -0.381722    60A     -0.332673

  @DF-RHF Final Energy:  -811.42363203023388

   => Energetics <=

    Nuclear Repulsion Energy =           1170.6378618800988534
    One-Electron Energy =               -3436.2871375105914922
    Two-Electron Energy =                1454.2256436002585360
    Total Energy =                       -811.4236320302338754
  Basis Set: (AUG-CC-PVTZ AUX)
    Blend: AUG-CC-PVTZ-RI
    Molecular point group: c1

    Geometry (in Angstrom), charge = 0, multiplicity = 1:

       Center              X                  Y                   Z               Mass
    ------------   -----------------  -----------------  -----------------  -----------------
         O            1.357468135828    -0.382956685980    -0.940889930453    15.994914619570
         O            3.197454135828     1.898267314020    -0.308558930453    15.994914619570
         O            2.794804135828    -2.751892685980    -0.409246930453    15.994914619570
         O           -1.366788864172     2.371059314020     0.145737069547    15.994914619570
         N           -0.802846864172     0.196472314020    -0.238301930453    14.003074004430
         N           -3.058774864172     0.802293314020     0.230966069547    14.003074004430
         N           -4.678012864172    -0.815380685980     0.403591069547    14.003074004430
         C            2.696992135828     0.872608314020     0.550428069547    12.000000000000
         C            1.232241135828     1.104280314020     0.878806069547    12.000000000000
         C            2.647216135828    -0.395236685980    -0.294515930453    12.000000000000
         C            0.656460435828     0.735802414020    -0.252774130453    12.000000000000
         C            2.797495135828    -1.662961685980     0.513424069547    12.000000000000
         C           -1.131939864172    -1.118764685980    -0.317321930453    12.000000000000
         C           -1.749290864172     1.200946314020     0.072999069547    12.000000000000
         C           -2.421909864172    -1.507506685980    -0.113587930453    12.000000000000
         C           -3.366594864172    -0.476105685980     0.159465069547    12.000000000000
         H            3.329778135828     0.753839314020     1.441807069547     1.007825032230
         H            0.900104135828     0.440883314020     1.684443069547     1.007825032230
         H            0.980726135828     2.131121314020     1.149101069547     1.007825032230
         H            0.522851135828     1.510308314020    -1.133958930453     1.007825032230
         H            3.412889135828    -0.367228685980    -1.075671930453     1.007825032230
         H            1.966146135828    -1.736129685980     1.234177069547     1.007825032230
         H            3.741486135828    -1.612460685980     1.079243069547     1.007825032230
         H            3.099248135828     2.743378314020     0.168937069547     1.007825032230
         H           -0.315342864172    -1.792146685980    -0.552743930453     1.007825032230
         H            2.905427135828    -3.568017685980     0.110166069547     1.007825032230
         H           -2.708070864172    -2.552029685980    -0.162295930453     1.007825032230
         H           -5.033313864172    -1.640687685980    -0.065764930453     1.007825032230
         H           -5.304073864172    -0.016743685980     0.377055069547     1.007825032230

  Basis Set: AUG-CC-PVTZ
    Blend: AUG-CC-PVTZ
  Basis Set: (AUG-CC-PVTZ AUX)
    Blend: AUG-CC-PVTZ-JKFIT
	 Reference Energy          =    -811.4236320302338754 [Eh]
	 Singles Energy            =      -0.0000000000000000 [Eh]
	 Same-Spin Energy          =      -0.8335292576883577 [Eh]
	 Opposite-Spin Energy      =      -2.5315976429189404 [Eh]
	 Correlation Energy        =      -3.3651269006072981 [Eh]
	 Total Energy              =    -814.7887589308411407 [Eh]

	 ================> DF-SCS-MP2 Energies <==================
	-----------------------------------------------------------
	 SCS Same-Spin Scale       =       0.3333333333333333 [-]
	 SCS Opposite-Spin Scale   =       1.2000000000000000 [-]
	 SCS Same-Spin Energy      =      -0.2778430858961192 [Eh]
	 SCS Opposite-Spin Energy  =      -3.0379171715027282 [Eh]
	 SCS Correlation Energy    =      -3.3157602573988476 [Eh]
	 SCS Total Energy          =    -814.7393922876327679 [Eh]
	-----------------------------------------------------------

  Dipole Moment: [D]
     X:     1.5070      Y:    -4.4543      Z:     2.8266     Total:     5.4865

*** Psi4 exiting successfully. Buy a developer a beer!
