                               Psi4 1.3.2 release

  ==> Input File <==

--------------------------------------------------------------------------
#psi4
#
memory 32 gb

molecule  {
0 1
  O        1.3620710    -0.3800110    -0.9318440
  O        3.2020570     1.9012130    -0.2995130
  O        2.7994070    -2.7489470    -0.4002010
  O       -1.3621860     2.3740050     0.1547830
  N       -0.7982440     0.1994180    -0.2292560
  N       -3.0541720     0.8052390     0.2400120
  N       -4.6734100    -0.8124350     0.4126370
  C        2.7015950     0.8755540     0.5594740
  C        1.2368440     1.1072260     0.8878520
  C        2.7412169    -0.3931422    -0.2406671
  C        0.5739580     0.6830040    -0.4149160
  C        2.8020980    -1.6600160     0.5224700
  C       -1.1273370    -1.1158190    -0.3082760
  C       -1.7446880     1.2038920     0.0820450
  C       -2.4173070    -1.5045610    -0.1045420
  C       -3.3619920    -0.4731600     0.1685110
  H        3.3343810     0.7567850     1.4508530
  H        0.9047070     0.4438290     1.6934890
  H        0.9853290     2.1340670     1.1581470
  H        0.5274540     1.5132540    -1.1249130
  H        3.4174920    -0.3642830    -1.0666260
  H        1.9707490    -1.7331840     1.2432230
  H        3.7460890    -1.6095150     1.0882890
  H        3.1038510     2.7463240     0.1779830
  H       -0.3107400    -1.7892010    -0.5436980
  H        2.9100300    -3.5650720     0.1192120
  H       -2.7034680    -2.5490840    -0.1532500
  H       -5.0287110    -1.6377420    -0.0567190
  H       -5.2994710    -0.0137980     0.3861010
units angstrom
no_reorient  #important for SAPT in psi4, default
symmetry c1  #important for SAPT in psi4, default
}

set PROPERTIES_ORIGIN ["COM"]
properties('MP2/aug-cc-pvtz', properties = ['dipole'])
--------------------------------------------------------------------------

    Molecular point group: c1
  Charge       = 0
  Multiplicity = 1
  Basis Set: AUG-CC-PVTZ
    Blend: AUG-CC-PVTZ
  Basis Set: (AUG-CC-PVTZ AUX)
    Blend: AUG-CC-PVTZ-JKFIT

    Orbital Energies [Eh]
    ---------------------

    Doubly Occupied:

       1A    -20.581426     2A    -20.576402     3A    -20.561447
       4A    -20.500998     5A    -15.618681     6A    -15.586778
       7A    -15.538824     8A    -11.367594     9A    -11.343088
      10A    -11.324908    11A    -11.315695    12A    -11.303979
      13A    -11.301360    14A    -11.297550    15A    -11.237115
      16A    -11.234758    17A     -1.400199    18A     -1.381244
      19A     -1.376729    20A     -1.356096    21A     -1.289435
      22A     -1.256919    23A     -1.166733    24A     -1.081678
      25A     -1.071105    26A     -1.029940    27A     -0.929378
      28A     -0.895557    29A     -0.869761    30A     -0.825518
      31A     -0.808328    32A     -0.752312    33A     -0.734431
      34A     -0.720655    35A     -0.707866    36A     -0.692797
      37A     -0.689193    38A     -0.673651    39A     -0.653474
      40A     -0.636202    41A     -0.624275    42A     -0.617384
      43A     -0.605737    44A     -0.593728    45A     -0.583410
      46A     -0.570284    47A     -0.565055    48A     -0.543333
      49A     -0.532357    50A     -0.520878    51A     -0.510355
      52A     -0.491658    53A     -0.480557    54A     -0.469735
      55A     -0.462612    56A     -0.443529    57A     -0.436266
      58A     -0.414211    59A     -0.381819    60A     -0.332680

  @DF-RHF Final Energy:  -811.46958998437583

   => Energetics <=

    Nuclear Repulsion Energy =           1168.4495707388609844
    One-Electron Energy =               -3432.0989861638695402
    Two-Electron Energy =                1452.1798254406326123
    Total Energy =                       -811.4695899843759435
  Basis Set: (AUG-CC-PVTZ AUX)
    Blend: AUG-CC-PVTZ-RI
    Molecular point group: c1

    Geometry (in Angstrom), charge = 0, multiplicity = 1:

       Center              X                  Y                   Z               Mass
    ------------   -----------------  -----------------  -----------------  -----------------
         O            1.357346989469    -0.379966057648    -0.934211456045    15.994914619570
         O            3.197332989469     1.901257942352    -0.301880456045    15.994914619570
         O            2.794682989469    -2.748902057648    -0.402568456045    15.994914619570
         O           -1.366910010531     2.374049942352     0.152415543955    15.994914619570
         N           -0.802968010531     0.199462942352    -0.231623456045    14.003074004430
         N           -3.058896010531     0.805283942352     0.237644543955    14.003074004430
         N           -4.678134010531    -0.812390057648     0.410269543955    14.003074004430
         C            2.696870989469     0.875598942352     0.557106543955    12.000000000000
         C            1.232119989469     1.107270942352     0.885484543955    12.000000000000
         C            2.736492889469    -0.393097257648    -0.243034556045    12.000000000000
         C            0.569233989469     0.683048942352    -0.417283456045    12.000000000000
         C            2.797373989469    -1.659971057648     0.520102543955    12.000000000000
         C           -1.132061010531    -1.115774057648    -0.310643456045    12.000000000000
         C           -1.749412010531     1.203936942352     0.079677543955    12.000000000000
         C           -2.422031010531    -1.504516057648    -0.106909456045    12.000000000000
         C           -3.366716010531    -0.473115057648     0.166143543955    12.000000000000
         H            3.329656989469     0.756829942352     1.448485543955     1.007825032230
         H            0.899982989469     0.443873942352     1.691121543955     1.007825032230
         H            0.980604989469     2.134111942352     1.155779543955     1.007825032230
         H            0.522729989469     1.513298942352    -1.127280456045     1.007825032230
         H            3.412767989469    -0.364238057648    -1.068993456045     1.007825032230
         H            1.966024989469    -1.733139057648     1.240855543955     1.007825032230
         H            3.741364989469    -1.609470057648     1.085921543955     1.007825032230
         H            3.099126989469     2.746368942352     0.175615543955     1.007825032230
         H           -0.315464010531    -1.789156057648    -0.546065456045     1.007825032230
         H            2.905305989469    -3.565027057648     0.116844543955     1.007825032230
         H           -2.708192010531    -2.549039057648    -0.155617456045     1.007825032230
         H           -5.033435010531    -1.637697057648    -0.059086456045     1.007825032230
         H           -5.304195010531    -0.013753057648     0.383733543955     1.007825032230

  Basis Set: AUG-CC-PVTZ
    Blend: AUG-CC-PVTZ
  Basis Set: (AUG-CC-PVTZ AUX)
    Blend: AUG-CC-PVTZ-JKFIT
	 Reference Energy          =    -811.4695899843758298 [Eh]
	 Singles Energy            =      -0.0000000000000000 [Eh]
	 Same-Spin Energy          =      -0.8303428998453766 [Eh]
	 Opposite-Spin Energy      =      -2.5270075228175521 [Eh]
	 Correlation Energy        =      -3.3573504226629289 [Eh]
	 Total Energy              =    -814.8269404070387054 [Eh]

	 ================> DF-SCS-MP2 Energies <==================
	-----------------------------------------------------------
	 SCS Same-Spin Scale       =       0.3333333333333333 [-]
	 SCS Opposite-Spin Scale   =       1.2000000000000000 [-]
	 SCS Same-Spin Energy      =      -0.2767809666151255 [Eh]
	 SCS Opposite-Spin Energy  =      -3.0324090273810627 [Eh]
	 SCS Correlation Energy    =      -3.3091899939961884 [Eh]
	 SCS Total Energy          =    -814.7787799783719720 [Eh]
	-----------------------------------------------------------

  Dipole Moment: [D]
     X:     1.4385      Y:    -4.7660      Z:     2.5891     Total:     5.6114

*** Psi4 exiting successfully. Buy a developer a beer!
