                               Psi4 1.3.2 release

  ==> Input File <==

--------------------------------------------------------------------------
#psi4
#
memory 32 gb

molecule  {
0 1
  O        1.3620710    -0.3800110    -0.9318440
  O        3.2020570     1.9012130    -0.2995130
  O        2.7994070    -2.7489470    -0.4002010
  O       -1.3621860     2.3740050     0.1547830
  N       -0.7982440     0.1994180    -0.2292560
  N       -3.0541720     0.8052390     0.2400120
  N       -4.6734100    -0.8124350     0.4126370
  C        2.7015950     0.8755540     0.5594740
  C        1.2368440     1.1072260     0.8878520
  C        2.6518190    -0.3922910    -0.2854700
  C        0.5739580     0.6830040    -0.4149160
  C        2.8020980    -1.6600160     0.5224700
  C       -1.1273370    -1.1158190    -0.3082760
  C       -1.7446880     1.2038920     0.0820450
  C       -2.4173070    -1.5045610    -0.1045420
  C       -3.3619920    -0.4731600     0.1685110
  H        3.3343810     0.7567850     1.4508530
  H        0.9047070     0.4438290     1.6934890
  H        0.9853290     2.1340670     1.1581470
  H        0.5274540     1.5132540    -1.1249130
  H        3.4874685    -0.3617233    -1.1380175
  H        1.9707490    -1.7331840     1.2432230
  H        3.7460890    -1.6095150     1.0882890
  H        3.1038510     2.7463240     0.1779830
  H       -0.3107400    -1.7892010    -0.5436980
  H        2.9100300    -3.5650720     0.1192120
  H       -2.7034680    -2.5490840    -0.1532500
  H       -5.0287110    -1.6377420    -0.0567190
  H       -5.2994710    -0.0137980     0.3861010
units angstrom
no_reorient  #important for SAPT in psi4, default
symmetry c1  #important for SAPT in psi4, default
}

set PROPERTIES_ORIGIN ["COM"]
properties('MP2/aug-cc-pvtz', properties = ['dipole'])
--------------------------------------------------------------------------

    Molecular point group: c1
  Charge       = 0
  Multiplicity = 1
  Basis Set: AUG-CC-PVTZ
    Blend: AUG-CC-PVTZ
  Basis Set: (AUG-CC-PVTZ AUX)
    Blend: AUG-CC-PVTZ-JKFIT

    Orbital Energies [Eh]
    ---------------------

    Doubly Occupied:

       1A    -20.577605     2A    -20.574242     3A    -20.574131
       4A    -20.503326     5A    -15.622116     6A    -15.588555
       7A    -15.541050     8A    -11.370195     9A    -11.345279
      10A    -11.331329    11A    -11.318577    12A    -11.303895
      13A    -11.301503    14A    -11.297580    15A    -11.237335
      16A    -11.237291    17A     -1.417185    18A     -1.382589
      19A     -1.373392    20A     -1.365830    21A     -1.292493
      22A     -1.261699    23A     -1.169330    24A     -1.079422
      25A     -1.067922    26A     -1.026324    27A     -0.927149
      28A     -0.897256    29A     -0.868653    30A     -0.831184
      31A     -0.799252    32A     -0.754053    33A     -0.739028
      34A     -0.720112    35A     -0.706975    36A     -0.690739
      37A     -0.688299    38A     -0.674754    39A     -0.656872
      40A     -0.637384    41A     -0.627865    42A     -0.618725
      43A     -0.604475    44A     -0.594106    45A     -0.588914
      46A     -0.572773    47A     -0.561659    48A     -0.544502
      49A     -0.532778    50A     -0.523606    51A     -0.509524
      52A     -0.485129    53A     -0.481014    54A     -0.468254
      55A     -0.460227    56A     -0.443722    57A     -0.437084
      58A     -0.416470    59A     -0.383953    60A     -0.335215

  @DF-RHF Final Energy:  -811.47228004295198

   => Energetics <=

    Nuclear Repulsion Energy =           1169.3273696399282926
    One-Electron Energy =               -3433.7154934562463495
    Two-Electron Energy =                1452.9158437733660776
    Total Energy =                       -811.4722800429519793
  Basis Set: (AUG-CC-PVTZ AUX)
    Blend: AUG-CC-PVTZ-RI
    Molecular point group: c1

    Geometry (in Angstrom), charge = 0, multiplicity = 1:

       Center              X                  Y                   Z               Mass
    ------------   -----------------  -----------------  -----------------  -----------------
         O            1.361760429327    -0.380022396965    -0.931527131264    15.994914619570
         O            3.201746429327     1.901201603035    -0.299196131264    15.994914619570
         O            2.799096429327    -2.748958396965    -0.399884131264    15.994914619570
         O           -1.362496570673     2.373993603035     0.155099868736    15.994914619570
         N           -0.798554570673     0.199406603035    -0.228939131264    14.003074004430
         N           -3.054482570673     0.805227603035     0.240328868736    14.003074004430
         N           -4.673720570673    -0.812446396965     0.412953868736    14.003074004430
         C            2.701284429327     0.875542603035     0.559790868736    12.000000000000
         C            1.236533429327     1.107214603035     0.888168868736    12.000000000000
         C            2.651508429327    -0.392302396965    -0.285153131264    12.000000000000
         C            0.573647429327     0.682992603035    -0.414599131264    12.000000000000
         C            2.801787429327    -1.660027396965     0.522786868736    12.000000000000
         C           -1.127647570673    -1.115830396965    -0.307959131264    12.000000000000
         C           -1.744998570673     1.203880603035     0.082361868736    12.000000000000
         C           -2.417617570673    -1.504572396965    -0.104225131264    12.000000000000
         C           -3.362302570673    -0.473171396965     0.168827868736    12.000000000000
         H            3.334070429327     0.756773603035     1.451169868736     1.007825032230
         H            0.904396429327     0.443817603035     1.693805868736     1.007825032230
         H            0.985018429327     2.134055603035     1.158463868736     1.007825032230
         H            0.527143429327     1.513242603035    -1.124596131264     1.007825032230
         H            3.487157929327    -0.361734696965    -1.137700631264     1.007825032230
         H            1.970438429327    -1.733195396965     1.243539868736     1.007825032230
         H            3.745778429327    -1.609526396965     1.088605868736     1.007825032230
         H            3.103540429327     2.746312603035     0.178299868736     1.007825032230
         H           -0.311050570673    -1.789212396965    -0.543381131264     1.007825032230
         H            2.909719429327    -3.565083396965     0.119528868736     1.007825032230
         H           -2.703778570673    -2.549095396965    -0.152933131264     1.007825032230
         H           -5.029021570673    -1.637753396965    -0.056402131264     1.007825032230
         H           -5.299781570673    -0.013809396965     0.386417868736     1.007825032230

  Basis Set: AUG-CC-PVTZ
    Blend: AUG-CC-PVTZ
  Basis Set: (AUG-CC-PVTZ AUX)
    Blend: AUG-CC-PVTZ-JKFIT
	 Reference Energy          =    -811.4722800429519793 [Eh]
	 Singles Energy            =      -0.0000000000000000 [Eh]
	 Same-Spin Energy          =      -0.8299656728818857 [Eh]
	 Opposite-Spin Energy      =      -2.5262410667077995 [Eh]
	 Correlation Energy        =      -3.3562067395896853 [Eh]
	 Total Energy              =    -814.8284867825416313 [Eh]

	 ================> DF-SCS-MP2 Energies <==================
	-----------------------------------------------------------
	 SCS Same-Spin Scale       =       0.3333333333333333 [-]
	 SCS Opposite-Spin Scale   =       1.2000000000000000 [-]
	 SCS Same-Spin Energy      =      -0.2766552242939619 [Eh]
	 SCS Opposite-Spin Energy  =      -3.0314892800493594 [Eh]
	 SCS Correlation Energy    =      -3.3081445043433213 [Eh]
	 SCS Total Energy          =    -814.7804245472952971 [Eh]
	-----------------------------------------------------------

  Dipole Moment: [D]
     X:     1.0216      Y:    -4.6733      Z:     2.5000     Total:     5.3976

*** Psi4 exiting successfully. Buy a developer a beer!
