                               Psi4 1.3.2 release

  ==> Input File <==

--------------------------------------------------------------------------
#psi4
#
memory 32 gb

molecule  {
0 1
  O        1.3620710    -0.3800110    -0.9318440
  O        3.2020570     1.9012130    -0.2995130
  O        2.7387245    -2.7755229    -0.3656336
  O       -1.3621860     2.3740050     0.1547830
  N       -0.7982440     0.1994180    -0.2292560
  N       -3.0541720     0.8052390     0.2400120
  N       -4.6734100    -0.8124350     0.4126370
  C        2.7015950     0.8755540     0.5594740
  C        1.2368440     1.1072260     0.8878520
  C        2.6518190    -0.3922910    -0.2854700
  C        0.5739580     0.6830040    -0.4149160
  C        2.8020980    -1.6600160     0.5224700
  C       -1.1273370    -1.1158190    -0.3082760
  C       -1.7446880     1.2038920     0.0820450
  C       -2.4173070    -1.5045610    -0.1045420
  C       -3.3619920    -0.4731600     0.1685110
  H        3.3343810     0.7567850     1.4508530
  H        0.9047070     0.4438290     1.6934890
  H        0.9853290     2.1340670     1.1581470
  H        0.5274540     1.5132540    -1.1249130
  H        3.4174920    -0.3642830    -1.0666260
  H        1.9544163    -1.7820155     1.2171148
  H        3.7460890    -1.6095150     1.0882890
  H        3.1038510     2.7463240     0.1779830
  H       -0.3107400    -1.7892010    -0.5436980
  H        2.9100300    -3.5650720     0.1192120
  H       -2.7034680    -2.5490840    -0.1532500
  H       -5.0287110    -1.6377420    -0.0567190
  H       -5.2994710    -0.0137980     0.3861010
units angstrom
no_reorient  #important for SAPT in psi4, default
symmetry c1  #important for SAPT in psi4, default
}

set PROPERTIES_ORIGIN ["COM"]
properties('MP2/aug-cc-pvtz', properties = ['dipole'])
--------------------------------------------------------------------------

    Molecular point group: c1
  Charge       = 0
  Multiplicity = 1
  Basis Set: AUG-CC-PVTZ
    Blend: AUG-CC-PVTZ
  Basis Set: (AUG-CC-PVTZ AUX)
    Blend: AUG-CC-PVTZ-JKFIT

    Orbital Energies [Eh]
    ---------------------

    Doubly Occupied:

       1A    -20.574901     2A    -20.573105     3A    -20.571701
       4A    -20.502862     5A    -15.621501     6A    -15.588104
       7A    -15.540534     8A    -11.369687     9A    -11.344752
      10A    -11.330770    11A    -11.317845    12A    -11.301720
      13A    -11.297294    14A    -11.294640    15A    -11.236802
      16A    -11.236630    17A     -1.416950    18A     -1.382879
      19A     -1.376989    20A     -1.366991    21A     -1.291994
      22A     -1.261217    23A     -1.168875    24A     -1.078997
      25A     -1.069336    26A     -1.028654    27A     -0.928017
      28A     -0.897498    29A     -0.869342    30A     -0.830832
      31A     -0.806510    32A     -0.754056    33A     -0.738622
      34A     -0.722101    35A     -0.707966    36A     -0.698024
      37A     -0.689536    38A     -0.675470    39A     -0.656110
      40A     -0.636623    41A     -0.627556    42A     -0.619203
      43A     -0.606048    44A     -0.596666    45A     -0.587992
      46A     -0.572865    47A     -0.569321    48A     -0.542413
      49A     -0.532412    50A     -0.523785    51A     -0.511169
      52A     -0.486649    53A     -0.482040    54A     -0.467446
      55A     -0.460497    56A     -0.444599    57A     -0.438160
      58A     -0.416146    59A     -0.383533    60A     -0.334656

  @DF-RHF Final Energy:  -811.48004594179497

   => Energetics <=

    Nuclear Repulsion Energy =           1170.2117165593513164
    One-Electron Energy =               -3435.4643411055235447
    Two-Electron Energy =                1453.7725786043772587
    Total Energy =                       -811.4800459417949696
  Basis Set: (AUG-CC-PVTZ AUX)
    Blend: AUG-CC-PVTZ-RI
    Molecular point group: c1

    Geometry (in Angstrom), charge = 0, multiplicity = 1:

       Center              X                  Y                   Z               Mass
    ------------   -----------------  -----------------  -----------------  -----------------
         O            1.366417583570    -0.377922474833    -0.934162820453    15.994914619570
         O            3.206403583570     1.903301525167    -0.301831820453    15.994914619570
         O            2.743071083570    -2.773434374833    -0.367952420453    15.994914619570
         O           -1.357839416430     2.376093525167     0.152464179547    15.994914619570
         N           -0.793897416430     0.201506525167    -0.231574820453    14.003074004430
         N           -3.049825416430     0.807327525167     0.237693179547    14.003074004430
         N           -4.669063416430    -0.810346474833     0.410318179547    14.003074004430
         C            2.705941583570     0.877642525167     0.557155179547    12.000000000000
         C            1.241190583570     1.109314525167     0.885533179547    12.000000000000
         C            2.656165583570    -0.390202474833    -0.287788820453    12.000000000000
         C            0.578304583570     0.685092525167    -0.417234820453    12.000000000000
         C            2.806444583570    -1.657927474833     0.520151179547    12.000000000000
         C           -1.122990416430    -1.113730474833    -0.310594820453    12.000000000000
         C           -1.740341416430     1.205980525167     0.079726179547    12.000000000000
         C           -2.412960416430    -1.502472474833    -0.106860820453    12.000000000000
         C           -3.357645416430    -0.471071474833     0.166192179547    12.000000000000
         H            3.338727583570     0.758873525167     1.448534179547     1.007825032230
         H            0.909053583570     0.445917525167     1.691170179547     1.007825032230
         H            0.989675583570     2.136155525167     1.155828179547     1.007825032230
         H            0.531800583570     1.515342525167    -1.127231820453     1.007825032230
         H            3.421838583570    -0.362194474833    -1.068944820453     1.007825032230
         H            1.958762883570    -1.779926974833     1.214795979547     1.007825032230
         H            3.750435583570    -1.607426474833     1.085970179547     1.007825032230
         H            3.108197583570     2.748412525167     0.175664179547     1.007825032230
         H           -0.306393416430    -1.787112474833    -0.546016820453     1.007825032230
         H            2.914376583570    -3.562983474833     0.116893179547     1.007825032230
         H           -2.699121416430    -2.546995474833    -0.155568820453     1.007825032230
         H           -5.024364416430    -1.635653474833    -0.059037820453     1.007825032230
         H           -5.295124416430    -0.011709474833     0.383782179547     1.007825032230

  Basis Set: AUG-CC-PVTZ
    Blend: AUG-CC-PVTZ
  Basis Set: (AUG-CC-PVTZ AUX)
    Blend: AUG-CC-PVTZ-JKFIT
	 Reference Energy          =    -811.4800459417949696 [Eh]
	 Singles Energy            =      -0.0000000000000000 [Eh]
	 Same-Spin Energy          =      -0.8291260514205390 [Eh]
	 Opposite-Spin Energy      =      -2.5239146103334571 [Eh]
	 Correlation Energy        =      -3.3530406617539961 [Eh]
	 Total Energy              =    -814.8330866035489635 [Eh]

	 ================> DF-SCS-MP2 Energies <==================
	-----------------------------------------------------------
	 SCS Same-Spin Scale       =       0.3333333333333333 [-]
	 SCS Opposite-Spin Scale   =       1.2000000000000000 [-]
	 SCS Same-Spin Energy      =      -0.2763753504735130 [Eh]
	 SCS Opposite-Spin Energy  =      -3.0286975324001486 [Eh]
	 SCS Correlation Energy    =      -3.3050728828736617 [Eh]
	 SCS Total Energy          =    -814.7851188246686434 [Eh]
	-----------------------------------------------------------

  Dipole Moment: [D]
     X:     1.2152      Y:    -4.6166      Z:     2.4464     Total:     5.3641

*** Psi4 exiting successfully. Buy a developer a beer!
