                               Psi4 1.3.2 release

  ==> Input File <==

--------------------------------------------------------------------------
#psi4
#
memory 32 gb

molecule  {
0 1
  O        1.3402963    -0.3815095    -0.8864625
  O        3.2020570     1.9012130    -0.2995130
  O        2.7994070    -2.7489470    -0.4002010
  O       -1.3621860     2.3740050     0.1547830
  N       -0.7982440     0.1994180    -0.2292560
  N       -3.0541720     0.8052390     0.2400120
  N       -4.6734100    -0.8124350     0.4126370
  C        2.7015950     0.8755540     0.5594740
  C        1.2368440     1.1072260     0.8878520
  C        2.6518190    -0.3922910    -0.2854700
  C        0.5739580     0.6830040    -0.4149160
  C        2.8020980    -1.6600160     0.5224700
  C       -1.1273370    -1.1158190    -0.3082760
  C       -1.7446880     1.2038920     0.0820450
  C       -2.4173070    -1.5045610    -0.1045420
  C       -3.3619920    -0.4731600     0.1685110
  H        3.3343810     0.7567850     1.4508530
  H        0.9047070     0.4438290     1.6934890
  H        0.9853290     2.1340670     1.1581470
  H        0.5274540     1.5132540    -1.1249130
  H        3.4443042    -0.3649550    -1.0394357
  H        1.9707490    -1.7331840     1.2432230
  H        3.7460890    -1.6095150     1.0882890
  H        3.1038510     2.7463240     0.1779830
  H       -0.3107400    -1.7892010    -0.5436980
  H        2.9100300    -3.5650720     0.1192120
  H       -2.7034680    -2.5490840    -0.1532500
  H       -5.0287110    -1.6377420    -0.0567190
  H       -5.2994710    -0.0137980     0.3861010
units angstrom
no_reorient  #important for SAPT in psi4, default
symmetry c1  #important for SAPT in psi4, default
}

set PROPERTIES_ORIGIN ["COM"]
properties('MP2/aug-cc-pvtz', properties = ['dipole'])
--------------------------------------------------------------------------

    Molecular point group: c1
  Charge       = 0
  Multiplicity = 1
  Basis Set: AUG-CC-PVTZ
    Blend: AUG-CC-PVTZ
  Basis Set: (AUG-CC-PVTZ AUX)
    Blend: AUG-CC-PVTZ-JKFIT

    Orbital Energies [Eh]
    ---------------------

    Doubly Occupied:

       1A    -20.578179     2A    -20.574451     3A    -20.573295
       4A    -20.502383     5A    -15.620532     6A    -15.587853
       7A    -15.540115     8A    -11.369076     9A    -11.344403
      10A    -11.329202    11A    -11.317490    12A    -11.300400
      13A    -11.296914    14A    -11.295150    15A    -11.236346
      16A    -11.235023    17A     -1.424715    18A     -1.381999
      19A     -1.373919    20A     -1.367730    21A     -1.291549
      22A     -1.260594    23A     -1.168455    24A     -1.077531
      25A     -1.070398    26A     -1.028881    27A     -0.926576
      28A     -0.897200    29A     -0.868820    30A     -0.831624
      31A     -0.806900    32A     -0.753712    33A     -0.739924
      34A     -0.722255    35A     -0.706609    36A     -0.694099
      37A     -0.689130    38A     -0.678441    39A     -0.658022
      40A     -0.637034    41A     -0.627135    42A     -0.618369
      43A     -0.603764    44A     -0.595802    45A     -0.589204
      46A     -0.574311    47A     -0.572345    48A     -0.543903
      49A     -0.531892    50A     -0.523407    51A     -0.509836
      52A     -0.485241    53A     -0.481262    54A     -0.468759
      55A     -0.461662    56A     -0.443753    57A     -0.437439
      58A     -0.415679    59A     -0.383094    60A     -0.334203

  @DF-RHF Final Energy:  -811.47924400883710

   => Energetics <=

    Nuclear Repulsion Energy =           1171.1604884835539906
    One-Electron Energy =               -3437.3634885449946523
    Two-Electron Energy =                1454.7237560526032212
    Total Energy =                       -811.4792440088372132
  Basis Set: (AUG-CC-PVTZ AUX)
    Blend: AUG-CC-PVTZ-RI
    Molecular point group: c1

    Geometry (in Angstrom), charge = 0, multiplicity = 1:

       Center              X                  Y                   Z               Mass
    ------------   -----------------  -----------------  -----------------  -----------------
         O            1.341710972553    -0.381401009277    -0.889779539502    15.994914619570
         O            3.203471672553     1.901321490723    -0.302830039502    15.994914619570
         O            2.800821672553    -2.748838509277    -0.403518039502    15.994914619570
         O           -1.360771327447     2.374113490723     0.151465960498    15.994914619570
         N           -0.796829327447     0.199526490723    -0.232573039502    14.003074004430
         N           -3.052757327447     0.805347490723     0.236694960498    14.003074004430
         N           -4.671995327447    -0.812326509277     0.409319960498    14.003074004430
         C            2.703009672553     0.875662490723     0.556156960498    12.000000000000
         C            1.238258672553     1.107334490723     0.884534960498    12.000000000000
         C            2.653233672553    -0.392182509277    -0.288787039502    12.000000000000
         C            0.575372672553     0.683112490723    -0.418233039502    12.000000000000
         C            2.803512672553    -1.659907509277     0.519152960498    12.000000000000
         C           -1.125922327447    -1.115710509277    -0.311593039502    12.000000000000
         C           -1.743273327447     1.204000490723     0.078727960498    12.000000000000
         C           -2.415892327447    -1.504452509277    -0.107859039502    12.000000000000
         C           -3.360577327447    -0.473051509277     0.165193960498    12.000000000000
         H            3.335795672553     0.756893490723     1.447535960498     1.007825032230
         H            0.906121672553     0.443937490723     1.690171960498     1.007825032230
         H            0.986743672553     2.134175490723     1.154829960498     1.007825032230
         H            0.528868672553     1.513362490723    -1.128230039502     1.007825032230
         H            3.445718872553    -0.364846509277    -1.042752739502     1.007825032230
         H            1.972163672553    -1.733075509277     1.239905960498     1.007825032230
         H            3.747503672553    -1.609406509277     1.084971960498     1.007825032230
         H            3.105265672553     2.746432490723     0.174665960498     1.007825032230
         H           -0.309325327447    -1.789092509277    -0.547015039502     1.007825032230
         H            2.911444672553    -3.564963509277     0.115894960498     1.007825032230
         H           -2.702053327447    -2.548975509277    -0.156567039502     1.007825032230
         H           -5.027296327447    -1.637633509277    -0.060036039502     1.007825032230
         H           -5.298056327447    -0.013689509277     0.382783960498     1.007825032230

  Basis Set: AUG-CC-PVTZ
    Blend: AUG-CC-PVTZ
  Basis Set: (AUG-CC-PVTZ AUX)
    Blend: AUG-CC-PVTZ-JKFIT
	 Reference Energy          =    -811.4792440088370995 [Eh]
	 Singles Energy            =      -0.0000000000000000 [Eh]
	 Same-Spin Energy          =      -0.8296278558248359 [Eh]
	 Opposite-Spin Energy      =      -2.5244841403341982 [Eh]
	 Correlation Energy        =      -3.3541119961590340 [Eh]
	 Total Energy              =    -814.8333560049961761 [Eh]

	 ================> DF-SCS-MP2 Energies <==================
	-----------------------------------------------------------
	 SCS Same-Spin Scale       =       0.3333333333333333 [-]
	 SCS Opposite-Spin Scale   =       1.2000000000000000 [-]
	 SCS Same-Spin Energy      =      -0.2765426186082786 [Eh]
	 SCS Opposite-Spin Energy  =      -3.0293809684010378 [Eh]
	 SCS Correlation Energy    =      -3.3059235870093162 [Eh]
	 SCS Total Energy          =    -814.7851675958463602 [Eh]
	-----------------------------------------------------------

  Dipole Moment: [D]
     X:     1.1773      Y:    -4.7109      Z:     2.4058     Total:     5.4191

*** Psi4 exiting successfully. Buy a developer a beer!
