                               Psi4 1.3.2 release

  ==> Input File <==

--------------------------------------------------------------------------
#psi4
#
memory 32 gb

molecule  {
0 1
  O        1.3620710    -0.3800110    -0.9318440
  O        3.2020570     1.9012130    -0.2995130
  O        2.7994070    -2.7489470    -0.4002010
  O       -1.3621860     2.3740050     0.1547830
  N       -0.7982440     0.1994180    -0.2292560
  N       -3.0541720     0.8052390     0.2400120
  N       -4.6734100    -0.8124350     0.4126370
  C        2.7015950     0.8755540     0.5594740
  C        1.2368440     1.1072260     0.8878520
  C        2.6518190    -0.3922910    -0.2854700
  C        0.5739580     0.6830040    -0.4149160
  C        2.8020980    -1.6600160     0.5224700
  C       -1.1273370    -1.1158190    -0.3082760
  C       -1.7446880     1.2038920     0.0820450
  C       -2.4173070    -1.5045610    -0.1045420
  C       -3.3619920    -0.4731600     0.1685110
  H        3.3343810     0.7567850     1.4508530
  H        0.9047070     0.4438290     1.6934890
  H        0.9853290     2.1340670     1.1581470
  H        0.5274540     1.5132540    -1.1249130
  H        3.4174920    -0.3642830    -1.0666260
  H        1.9707490    -1.7331840     1.2432230
  H        3.7460890    -1.6095150     1.0882890
  H        3.1038510     2.7463240     0.1779830
  H       -0.3107400    -1.7892010    -0.5436980
  H        2.9100300    -3.5650720     0.1192120
  H       -2.7034680    -2.5490840    -0.1532500
  H       -5.0434390    -1.6288559    -0.0608616
  H       -5.3111349    -0.0234440     0.3768923
units angstrom
no_reorient  #important for SAPT in psi4, default
symmetry c1  #important for SAPT in psi4, default
}

set PROPERTIES_ORIGIN ["COM"]
properties('MP2/aug-cc-pvtz', properties = ['dipole'])
--------------------------------------------------------------------------

    Molecular point group: c1
  Charge       = 0
  Multiplicity = 1
  Basis Set: AUG-CC-PVTZ
    Blend: AUG-CC-PVTZ
  Basis Set: (AUG-CC-PVTZ AUX)
    Blend: AUG-CC-PVTZ-JKFIT

    Orbital Energies [Eh]
    ---------------------

    Doubly Occupied:

       1A    -20.577750     2A    -20.574349     3A    -20.572894
       4A    -20.503074     5A    -15.621792     6A    -15.588238
       7A    -15.540924     8A    -11.369915     9A    -11.345442
      10A    -11.330756    11A    -11.318275    12A    -11.300865
      13A    -11.296865    14A    -11.293082    15A    -11.237047
      16A    -11.236801    17A     -1.416675    18A     -1.382446
      19A     -1.373575    20A     -1.365718    21A     -1.292134
      22A     -1.261306    23A     -1.169218    24A     -1.078994
      25A     -1.068942    26A     -1.028031    27A     -0.926984
      28A     -0.897470    29A     -0.869327    30A     -0.831050
      31A     -0.806384    32A     -0.753311    33A     -0.738765
      34A     -0.720946    35A     -0.707906    36A     -0.692889
      37A     -0.689430    38A     -0.674595    39A     -0.655924
      40A     -0.637047    41A     -0.627625    42A     -0.618584
      43A     -0.604488    44A     -0.595158    45A     -0.588558
      46A     -0.572844    47A     -0.568757    48A     -0.544861
      49A     -0.532523    50A     -0.523738    51A     -0.510433
      52A     -0.485885    53A     -0.482086    54A     -0.468503
      55A     -0.461135    56A     -0.444480    57A     -0.437846
      58A     -0.416380    59A     -0.384011    60A     -0.334889

  @DF-RHF Final Energy:  -811.47923539670296

   => Energetics <=

    Nuclear Repulsion Energy =           1169.8823984321995795
    One-Electron Energy =               -3434.8234273501311691
    Two-Electron Energy =                1453.4617935212284010
    Total Energy =                       -811.4792353967029612
  Basis Set: (AUG-CC-PVTZ AUX)
    Blend: AUG-CC-PVTZ-RI
    Molecular point group: c1

    Geometry (in Angstrom), charge = 0, multiplicity = 1:

       Center              X                  Y                   Z               Mass
    ------------   -----------------  -----------------  -----------------  -----------------
         O            1.362188110981    -0.380007664625    -0.931784712886    15.994914619570
         O            3.202174110981     1.901216335375    -0.299453712886    15.994914619570
         O            2.799524110981    -2.748943664625    -0.400141712886    15.994914619570
         O           -1.362068889019     2.374008335375     0.154842287114    15.994914619570
         N           -0.798126889019     0.199421335375    -0.229196712886    14.003074004430
         N           -3.054054889019     0.805242335375     0.240071287114    14.003074004430
         N           -4.673292889019    -0.812431664625     0.412696287114    14.003074004430
         C            2.701712110981     0.875557335375     0.559533287114    12.000000000000
         C            1.236961110981     1.107229335375     0.887911287114    12.000000000000
         C            2.651936110981    -0.392287664625    -0.285410712886    12.000000000000
         C            0.574075110981     0.683007335375    -0.414856712886    12.000000000000
         C            2.802215110981    -1.660012664625     0.522529287114    12.000000000000
         C           -1.127219889019    -1.115815664625    -0.308216712886    12.000000000000
         C           -1.744570889019     1.203895335375     0.082104287114    12.000000000000
         C           -2.417189889019    -1.504557664625    -0.104482712886    12.000000000000
         C           -3.361874889019    -0.473156664625     0.168570287114    12.000000000000
         H            3.334498110981     0.756788335375     1.450912287114     1.007825032230
         H            0.904824110981     0.443832335375     1.693548287114     1.007825032230
         H            0.985446110981     2.134070335375     1.158206287114     1.007825032230
         H            0.527571110981     1.513257335375    -1.124853712886     1.007825032230
         H            3.417609110981    -0.364279664625    -1.066566712886     1.007825032230
         H            1.970866110981    -1.733180664625     1.243282287114     1.007825032230
         H            3.746206110981    -1.609511664625     1.088348287114     1.007825032230
         H            3.103968110981     2.746327335375     0.178042287114     1.007825032230
         H           -0.310622889019    -1.789197664625    -0.543638712886     1.007825032230
         H            2.910147110981    -3.565068664625     0.119271287114     1.007825032230
         H           -2.703350889019    -2.549080664625    -0.153190712886     1.007825032230
         H           -5.043321889019    -1.628852564625    -0.060802312886     1.007825032230
         H           -5.311017789019    -0.023440664625     0.376951587114     1.007825032230

  Basis Set: AUG-CC-PVTZ
    Blend: AUG-CC-PVTZ
  Basis Set: (AUG-CC-PVTZ AUX)
    Blend: AUG-CC-PVTZ-JKFIT
	 Reference Energy          =    -811.4792353967029612 [Eh]
	 Singles Energy            =      -0.0000000000000000 [Eh]
	 Same-Spin Energy          =      -0.8296406526473612 [Eh]
	 Opposite-Spin Energy      =      -2.5251448100849707 [Eh]
	 Correlation Energy        =      -3.3547854627323321 [Eh]
	 Total Energy              =    -814.8340208594353271 [Eh]

	 ================> DF-SCS-MP2 Energies <==================
	-----------------------------------------------------------
	 SCS Same-Spin Scale       =       0.3333333333333333 [-]
	 SCS Opposite-Spin Scale   =       1.2000000000000000 [-]
	 SCS Same-Spin Energy      =      -0.2765468842157870 [Eh]
	 SCS Opposite-Spin Energy  =      -3.0301737721019646 [Eh]
	 SCS Correlation Energy    =      -3.3067206563177516 [Eh]
	 SCS Total Energy          =    -814.7859560530207546 [Eh]
	-----------------------------------------------------------

  Dipole Moment: [D]
     X:     1.0677      Y:    -4.6726      Z:     2.4700     Total:     5.3920

*** Psi4 exiting successfully. Buy a developer a beer!
