                               Psi4 1.3.2 release

  ==> Input File <==

--------------------------------------------------------------------------
#psi4
#
memory 32 gb

molecule  {
0 1
  O        1.3620710    -0.3800110    -0.9318440
  O        3.2020570     1.9012130    -0.2995130
  O        2.7994070    -2.7489470    -0.4002010
  O       -1.3621860     2.3740050     0.1547830
  N       -0.7982440     0.1994180    -0.2292560
  N       -3.0541720     0.8052390     0.2400120
  N       -4.6734100    -0.8124350     0.4126370
  C        2.7015950     0.8755540     0.5594740
  C        1.2368440     1.1072260     0.8878520
  C        2.6518190    -0.3922910    -0.2854700
  C        0.5739580     0.6830040    -0.4149160
  C        2.8020980    -1.6600160     0.5224700
  C       -1.1155313    -1.1614046    -0.3149562
  C       -1.7446880     1.2038920     0.0820450
  C       -2.4173070    -1.5045610    -0.1045420
  C       -3.3619920    -0.4731600     0.1685110
  H        3.3343810     0.7567850     1.4508530
  H        0.9047070     0.4438290     1.6934890
  H        0.9853290     2.1340670     1.1581470
  H        0.5274540     1.5132540    -1.1249130
  H        3.4174920    -0.3642830    -1.0666260
  H        1.9707490    -1.7331840     1.2432230
  H        3.7460890    -1.6095150     1.0882890
  H        3.1038510     2.7463240     0.1779830
  H       -0.3107400    -1.7892010    -0.5436980
  H        2.9100300    -3.5650720     0.1192120
  H       -2.6674666    -2.5579066    -0.1608636
  H       -5.0287110    -1.6377420    -0.0567190
  H       -5.2994710    -0.0137980     0.3861010
units angstrom
no_reorient  #important for SAPT in psi4, default
symmetry c1  #important for SAPT in psi4, default
}

set PROPERTIES_ORIGIN ["COM"]
properties('MP2/aug-cc-pvtz', properties = ['dipole'])
--------------------------------------------------------------------------

    Molecular point group: c1
  Charge       = 0
  Multiplicity = 1
  Basis Set: AUG-CC-PVTZ
    Blend: AUG-CC-PVTZ
  Basis Set: (AUG-CC-PVTZ AUX)
    Blend: AUG-CC-PVTZ-JKFIT

    Orbital Energies [Eh]
    ---------------------

    Doubly Occupied:

       1A    -20.577503     2A    -20.573180     3A    -20.571478
       4A    -20.502032     5A    -15.617991     6A    -15.590428
       7A    -15.542651     8A    -11.369256     9A    -11.348493
      10A    -11.327596    11A    -11.319436    12A    -11.299525
      13A    -11.296347    14A    -11.292050    15A    -11.241488
      16A    -11.234738    17A     -1.414372    18A     -1.379863
      19A     -1.372972    20A     -1.364702    21A     -1.290178
      22A     -1.253884    23A     -1.169450    24A     -1.078530
      25A     -1.068976    26A     -1.026540    27A     -0.924825
      28A     -0.898500    29A     -0.867577    30A     -0.828677
      31A     -0.805685    32A     -0.752689    33A     -0.736263
      34A     -0.720075    35A     -0.709942    36A     -0.692223
      37A     -0.687962    38A     -0.677875    39A     -0.655647
      40A     -0.636213    41A     -0.624842    42A     -0.621279
      43A     -0.606904    44A     -0.597950    45A     -0.588476
      46A     -0.568181    47A     -0.566870    48A     -0.544125
      49A     -0.532128    50A     -0.521363    51A     -0.509564
      52A     -0.484515    53A     -0.478265    54A     -0.467855
      55A     -0.459302    56A     -0.444211    57A     -0.437556
      58A     -0.416782    59A     -0.383531    60A     -0.337227

  @DF-RHF Final Energy:  -811.47492197169709

   => Energetics <=

    Nuclear Repulsion Energy =           1169.0112892769711834
    One-Electron Energy =               -3433.1549544202580364
    Two-Electron Energy =                1452.6687431715897674
    Total Energy =                       -811.4749219716970856
  Basis Set: (AUG-CC-PVTZ AUX)
    Blend: AUG-CC-PVTZ-RI
    Molecular point group: c1

    Geometry (in Angstrom), charge = 0, multiplicity = 1:

       Center              X                  Y                   Z               Mass
    ------------   -----------------  -----------------  -----------------  -----------------
         O            1.361287369496    -0.377563032498    -0.931457179292    15.994914619570
         O            3.201273369496     1.903660967502    -0.299126179292    15.994914619570
         O            2.798623369496    -2.746499032498    -0.399814179292    15.994914619570
         O           -1.362969630504     2.376452967502     0.155169820708    15.994914619570
         N           -0.799027630504     0.201865967502    -0.228869179292    14.003074004430
         N           -3.054955630504     0.807686967502     0.240398820708    14.003074004430
         N           -4.674193630504    -0.809987032498     0.413023820708    14.003074004430
         C            2.700811369496     0.878001967502     0.559860820708    12.000000000000
         C            1.236060369496     1.109673967502     0.888238820708    12.000000000000
         C            2.651035369496    -0.389843032498    -0.285083179292    12.000000000000
         C            0.573174369496     0.685451967502    -0.414529179292    12.000000000000
         C            2.801314369496    -1.657568032498     0.522856820708    12.000000000000
         C           -1.116314930504    -1.158956632498    -0.314569379292    12.000000000000
         C           -1.745471630504     1.206339967502     0.082431820708    12.000000000000
         C           -2.418090630504    -1.502113032498    -0.104155179292    12.000000000000
         C           -3.362775630504    -0.470712032498     0.168897820708    12.000000000000
         H            3.333597369496     0.759232967502     1.451239820708     1.007825032230
         H            0.903923369496     0.446276967502     1.693875820708     1.007825032230
         H            0.984545369496     2.136514967502     1.158533820708     1.007825032230
         H            0.526670369496     1.515701967502    -1.124526179292     1.007825032230
         H            3.416708369496    -0.361835032498    -1.066239179292     1.007825032230
         H            1.969965369496    -1.730736032498     1.243609820708     1.007825032230
         H            3.745305369496    -1.607067032498     1.088675820708     1.007825032230
         H            3.103067369496     2.748771967502     0.178369820708     1.007825032230
         H           -0.311523630504    -1.786753032498    -0.543311179292     1.007825032230
         H            2.909246369496    -3.562624032498     0.119598820708     1.007825032230
         H           -2.668250230504    -2.555458632498    -0.160476779292     1.007825032230
         H           -5.029494630504    -1.635294032498    -0.056332179292     1.007825032230
         H           -5.300254630504    -0.011350032498     0.386487820708     1.007825032230

  Basis Set: AUG-CC-PVTZ
    Blend: AUG-CC-PVTZ
  Basis Set: (AUG-CC-PVTZ AUX)
    Blend: AUG-CC-PVTZ-JKFIT
	 Reference Energy          =    -811.4749219716970856 [Eh]
	 Singles Energy            =      -0.0000000000000000 [Eh]
	 Same-Spin Energy          =      -0.8296723467090675 [Eh]
	 Opposite-Spin Energy      =      -2.5260536238306512 [Eh]
	 Correlation Energy        =      -3.3557259705397189 [Eh]
	 Total Energy              =    -814.8306479422368511 [Eh]

	 ================> DF-SCS-MP2 Energies <==================
	-----------------------------------------------------------
	 SCS Same-Spin Scale       =       0.3333333333333333 [-]
	 SCS Opposite-Spin Scale   =       1.2000000000000000 [-]
	 SCS Same-Spin Energy      =      -0.2765574489030225 [Eh]
	 SCS Opposite-Spin Energy  =      -3.0312643485967814 [Eh]
	 SCS Correlation Energy    =      -3.3078217974998037 [Eh]
	 SCS Total Energy          =    -814.7827437691969408 [Eh]
	-----------------------------------------------------------

  Dipole Moment: [D]
     X:     0.9154      Y:    -4.7787      Z:     2.4927     Total:     5.4670

*** Psi4 exiting successfully. Buy a developer a beer!
