                               Psi4 1.3.2 release

  ==> Input File <==

--------------------------------------------------------------------------
#psi4
#
memory 32 gb

molecule  {
0 1
  O        1.3620710    -0.3800110    -0.9318440
  O        3.2020570     1.9012130    -0.2995130
  O        2.7994070    -2.7489470    -0.4002010
  O       -1.3621860     2.3740050     0.1547830
  N       -0.7982440     0.1994180    -0.2292560
  N       -3.0541720     0.8052390     0.2400120
  N       -4.6734100    -0.8124350     0.4126370
  C        2.7015950     0.8755540     0.5594740
  C        1.2430193     1.1560094     0.8677412
  C        2.6518190    -0.3922910    -0.2854700
  C        0.5739580     0.6830040    -0.4149160
  C        2.8020980    -1.6600160     0.5224700
  C       -1.1273370    -1.1158190    -0.3082760
  C       -1.7446880     1.2038920     0.0820450
  C       -2.4173070    -1.5045610    -0.1045420
  C       -3.3619920    -0.4731600     0.1685110
  H        3.3343810     0.7567850     1.4508530
  H        0.9047070     0.4438290     1.6934890
  H        0.9853290     2.1340670     1.1581470
  H        0.5446846     1.5354377    -1.0990748
  H        3.4174920    -0.3642830    -1.0666260
  H        1.9707490    -1.7331840     1.2432230
  H        3.7460890    -1.6095150     1.0882890
  H        3.1038510     2.7463240     0.1779830
  H       -0.3107400    -1.7892010    -0.5436980
  H        2.9100300    -3.5650720     0.1192120
  H       -2.7034680    -2.5490840    -0.1532500
  H       -5.0287110    -1.6377420    -0.0567190
  H       -5.2994710    -0.0137980     0.3861010
units angstrom
no_reorient  #important for SAPT in psi4, default
symmetry c1  #important for SAPT in psi4, default
}

set PROPERTIES_ORIGIN ["COM"]
properties('MP2/aug-cc-pvtz', properties = ['dipole'])
--------------------------------------------------------------------------

    Molecular point group: c1
  Charge       = 0
  Multiplicity = 1
  Basis Set: AUG-CC-PVTZ
    Blend: AUG-CC-PVTZ
  Basis Set: (AUG-CC-PVTZ AUX)
    Blend: AUG-CC-PVTZ-JKFIT

    Orbital Energies [Eh]
    ---------------------

    Doubly Occupied:

       1A    -20.577960     2A    -20.574326     3A    -20.572914
       4A    -20.503423     5A    -15.622618     6A    -15.588475
       7A    -15.540950     8A    -11.370188     9A    -11.345205
      10A    -11.330771    11A    -11.318589    12A    -11.301226
      13A    -11.297034    14A    -11.294060    15A    -11.237279
      16A    -11.237228    17A     -1.416857    18A     -1.382675
      19A     -1.373709    20A     -1.365817    21A     -1.292455
      22A     -1.261579    23A     -1.169239    24A     -1.078836
      25A     -1.068654    26A     -1.028938    27A     -0.926876
      28A     -0.897578    29A     -0.869421    30A     -0.830333
      31A     -0.807633    32A     -0.754131    33A     -0.739213
      34A     -0.721984    35A     -0.707102    36A     -0.694535
      37A     -0.688544    38A     -0.675169    39A     -0.656671
      40A     -0.637549    41A     -0.626100    42A     -0.617823
      43A     -0.604701    44A     -0.594823    45A     -0.589805
      46A     -0.574326    47A     -0.568430    48A     -0.548002
      49A     -0.530739    50A     -0.529652    51A     -0.503982
      52A     -0.486490    53A     -0.482120    54A     -0.467470
      55A     -0.460909    56A     -0.444516    57A     -0.437064
      58A     -0.416665    59A     -0.383648    60A     -0.335209

  @DF-RHF Final Energy:  -811.47567554546208

   => Energetics <=

    Nuclear Repulsion Energy =           1169.7300723598323202
    One-Electron Energy =               -3434.4910631773768728
    Two-Electron Energy =                1453.2853152720824710
    Total Energy =                       -811.4756755454620816
  Basis Set: (AUG-CC-PVTZ AUX)
    Blend: AUG-CC-PVTZ-RI
    Molecular point group: c1

    Geometry (in Angstrom), charge = 0, multiplicity = 1:

       Center              X                  Y                   Z               Mass
    ------------   -----------------  -----------------  -----------------  -----------------
         O            1.361668197588    -0.382687317233    -0.930895933537    15.994914619570
         O            3.201654197588     1.898536682767    -0.298564933537    15.994914619570
         O            2.799004197588    -2.751623317233    -0.399252933537    15.994914619570
         O           -1.362588802412     2.371328682767     0.155731066463    15.994914619570
         N           -0.798646802412     0.196741682767    -0.228307933537    14.003074004430
         N           -3.054574802412     0.802562682767     0.240960066463    14.003074004430
         N           -4.673812802412    -0.815111317233     0.413585066463    14.003074004430
         C            2.701192197588     0.872877682767     0.560422066463    12.000000000000
         C            1.242616497588     1.153333082767     0.868689266463    12.000000000000
         C            2.651416197588    -0.394967317233    -0.284521933537    12.000000000000
         C            0.573555197588     0.680327682767    -0.413967933537    12.000000000000
         C            2.801695197588    -1.662692317233     0.523418066463    12.000000000000
         C           -1.127739802412    -1.118495317233    -0.307327933537    12.000000000000
         C           -1.745090802412     1.201215682767     0.082993066463    12.000000000000
         C           -2.417709802412    -1.507237317233    -0.103593933537    12.000000000000
         C           -3.362394802412    -0.475836317233     0.169459066463    12.000000000000
         H            3.333978197588     0.754108682767     1.451801066463     1.007825032230
         H            0.904304197588     0.441152682767     1.694437066463     1.007825032230
         H            0.984926197588     2.131390682767     1.159095066463     1.007825032230
         H            0.544281797588     1.532761382767    -1.098126733537     1.007825032230
         H            3.417089197588    -0.366959317233    -1.065677933537     1.007825032230
         H            1.970346197588    -1.735860317233     1.244171066463     1.007825032230
         H            3.745686197588    -1.612191317233     1.089237066463     1.007825032230
         H            3.103448197588     2.743647682767     0.178931066463     1.007825032230
         H           -0.311142802412    -1.791877317233    -0.542749933537     1.007825032230
         H            2.909627197588    -3.567748317233     0.120160066463     1.007825032230
         H           -2.703870802412    -2.551760317233    -0.152301933537     1.007825032230
         H           -5.029113802412    -1.640418317233    -0.055770933537     1.007825032230
         H           -5.299873802412    -0.016474317233     0.387049066463     1.007825032230

  Basis Set: AUG-CC-PVTZ
    Blend: AUG-CC-PVTZ
  Basis Set: (AUG-CC-PVTZ AUX)
    Blend: AUG-CC-PVTZ-JKFIT
	 Reference Energy          =    -811.4756755454620816 [Eh]
	 Singles Energy            =      -0.0000000000000000 [Eh]
	 Same-Spin Energy          =      -0.8296211094309741 [Eh]
	 Opposite-Spin Energy      =      -2.5252028305855569 [Eh]
	 Correlation Energy        =      -3.3548239400165309 [Eh]
	 Total Energy              =    -814.8304994854786401 [Eh]

	 ================> DF-SCS-MP2 Energies <==================
	-----------------------------------------------------------
	 SCS Same-Spin Scale       =       0.3333333333333333 [-]
	 SCS Opposite-Spin Scale   =       1.2000000000000000 [-]
	 SCS Same-Spin Energy      =      -0.2765403698103247 [Eh]
	 SCS Opposite-Spin Energy  =      -3.0302433967026681 [Eh]
	 SCS Correlation Energy    =      -3.3067837665129929 [Eh]
	 SCS Total Energy          =    -814.7824593119751171 [Eh]
	-----------------------------------------------------------

  Dipole Moment: [D]
     X:     1.0716      Y:    -4.6802      Z:     2.4784     Total:     5.4032

*** Psi4 exiting successfully. Buy a developer a beer!
