                               Psi4 1.3.2 release

  ==> Input File <==

--------------------------------------------------------------------------
#psi4
#
memory 32 gb

molecule  {
0 1
  O        1.3620710    -0.3800110    -0.9318440
  O        3.2020570     1.9012130    -0.2995130
  O        2.7994070    -2.7489470    -0.4002010
  O       -1.3621860     2.3740050     0.1547830
  N       -0.7982440     0.1994180    -0.2292560
  N       -3.0541720     0.8052390     0.2400120
  N       -4.6706267    -0.8240285     0.4111808
  C        2.7015950     0.8755540     0.5594740
  C        1.2368440     1.1072260     0.8878520
  C        2.6518190    -0.3922910    -0.2854700
  C        0.5739580     0.6830040    -0.4149160
  C        2.8020980    -1.6600160     0.5224700
  C       -1.1273370    -1.1158190    -0.3082760
  C       -1.7446880     1.2038920     0.0820450
  C       -2.4263115    -1.5130530    -0.1033352
  C       -3.3619920    -0.4731600     0.1685110
  H        3.3343810     0.7567850     1.4508530
  H        0.9047070     0.4438290     1.6934890
  H        0.9853290     2.1340670     1.1581470
  H        0.5274540     1.5132540    -1.1249130
  H        3.4174920    -0.3642830    -1.0666260
  H        1.9707490    -1.7331840     1.2432230
  H        3.7460890    -1.6095150     1.0882890
  H        3.1038510     2.7463240     0.1779830
  H       -0.3107400    -1.7892010    -0.5436980
  H        2.9100300    -3.5650720     0.1192120
  H       -2.7034680    -2.5490840    -0.1532500
  H       -5.0287110    -1.6377420    -0.0567190
  H       -5.2994710    -0.0137980     0.3861010
units angstrom
no_reorient  #important for SAPT in psi4, default
symmetry c1  #important for SAPT in psi4, default
}

set PROPERTIES_ORIGIN ["COM"]
properties('MP2/aug-cc-pvtz', properties = ['dipole'])
--------------------------------------------------------------------------

    Molecular point group: c1
  Charge       = 0
  Multiplicity = 1
  Basis Set: AUG-CC-PVTZ
    Blend: AUG-CC-PVTZ
  Basis Set: (AUG-CC-PVTZ AUX)
    Blend: AUG-CC-PVTZ-JKFIT

    Orbital Energies [Eh]
    ---------------------

    Doubly Occupied:

       1A    -20.577864     2A    -20.574536     3A    -20.573147
       4A    -20.503439     5A    -15.622792     6A    -15.587716
       7A    -15.541065     8A    -11.370359     9A    -11.344774
      10A    -11.331179    11A    -11.320045    12A    -11.301080
      13A    -11.297005    14A    -11.293273    15A    -11.237095
      16A    -11.236694    17A     -1.416947    18A     -1.382693
      19A     -1.373720    20A     -1.365915    21A     -1.291895
      22A     -1.261348    23A     -1.169341    24A     -1.078540
      25A     -1.068025    26A     -1.027848    27A     -0.926964
      28A     -0.897773    29A     -0.869208    30A     -0.831117
      31A     -0.806339    32A     -0.752982    33A     -0.739195
      34A     -0.721260    35A     -0.706855    36A     -0.692793
      37A     -0.689813    38A     -0.676082    39A     -0.656971
      40A     -0.638749    41A     -0.627558    42A     -0.618467
      43A     -0.604419    44A     -0.593413    45A     -0.589007
      46A     -0.572814    47A     -0.568911    48A     -0.545005
      49A     -0.532566    50A     -0.524128    51A     -0.510590
      52A     -0.486053    53A     -0.481832    54A     -0.468614
      55A     -0.461203    56A     -0.444715    57A     -0.438000
      58A     -0.416694    59A     -0.383934    60A     -0.333969

  @DF-RHF Final Energy:  -811.47858470112828

   => Energetics <=

    Nuclear Repulsion Energy =           1169.6700322247484110
    One-Electron Energy =               -3434.3845816204420771
    Two-Electron Energy =                1453.2359646945653822
    Total Energy =                       -811.4785847011282840
  Basis Set: (AUG-CC-PVTZ AUX)
    Blend: AUG-CC-PVTZ-RI
    Molecular point group: c1

    Geometry (in Angstrom), charge = 0, multiplicity = 1:

       Center              X                  Y                   Z               Mass
    ------------   -----------------  -----------------  -----------------  -----------------
         O            1.362375176520    -0.378847410588    -0.931817942345    15.994914619570
         O            3.202361176520     1.902376589412    -0.299486942345    15.994914619570
         O            2.799711176520    -2.747783410588    -0.400174942345    15.994914619570
         O           -1.361881823480     2.375168589412     0.154809057655    15.994914619570
         N           -0.797939823480     0.200581589412    -0.229229942345    14.003074004430
         N           -3.053867823480     0.806402589412     0.240038057655    14.003074004430
         N           -4.670322523480    -0.822864910588     0.411206857655    14.003074004430
         C            2.701899176520     0.876717589412     0.559500057655    12.000000000000
         C            1.237148176520     1.108389589412     0.887878057655    12.000000000000
         C            2.652123176520    -0.391127410588    -0.285443942345    12.000000000000
         C            0.574262176520     0.684167589412    -0.414889942345    12.000000000000
         C            2.802402176520    -1.658852410588     0.522496057655    12.000000000000
         C           -1.127032823480    -1.114655410588    -0.308249942345    12.000000000000
         C           -1.744383823480     1.205055589412     0.082071057655    12.000000000000
         C           -2.426007323480    -1.511889410588    -0.103309142345    12.000000000000
         C           -3.361687823480    -0.471996410588     0.168537057655    12.000000000000
         H            3.334685176520     0.757948589412     1.450879057655     1.007825032230
         H            0.905011176520     0.444992589412     1.693515057655     1.007825032230
         H            0.985633176520     2.135230589412     1.158173057655     1.007825032230
         H            0.527758176520     1.514417589412    -1.124886942345     1.007825032230
         H            3.417796176520    -0.363119410588    -1.066599942345     1.007825032230
         H            1.971053176520    -1.732020410588     1.243249057655     1.007825032230
         H            3.746393176520    -1.608351410588     1.088315057655     1.007825032230
         H            3.104155176520     2.747487589412     0.178009057655     1.007825032230
         H           -0.310435823480    -1.788037410588    -0.543671942345     1.007825032230
         H            2.910334176520    -3.563908410588     0.119238057655     1.007825032230
         H           -2.703163823480    -2.547920410588    -0.153223942345     1.007825032230
         H           -5.028406823480    -1.636578410588    -0.056692942345     1.007825032230
         H           -5.299166823480    -0.012634410588     0.386127057655     1.007825032230

  Basis Set: AUG-CC-PVTZ
    Blend: AUG-CC-PVTZ
  Basis Set: (AUG-CC-PVTZ AUX)
    Blend: AUG-CC-PVTZ-JKFIT
	 Reference Energy          =    -811.4785847011282840 [Eh]
	 Singles Energy            =      -0.0000000000000000 [Eh]
	 Same-Spin Energy          =      -0.8297378355598026 [Eh]
	 Opposite-Spin Energy      =      -2.5253134920318629 [Eh]
	 Correlation Energy        =      -3.3550513275916654 [Eh]
	 Total Energy              =    -814.8336360287199795 [Eh]

	 ================> DF-SCS-MP2 Energies <==================
	-----------------------------------------------------------
	 SCS Same-Spin Scale       =       0.3333333333333333 [-]
	 SCS Opposite-Spin Scale   =       1.2000000000000000 [-]
	 SCS Same-Spin Energy      =      -0.2765792785199342 [Eh]
	 SCS Opposite-Spin Energy  =      -3.0303761904382354 [Eh]
	 SCS Correlation Energy    =      -3.3069554689581695 [Eh]
	 SCS Total Energy          =    -814.7855401700865059 [Eh]
	-----------------------------------------------------------

  Dipole Moment: [D]
     X:     1.1033      Y:    -4.6567      Z:     2.4861     Total:     5.3928

*** Psi4 exiting successfully. Buy a developer a beer!
