                               Psi4 1.3.2 release

  ==> Input File <==

--------------------------------------------------------------------------
#psi4
#
memory 32 gb

molecule  {
0 1
  O        1.3620710    -0.3800110    -0.9318440
  O        3.2020570     1.9012130    -0.2995130
  O        2.7994070    -2.7489470    -0.4002010
  O       -1.3621860     2.3740050     0.1547830
  N       -0.8217654     0.2532891    -0.2786636
  N       -3.0541720     0.8052390     0.2400120
  N       -4.6734100    -0.8124350     0.4126370
  C        2.7015950     0.8755540     0.5594740
  C        1.2368440     1.1072260     0.8878520
  C        2.6518190    -0.3922910    -0.2854700
  C        0.5739580     0.6830040    -0.4149160
  C        2.8020980    -1.6600160     0.5224700
  C       -1.1273370    -1.1158190    -0.3082760
  C       -1.7446880     1.2038920     0.0820450
  C       -2.4173070    -1.5045610    -0.1045420
  C       -3.3619920    -0.4731600     0.1685110
  H        3.3343810     0.7567850     1.4508530
  H        0.9047070     0.4438290     1.6934890
  H        0.9853290     2.1340670     1.1581470
  H        0.4707818     1.5056877    -1.1277411
  H        3.4174920    -0.3642830    -1.0666260
  H        1.9707490    -1.7331840     1.2432230
  H        3.7460890    -1.6095150     1.0882890
  H        3.1038510     2.7463240     0.1779830
  H       -0.3107400    -1.7892010    -0.5436980
  H        2.9100300    -3.5650720     0.1192120
  H       -2.7034680    -2.5490840    -0.1532500
  H       -5.0287110    -1.6377420    -0.0567190
  H       -5.2994710    -0.0137980     0.3861010
units angstrom
no_reorient  #important for SAPT in psi4, default
symmetry c1  #important for SAPT in psi4, default
}

set PROPERTIES_ORIGIN ["COM"]
properties('MP2/aug-cc-pvtz', properties = ['dipole'])
--------------------------------------------------------------------------

    Molecular point group: c1
  Charge       = 0
  Multiplicity = 1
  Basis Set: AUG-CC-PVTZ
    Blend: AUG-CC-PVTZ
  Basis Set: (AUG-CC-PVTZ AUX)
    Blend: AUG-CC-PVTZ-JKFIT

    Orbital Energies [Eh]
    ---------------------

    Doubly Occupied:

       1A    -20.578100     2A    -20.574068     3A    -20.573612
       4A    -20.495696     5A    -15.619033     6A    -15.589940
       7A    -15.541072     8A    -11.363298     9A    -11.346484
      10A    -11.328949    11A    -11.321565    12A    -11.300745
      13A    -11.297181    14A    -11.293488    15A    -11.242993
      16A    -11.237021    17A     -1.416209    18A     -1.382940
      19A     -1.373528    20A     -1.365343    21A     -1.289587
      22A     -1.256634    23A     -1.169065    24A     -1.078504
      25A     -1.069724    26A     -1.030171    27A     -0.926590
      28A     -0.899644    29A     -0.869636    30A     -0.829029
      31A     -0.806807    32A     -0.754964    33A     -0.735279
      34A     -0.720238    35A     -0.707761    36A     -0.692450
      37A     -0.687411    38A     -0.676850    39A     -0.659811
      40A     -0.638225    41A     -0.628433    42A     -0.617318
      43A     -0.605340    44A     -0.595746    45A     -0.587778
      46A     -0.572294    47A     -0.565403    48A     -0.544474
      49A     -0.533789    50A     -0.521535    51A     -0.509920
      52A     -0.485425    53A     -0.475090    54A     -0.468500
      55A     -0.459754    56A     -0.442050    57A     -0.437435
      58A     -0.416153    59A     -0.383263    60A     -0.338924

  @DF-RHF Final Energy:  -811.47445493744499

   => Energetics <=

    Nuclear Repulsion Energy =           1169.6958982126820956
    One-Electron Energy =               -3434.4841700842162027
    Two-Electron Energy =                1453.3138169340891181
    Total Energy =                       -811.4744549374449889
  Basis Set: (AUG-CC-PVTZ AUX)
    Blend: AUG-CC-PVTZ-RI
    Molecular point group: c1

    Geometry (in Angstrom), charge = 0, multiplicity = 1:

       Center              X                  Y                   Z               Mass
    ------------   -----------------  -----------------  -----------------  -----------------
         O            1.363772893177    -0.383299308226    -0.928784796918    15.994914619570
         O            3.203758893177     1.897924691774    -0.296453796918    15.994914619570
         O            2.801108893177    -2.752235308226    -0.397141796918    15.994914619570
         O           -1.360484106823     2.370716691774     0.157842203082    15.994914619570
         N           -0.820063506823     0.250000791774    -0.275604396918    14.003074004430
         N           -3.052470106823     0.801950691774     0.243071203082    14.003074004430
         N           -4.671708106823    -0.815723308226     0.415696203082    14.003074004430
         C            2.703296893177     0.872265691774     0.562533203082    12.000000000000
         C            1.238545893177     1.103937691774     0.890911203082    12.000000000000
         C            2.653520893177    -0.395579308226    -0.282410796918    12.000000000000
         C            0.575659893177     0.679715691774    -0.411856796918    12.000000000000
         C            2.803799893177    -1.663304308226     0.525529203082    12.000000000000
         C           -1.125635106823    -1.119107308226    -0.305216796918    12.000000000000
         C           -1.742986106823     1.200603691774     0.085104203082    12.000000000000
         C           -2.415605106823    -1.507849308226    -0.101482796918    12.000000000000
         C           -3.360290106823    -0.476448308226     0.171570203082    12.000000000000
         H            3.336082893177     0.753496691774     1.453912203082     1.007825032230
         H            0.906408893177     0.440540691774     1.696548203082     1.007825032230
         H            0.987030893177     2.130778691774     1.161206203082     1.007825032230
         H            0.472483693177     1.502399391774    -1.124681896918     1.007825032230
         H            3.419193893177    -0.367571308226    -1.063566796918     1.007825032230
         H            1.972450893177    -1.736472308226     1.246282203082     1.007825032230
         H            3.747790893177    -1.612803308226     1.091348203082     1.007825032230
         H            3.105552893177     2.743035691774     0.181042203082     1.007825032230
         H           -0.309038106823    -1.792489308226    -0.540638796918     1.007825032230
         H            2.911731893177    -3.568360308226     0.122271203082     1.007825032230
         H           -2.701766106823    -2.552372308226    -0.150190796918     1.007825032230
         H           -5.027009106823    -1.641030308226    -0.053659796918     1.007825032230
         H           -5.297769106823    -0.017086308226     0.389160203082     1.007825032230

  Basis Set: AUG-CC-PVTZ
    Blend: AUG-CC-PVTZ
  Basis Set: (AUG-CC-PVTZ AUX)
    Blend: AUG-CC-PVTZ-JKFIT
	 Reference Energy          =    -811.4744549374449889 [Eh]
	 Singles Energy            =      -0.0000000000000000 [Eh]
	 Same-Spin Energy          =      -0.8294288097805018 [Eh]
	 Opposite-Spin Energy      =      -2.5252524877479137 [Eh]
	 Correlation Energy        =      -3.3546812975284155 [Eh]
	 Total Energy              =    -814.8291362349733618 [Eh]

	 ================> DF-SCS-MP2 Energies <==================
	-----------------------------------------------------------
	 SCS Same-Spin Scale       =       0.3333333333333333 [-]
	 SCS Opposite-Spin Scale   =       1.2000000000000000 [-]
	 SCS Same-Spin Energy      =      -0.2764762699268339 [Eh]
	 SCS Opposite-Spin Energy  =      -3.0303029852974963 [Eh]
	 SCS Correlation Energy    =      -3.3067792552243302 [Eh]
	 SCS Total Energy          =    -814.7812341926693307 [Eh]
	-----------------------------------------------------------

  Dipole Moment: [D]
     X:     0.9753      Y:    -4.9394      Z:     2.5086     Total:     5.6251

*** Psi4 exiting successfully. Buy a developer a beer!
