                               Psi4 1.3.2 release

  ==> Input File <==

--------------------------------------------------------------------------
#psi4
#
memory 32 gb

molecule  {
0 1
  O        1.3620710    -0.3800110    -0.9318440
  O        3.2020570     1.9012130    -0.2995130
  O        2.7994070    -2.7489470    -0.4002010
  O       -1.3521766     2.3708298     0.1524290
  N       -0.7894085     0.2080177    -0.2298974
  N       -3.0541720     0.8052390     0.2400120
  N       -4.6734100    -0.8124350     0.4126370
  C        2.7015950     0.8755540     0.5594740
  C        1.2368440     1.1072260     0.8878520
  C        2.6518190    -0.3922910    -0.2854700
  C        0.5739580     0.6830040    -0.4149160
  C        2.8020980    -1.6600160     0.5224700
  C       -1.1273370    -1.1158190    -0.3082760
  C       -1.7446880     1.2038920     0.0820450
  C       -2.4173070    -1.5045610    -0.1045420
  C       -3.3619920    -0.4731600     0.1685110
  H        3.3343810     0.7567850     1.4508530
  H        0.9047070     0.4438290     1.6934890
  H        0.9853290     2.1340670     1.1581470
  H        0.5274540     1.5132540    -1.1249130
  H        3.4174920    -0.3642830    -1.0666260
  H        1.9707490    -1.7331840     1.2432230
  H        3.7460890    -1.6095150     1.0882890
  H        3.1038510     2.7463240     0.1779830
  H       -0.3107400    -1.7892010    -0.5436980
  H        2.9100300    -3.5650720     0.1192120
  H       -2.7034680    -2.5490840    -0.1532500
  H       -5.0287110    -1.6377420    -0.0567190
  H       -5.2994710    -0.0137980     0.3861010
units angstrom
no_reorient  #important for SAPT in psi4, default
symmetry c1  #important for SAPT in psi4, default
}

set PROPERTIES_ORIGIN ["COM"]
properties('MP2/aug-cc-pvtz', properties = ['dipole'])
--------------------------------------------------------------------------

    Molecular point group: c1
  Charge       = 0
  Multiplicity = 1
  Basis Set: AUG-CC-PVTZ
    Blend: AUG-CC-PVTZ
  Basis Set: (AUG-CC-PVTZ AUX)
    Blend: AUG-CC-PVTZ-JKFIT

    Orbital Energies [Eh]
    ---------------------

    Doubly Occupied:

       1A    -20.577466     2A    -20.573760     3A    -20.572196
       4A    -20.502464     5A    -15.620909     6A    -15.589271
       7A    -15.541871     8A    -11.369850     9A    -11.346178
      10A    -11.329049    11A    -11.319303    12A    -11.300175
      13A    -11.296497    14A    -11.292552    15A    -11.238286
      16A    -11.235818    17A     -1.416353    18A     -1.382327
      19A     -1.373168    20A     -1.365268    21A     -1.291686
      22A     -1.260628    23A     -1.170159    24A     -1.078766
      25A     -1.068933    26A     -1.027563    27A     -0.926991
      28A     -0.896571    29A     -0.869013    30A     -0.830595
      31A     -0.806084    32A     -0.754632    33A     -0.737893
      34A     -0.720505    35A     -0.707357    36A     -0.692562
      37A     -0.689039    38A     -0.675981    39A     -0.656644
      40A     -0.637102    41A     -0.627170    42A     -0.618452
      43A     -0.604503    44A     -0.595175    45A     -0.588381
      46A     -0.572880    47A     -0.568194    48A     -0.544547
      49A     -0.532694    50A     -0.523259    51A     -0.509972
      52A     -0.485160    53A     -0.480800    54A     -0.468077
      55A     -0.460321    56A     -0.444573    57A     -0.437637
      58A     -0.416632    59A     -0.384192    60A     -0.335641

  @DF-RHF Final Energy:  -811.47909020138013

   => Energetics <=

    Nuclear Repulsion Energy =           1170.1333249611407155
    One-Electron Energy =               -3435.3453749253940259
    Two-Electron Energy =                1453.7329597628731790
    Total Energy =                       -811.4790902013801315
  Basis Set: (AUG-CC-PVTZ AUX)
    Blend: AUG-CC-PVTZ-RI
    Molecular point group: c1

    Geometry (in Angstrom), charge = 0, multiplicity = 1:

       Center              X                  Y                   Z               Mass
    ------------   -----------------  -----------------  -----------------  -----------------
         O            1.360821158460    -0.380317677576    -0.931638613375    15.994914619570
         O            3.200807158460     1.900906322424    -0.299307613375    15.994914619570
         O            2.798157158460    -2.749253677576    -0.399995613375    15.994914619570
         O           -1.353426441540     2.370523122424     0.152634386625    15.994914619570
         N           -0.790658341540     0.207711022424    -0.229692013375    14.003074004430
         N           -3.055421841540     0.804932322424     0.240217386625    14.003074004430
         N           -4.674659841540    -0.812741677576     0.412842386625    14.003074004430
         C            2.700345158460     0.875247322424     0.559679386625    12.000000000000
         C            1.235594158460     1.106919322424     0.888057386625    12.000000000000
         C            2.650569158460    -0.392597677576    -0.285264613375    12.000000000000
         C            0.572708158460     0.682697322424    -0.414710613375    12.000000000000
         C            2.800848158460    -1.660322677576     0.522675386625    12.000000000000
         C           -1.128586841540    -1.116125677576    -0.308070613375    12.000000000000
         C           -1.745937841540     1.203585322424     0.082250386625    12.000000000000
         C           -2.418556841540    -1.504867677576    -0.104336613375    12.000000000000
         C           -3.363241841540    -0.473466677576     0.168716386625    12.000000000000
         H            3.333131158460     0.756478322424     1.451058386625     1.007825032230
         H            0.903457158460     0.443522322424     1.693694386625     1.007825032230
         H            0.984079158460     2.133760322424     1.158352386625     1.007825032230
         H            0.526204158460     1.512947322424    -1.124707613375     1.007825032230
         H            3.416242158460    -0.364589677576    -1.066420613375     1.007825032230
         H            1.969499158460    -1.733490677576     1.243428386625     1.007825032230
         H            3.744839158460    -1.609821677576     1.088494386625     1.007825032230
         H            3.102601158460     2.746017322424     0.178188386625     1.007825032230
         H           -0.311989841540    -1.789507677576    -0.543492613375     1.007825032230
         H            2.908780158460    -3.565378677576     0.119417386625     1.007825032230
         H           -2.704717841540    -2.549390677576    -0.153044613375     1.007825032230
         H           -5.029960841540    -1.638048677576    -0.056513613375     1.007825032230
         H           -5.300720841540    -0.014104677576     0.386306386625     1.007825032230

  Basis Set: AUG-CC-PVTZ
    Blend: AUG-CC-PVTZ
  Basis Set: (AUG-CC-PVTZ AUX)
    Blend: AUG-CC-PVTZ-JKFIT
	 Reference Energy          =    -811.4790902013801315 [Eh]
	 Singles Energy            =      -0.0000000000000000 [Eh]
	 Same-Spin Energy          =      -0.8296316835870492 [Eh]
	 Opposite-Spin Energy      =      -2.5251825769345375 [Eh]
	 Correlation Energy        =      -3.3548142605215867 [Eh]
	 Total Energy              =    -814.8339044619017386 [Eh]

	 ================> DF-SCS-MP2 Energies <==================
	-----------------------------------------------------------
	 SCS Same-Spin Scale       =       0.3333333333333333 [-]
	 SCS Opposite-Spin Scale   =       1.2000000000000000 [-]
	 SCS Same-Spin Energy      =      -0.2765438945290164 [Eh]
	 SCS Opposite-Spin Energy  =      -3.0302190923214449 [Eh]
	 SCS Correlation Energy    =      -3.3067629868504613 [Eh]
	 SCS Total Energy          =    -814.7858531882305897 [Eh]
	-----------------------------------------------------------

  Dipole Moment: [D]
     X:     0.9790      Y:    -4.7023      Z:     2.4972     Total:     5.4135

*** Psi4 exiting successfully. Buy a developer a beer!
