                               Psi4 1.3.2 release

  ==> Input File <==

--------------------------------------------------------------------------
#psi4
#
memory 32 gb

molecule  {
0 1
  O        1.3620710    -0.3800110    -0.9318440
  O        3.2020570     1.9012130    -0.2995130
  O        2.7994070    -2.7489470    -0.4002010
  O       -1.3621860     2.3740050     0.1547830
  N       -0.7982440     0.1994180    -0.2292560
  N       -3.0541720     0.8052390     0.2400120
  N       -4.6734100    -0.8124350     0.4126370
  C        2.7015950     0.8755540     0.5594740
  C        1.2368440     1.1072260     0.8878520
  C        2.6518190    -0.3922910    -0.2854700
  C        0.5739580     0.6830040    -0.4149160
  C        2.8020980    -1.6600160     0.5224700
  C       -1.1273370    -1.1158190    -0.3082760
  C       -1.6496537     1.2328238     0.0705807
  C       -2.4173070    -1.5045610    -0.1045420
  C       -3.3619920    -0.4731600     0.1685110
  H        3.3343810     0.7567850     1.4508530
  H        0.9047070     0.4438290     1.6934890
  H        0.9853290     2.1340670     1.1581470
  H        0.5274540     1.5132540    -1.1249130
  H        3.4174920    -0.3642830    -1.0666260
  H        1.9707490    -1.7331840     1.2432230
  H        3.7460890    -1.6095150     1.0882890
  H        3.1038510     2.7463240     0.1779830
  H       -0.3107400    -1.7892010    -0.5436980
  H        2.9100300    -3.5650720     0.1192120
  H       -2.7034680    -2.5490840    -0.1532500
  H       -5.0287110    -1.6377420    -0.0567190
  H       -5.2994710    -0.0137980     0.3861010
units angstrom
no_reorient  #important for SAPT in psi4, default
symmetry c1  #important for SAPT in psi4, default
}

set PROPERTIES_ORIGIN ["COM"]
properties('MP2/aug-cc-pvtz', properties = ['dipole'])
--------------------------------------------------------------------------

    Molecular point group: c1
  Charge       = 0
  Multiplicity = 1
  Basis Set: AUG-CC-PVTZ
    Blend: AUG-CC-PVTZ
  Basis Set: (AUG-CC-PVTZ AUX)
    Blend: AUG-CC-PVTZ-JKFIT

    Orbital Energies [Eh]
    ---------------------

    Doubly Occupied:

       1A    -20.578512     2A    -20.576777     3A    -20.574593
       4A    -20.518308     5A    -15.622122     6A    -15.579459
       7A    -15.534364     8A    -11.369868     9A    -11.333094
      10A    -11.331639    11A    -11.315607    12A    -11.303432
      13A    -11.297961    14A    -11.294690    15A    -11.240409
      16A    -11.235979    17A     -1.425646    18A     -1.406855
      19A     -1.375067    20A     -1.369539    21A     -1.300715
      22A     -1.258874    23A     -1.145005    24A     -1.080942
      25A     -1.068366    26A     -1.030863    27A     -0.926382
      28A     -0.905590    29A     -0.863500    30A     -0.822419
      31A     -0.807751    32A     -0.748622    33A     -0.738927
      34A     -0.722901    35A     -0.705037    36A     -0.693881
      37A     -0.690855    38A     -0.674992    39A     -0.654671
      40A     -0.641288    41A     -0.631388    42A     -0.629656
      43A     -0.607013    44A     -0.593860    45A     -0.589327
      46A     -0.575337    47A     -0.569125    48A     -0.546225
      49A     -0.534160    50A     -0.526414    51A     -0.517006
      52A     -0.488901    53A     -0.487910    54A     -0.469919
      55A     -0.465083    56A     -0.453479    57A     -0.440059
      58A     -0.403131    59A     -0.375639    60A     -0.333908

  @DF-RHF Final Energy:  -811.46814300530696

   => Energetics <=

    Nuclear Repulsion Energy =           1170.7223985857963271
    One-Electron Energy =               -3436.3750002722408681
    Two-Electron Energy =                1454.1844586811375848
    Total Energy =                       -811.4681430053069562
  Basis Set: (AUG-CC-PVTZ AUX)
    Blend: AUG-CC-PVTZ-RI
    Molecular point group: c1

    Geometry (in Angstrom), charge = 0, multiplicity = 1:

       Center              X                  Y                   Z               Mass
    ------------   -----------------  -----------------  -----------------  -----------------
         O            1.357049148879    -0.381539861190    -0.931238165286    15.994914619570
         O            3.197035148879     1.899684138810    -0.298907165286    15.994914619570
         O            2.794385148879    -2.750475861190    -0.399595165286    15.994914619570
         O           -1.367207851121     2.372476138810     0.155388834714    15.994914619570
         N           -0.803265851121     0.197889138810    -0.228650165286    14.003074004430
         N           -3.059193851121     0.803710138810     0.240617834714    14.003074004430
         N           -4.678431851121    -0.813963861190     0.413242834714    14.003074004430
         C            2.696573148879     0.874025138810     0.560079834714    12.000000000000
         C            1.231822148879     1.105697138810     0.888457834714    12.000000000000
         C            2.646797148879    -0.393819861190    -0.284864165286    12.000000000000
         C            0.568936148879     0.681475138810    -0.414310165286    12.000000000000
         C            2.797076148879    -1.661544861190     0.523075834714    12.000000000000
         C           -1.132358851121    -1.117347861190    -0.307670165286    12.000000000000
         C           -1.654675551121     1.231294938810     0.071186534714    12.000000000000
         C           -2.422328851121    -1.506089861190    -0.103936165286    12.000000000000
         C           -3.367013851121    -0.474688861190     0.169116834714    12.000000000000
         H            3.329359148879     0.755256138810     1.451458834714     1.007825032230
         H            0.899685148879     0.442300138810     1.694094834714     1.007825032230
         H            0.980307148879     2.132538138810     1.158752834714     1.007825032230
         H            0.522432148879     1.511725138810    -1.124307165286     1.007825032230
         H            3.412470148879    -0.365811861190    -1.066020165286     1.007825032230
         H            1.965727148879    -1.734712861190     1.243828834714     1.007825032230
         H            3.741067148879    -1.611043861190     1.088894834714     1.007825032230
         H            3.098829148879     2.744795138810     0.178588834714     1.007825032230
         H           -0.315761851121    -1.790729861190    -0.543092165286     1.007825032230
         H            2.905008148879    -3.566600861190     0.119817834714     1.007825032230
         H           -2.708489851121    -2.550612861190    -0.152644165286     1.007825032230
         H           -5.033732851121    -1.639270861190    -0.056113165286     1.007825032230
         H           -5.304492851121    -0.015326861190     0.386706834714     1.007825032230

  Basis Set: AUG-CC-PVTZ
    Blend: AUG-CC-PVTZ
  Basis Set: (AUG-CC-PVTZ AUX)
    Blend: AUG-CC-PVTZ-JKFIT
	 Reference Energy          =    -811.4681430053069562 [Eh]
	 Singles Energy            =      -0.0000000000000000 [Eh]
	 Same-Spin Energy          =      -0.8290831429353518 [Eh]
	 Opposite-Spin Energy      =      -2.5256054379148818 [Eh]
	 Correlation Energy        =      -3.3546885808502336 [Eh]
	 Total Energy              =    -814.8228315861572355 [Eh]

	 ================> DF-SCS-MP2 Energies <==================
	-----------------------------------------------------------
	 SCS Same-Spin Scale       =       0.3333333333333333 [-]
	 SCS Opposite-Spin Scale   =       1.2000000000000000 [-]
	 SCS Same-Spin Energy      =      -0.2763610476451173 [Eh]
	 SCS Opposite-Spin Energy  =      -3.0307265254978581 [Eh]
	 SCS Correlation Energy    =      -3.3070875731429754 [Eh]
	 SCS Total Energy          =    -814.7752305784499640 [Eh]
	-----------------------------------------------------------

  Dipole Moment: [D]
     X:     1.6724      Y:    -4.2265      Z:     2.4571     Total:     5.1670

*** Psi4 exiting successfully. Buy a developer a beer!
