                               Psi4 1.3.2 release

  ==> Input File <==

--------------------------------------------------------------------------
#psi4
#
memory 32 gb

molecule  {
0 1
  O        1.3620710    -0.3800110    -0.9318440
  O        3.2020570     1.9012130    -0.2995130
  O        2.7994070    -2.7489470    -0.4002010
  O       -1.3621860     2.3740050     0.1547830
  N       -0.7982440     0.1994180    -0.2292560
  N       -3.0541720     0.8052390     0.2400120
  N       -4.6734100    -0.8124350     0.4126370
  C        2.7015950     0.8755540     0.5594740
  C        1.2368440     1.1072260     0.8878520
  C        2.6518190    -0.3922910    -0.2854700
  C        0.5739580     0.6830040    -0.4149160
  C        2.8020980    -1.6600160     0.5224700
  C       -1.1720941    -1.1044063    -0.2976148
  C       -1.7794051     1.1689314     0.0853855
  C       -2.4173070    -1.5045610    -0.1045420
  C       -3.3619920    -0.4731600     0.1685110
  H        3.3343810     0.7567850     1.4508530
  H        0.9047070     0.4438290     1.6934890
  H        0.9853290     2.1340670     1.1581470
  H        0.5274540     1.5132540    -1.1249130
  H        3.4174920    -0.3642830    -1.0666260
  H        1.9707490    -1.7331840     1.2432230
  H        3.7460890    -1.6095150     1.0882890
  H        3.1038510     2.7463240     0.1779830
  H       -0.3107400    -1.7892010    -0.5436980
  H        2.9100300    -3.5650720     0.1192120
  H       -2.7034680    -2.5490840    -0.1532500
  H       -5.0287110    -1.6377420    -0.0567190
  H       -5.2994710    -0.0137980     0.3861010
units angstrom
no_reorient  #important for SAPT in psi4, default
symmetry c1  #important for SAPT in psi4, default
}

set PROPERTIES_ORIGIN ["COM"]
properties('MP2/aug-cc-pvtz', properties = ['dipole'])
--------------------------------------------------------------------------

    Molecular point group: c1
  Charge       = 0
  Multiplicity = 1
  Basis Set: AUG-CC-PVTZ
    Blend: AUG-CC-PVTZ
  Basis Set: (AUG-CC-PVTZ AUX)
    Blend: AUG-CC-PVTZ-JKFIT

    Orbital Energies [Eh]
    ---------------------

    Doubly Occupied:

       1A    -20.577059     2A    -20.572928     3A    -20.571992
       4A    -20.489785     5A    -15.621771     6A    -15.594516
       7A    -15.545138     8A    -11.366787     9A    -11.352542
      10A    -11.331031    11A    -11.316282    12A    -11.299421
      13A    -11.296039    14A    -11.292076    15A    -11.237032
      16A    -11.234893    17A     -1.414765    18A     -1.373349
      19A     -1.372492    20A     -1.360168    21A     -1.286623
      22A     -1.258815    23A     -1.182032    24A     -1.084382
      25A     -1.071508    26A     -1.030023    27A     -0.927961
      28A     -0.892643    29A     -0.873606    30A     -0.834960
      31A     -0.806125    32A     -0.760975    33A     -0.738940
      34A     -0.720171    35A     -0.707121    36A     -0.691937
      37A     -0.688618    38A     -0.674755    39A     -0.655958
      40A     -0.640042    41A     -0.628384    42A     -0.612800
      43A     -0.601909    44A     -0.593928    45A     -0.582870
      46A     -0.570934    47A     -0.566709    48A     -0.543820
      49A     -0.532035    50A     -0.522313    51A     -0.506956
      52A     -0.484439    53A     -0.477169    54A     -0.467663
      55A     -0.459785    56A     -0.440597    57A     -0.437221
      58A     -0.414147    59A     -0.386576    60A     -0.340169

  @DF-RHF Final Energy:  -811.47139347916061

   => Energetics <=

    Nuclear Repulsion Energy =           1170.2129764942108068
    One-Electron Energy =               -3435.5333678192478146
    Two-Electron Energy =                1453.8489978458767382
    Total Energy =                       -811.4713934791604970
  Basis Set: (AUG-CC-PVTZ AUX)
    Blend: AUG-CC-PVTZ-RI
    Molecular point group: c1

    Geometry (in Angstrom), charge = 0, multiplicity = 1:

       Center              X                  Y                   Z               Mass
    ------------   -----------------  -----------------  -----------------  -----------------
         O            1.366270587131    -0.378766710810    -0.932583848427    15.994914619570
         O            3.206256587131     1.902457289190    -0.300252848427    15.994914619570
         O            2.803606587131    -2.747702710810    -0.400940848427    15.994914619570
         O           -1.357986412869     2.375249289190     0.154043151573    15.994914619570
         N           -0.794044412869     0.200662289190    -0.229995848427    14.003074004430
         N           -3.049972412869     0.806483289190     0.239272151573    14.003074004430
         N           -4.669210412869    -0.811190710810     0.411897151573    14.003074004430
         C            2.705794587131     0.876798289190     0.558734151573    12.000000000000
         C            1.241043587131     1.108470289190     0.887112151573    12.000000000000
         C            2.656018587131    -0.391046710810    -0.286209848427    12.000000000000
         C            0.578157587131     0.684248289190    -0.415655848427    12.000000000000
         C            2.806297587131    -1.658771710810     0.521730151573    12.000000000000
         C           -1.167894512869    -1.103162010810    -0.298354648427    12.000000000000
         C           -1.775205512869     1.170175689190     0.084645651573    12.000000000000
         C           -2.413107412869    -1.503316710810    -0.105281848427    12.000000000000
         C           -3.357792412869    -0.471915710810     0.167771151573    12.000000000000
         H            3.338580587131     0.758029289190     1.450113151573     1.007825032230
         H            0.908906587131     0.445073289190     1.692749151573     1.007825032230
         H            0.989528587131     2.135311289190     1.157407151573     1.007825032230
         H            0.531653587131     1.514498289190    -1.125652848427     1.007825032230
         H            3.421691587131    -0.363038710810    -1.067365848427     1.007825032230
         H            1.974948587131    -1.731939710810     1.242483151573     1.007825032230
         H            3.750288587131    -1.608270710810     1.087549151573     1.007825032230
         H            3.108050587131     2.747568289190     0.177243151573     1.007825032230
         H           -0.306540412869    -1.787956710810    -0.544437848427     1.007825032230
         H            2.914229587131    -3.563827710810     0.118472151573     1.007825032230
         H           -2.699268412869    -2.547839710810    -0.153989848427     1.007825032230
         H           -5.024511412869    -1.636497710810    -0.057458848427     1.007825032230
         H           -5.295271412869    -0.012553710810     0.385361151573     1.007825032230

  Basis Set: AUG-CC-PVTZ
    Blend: AUG-CC-PVTZ
  Basis Set: (AUG-CC-PVTZ AUX)
    Blend: AUG-CC-PVTZ-JKFIT
	 Reference Energy          =    -811.4713934791606107 [Eh]
	 Singles Energy            =      -0.0000000000000000 [Eh]
	 Same-Spin Energy          =      -0.8301111959036274 [Eh]
	 Opposite-Spin Energy      =      -2.5255140628912560 [Eh]
	 Correlation Energy        =      -3.3556252587948832 [Eh]
	 Total Energy              =    -814.8270187379555409 [Eh]

	 ================> DF-SCS-MP2 Energies <==================
	-----------------------------------------------------------
	 SCS Same-Spin Scale       =       0.3333333333333333 [-]
	 SCS Opposite-Spin Scale   =       1.2000000000000000 [-]
	 SCS Same-Spin Energy      =      -0.2767037319678758 [Eh]
	 SCS Opposite-Spin Energy  =      -3.0306168754695073 [Eh]
	 SCS Correlation Energy    =      -3.3073206074373829 [Eh]
	 SCS Total Energy          =    -814.7787140865980291 [Eh]
	-----------------------------------------------------------

  Dipole Moment: [D]
     X:     0.7197      Y:    -5.0914      Z:     2.5012     Total:     5.7180

*** Psi4 exiting successfully. Buy a developer a beer!
