                               Psi4 1.3.2 release

  ==> Input File <==

--------------------------------------------------------------------------
#psi4
#
memory 32 gb

molecule  {
0 1
  O        1.3153204    -0.3840056    -0.9895549
  O        3.2020570     1.9012130    -0.2995130
  O        2.7994070    -2.7489470    -0.4002010
  O       -1.3621860     2.3740050     0.1547830
  N       -0.7982440     0.1994180    -0.2292560
  N       -3.0541720     0.8052390     0.2400120
  N       -4.6734100    -0.8124350     0.4126370
  C        2.7015950     0.8755540     0.5594740
  C        1.1798721     1.1622654     0.8964814
  C        2.6518190    -0.3922910    -0.2854700
  C        0.5739580     0.6830040    -0.4149160
  C        2.8020980    -1.6600160     0.5224700
  C       -1.1273370    -1.1158190    -0.3082760
  C       -1.7446880     1.2038920     0.0820450
  C       -2.4173070    -1.5045610    -0.1045420
  C       -3.3619920    -0.4731600     0.1685110
  H        3.3343810     0.7567850     1.4508530
  H        0.9047070     0.4438290     1.6934890
  H        0.9853290     2.1340670     1.1581470
  H        0.5274540     1.5132540    -1.1249130
  H        3.4174920    -0.3642830    -1.0666260
  H        1.9707490    -1.7331840     1.2432230
  H        3.7460890    -1.6095150     1.0882890
  H        3.1038510     2.7463240     0.1779830
  H       -0.3107400    -1.7892010    -0.5436980
  H        2.9100300    -3.5650720     0.1192120
  H       -2.7034680    -2.5490840    -0.1532500
  H       -5.0287110    -1.6377420    -0.0567190
  H       -5.2994710    -0.0137980     0.3861010
units angstrom
no_reorient  #important for SAPT in psi4, default
symmetry c1  #important for SAPT in psi4, default
}

set PROPERTIES_ORIGIN ["COM"]
properties('MP2/aug-cc-pvtz', properties = ['dipole'])
--------------------------------------------------------------------------

    Molecular point group: c1
  Charge       = 0
  Multiplicity = 1
  Basis Set: AUG-CC-PVTZ
    Blend: AUG-CC-PVTZ
  Basis Set: (AUG-CC-PVTZ AUX)
    Blend: AUG-CC-PVTZ-JKFIT

    Orbital Energies [Eh]
    ---------------------

    Doubly Occupied:

       1A    -20.580013     2A    -20.576096     3A    -20.575356
       4A    -20.501195     5A    -15.617999     6A    -15.586665
       7A    -15.538750     8A    -11.367399     9A    -11.342940
      10A    -11.328097    11A    -11.315685    12A    -11.307556
      13A    -11.301680    14A    -11.300732    15A    -11.238394
      16A    -11.234735    17A     -1.405353    18A     -1.380515
      19A     -1.375232    20A     -1.362529    21A     -1.289654
      22A     -1.257572    23A     -1.166854    24A     -1.076485
      25A     -1.067730    26A     -1.025451    27A     -0.924550
      28A     -0.895047    29A     -0.869946    30A     -0.829247
      31A     -0.806097    32A     -0.752613    33A     -0.734947
      34A     -0.720835    35A     -0.705777    36A     -0.695200
      37A     -0.689135    38A     -0.672634    39A     -0.653103
      40A     -0.633387    41A     -0.625223    42A     -0.616145
      43A     -0.603271    44A     -0.591862    45A     -0.588359
      46A     -0.570298    47A     -0.566994    48A     -0.553029
      49A     -0.532509    50A     -0.526869    51A     -0.510101
      52A     -0.490853    53A     -0.480408    54A     -0.469406
      55A     -0.457460    56A     -0.442117    57A     -0.437941
      58A     -0.413742    59A     -0.381447    60A     -0.332685

  @DF-RHF Final Energy:  -811.46609799946577

   => Energetics <=

    Nuclear Repulsion Energy =           1167.6536841168963292
    One-Electron Energy =               -3430.4517594170752091
    Two-Electron Energy =                1451.3319773007131062
    Total Energy =                       -811.4660979994657737
  Basis Set: (AUG-CC-PVTZ AUX)
    Blend: AUG-CC-PVTZ-RI
    Molecular point group: c1

    Geometry (in Angstrom), charge = 0, multiplicity = 1:

       Center              X                  Y                   Z               Mass
    ------------   -----------------  -----------------  -----------------  -----------------
         O            1.321623747670    -0.386632692061    -0.985946050188    15.994914619570
         O            3.208360347670     1.898585907939    -0.295904150188    15.994914619570
         O            2.805710347670    -2.751574092061    -0.396592150188    15.994914619570
         O           -1.355882652330     2.371377907939     0.158391849812    15.994914619570
         N           -0.791940652330     0.196790907939    -0.225647150188    14.003074004430
         N           -3.047868652330     0.802611907939     0.243620849812    14.003074004430
         N           -4.667106652330    -0.815062092061     0.416245849812    14.003074004430
         C            2.707898347670     0.872926907939     0.563082849812    12.000000000000
         C            1.186175447670     1.159638307939     0.900090249812    12.000000000000
         C            2.658122347670    -0.394918092061    -0.281861150188    12.000000000000
         C            0.580261347670     0.680376907939    -0.411307150188    12.000000000000
         C            2.808401347670    -1.662643092061     0.526078849812    12.000000000000
         C           -1.121033652330    -1.118446092061    -0.304667150188    12.000000000000
         C           -1.738384652330     1.201264907939     0.085653849812    12.000000000000
         C           -2.411003652330    -1.507188092061    -0.100933150188    12.000000000000
         C           -3.355688652330    -0.475787092061     0.172119849812    12.000000000000
         H            3.340684347670     0.754157907939     1.454461849812     1.007825032230
         H            0.911010347670     0.441201907939     1.697097849812     1.007825032230
         H            0.991632347670     2.131439907939     1.161755849812     1.007825032230
         H            0.533757347670     1.510626907939    -1.121304150188     1.007825032230
         H            3.423795347670    -0.366910092061    -1.063017150188     1.007825032230
         H            1.977052347670    -1.735811092061     1.246831849812     1.007825032230
         H            3.752392347670    -1.612142092061     1.091897849812     1.007825032230
         H            3.110154347670     2.743696907939     0.181591849812     1.007825032230
         H           -0.304436652330    -1.791828092061    -0.540089150188     1.007825032230
         H            2.916333347670    -3.567699092061     0.122820849812     1.007825032230
         H           -2.697164652330    -2.551711092061    -0.149641150188     1.007825032230
         H           -5.022407652330    -1.640369092061    -0.053110150188     1.007825032230
         H           -5.293167652330    -0.016425092061     0.389709849812     1.007825032230

  Basis Set: AUG-CC-PVTZ
    Blend: AUG-CC-PVTZ
  Basis Set: (AUG-CC-PVTZ AUX)
    Blend: AUG-CC-PVTZ-JKFIT
	 Reference Energy          =    -811.4660979994657737 [Eh]
	 Singles Energy            =      -0.0000000000000000 [Eh]
	 Same-Spin Energy          =      -0.8300144025126714 [Eh]
	 Opposite-Spin Energy      =      -2.5274839879799122 [Eh]
	 Correlation Energy        =      -3.3574983904925837 [Eh]
	 Total Energy              =    -814.8235963899583112 [Eh]

	 ================> DF-SCS-MP2 Energies <==================
	-----------------------------------------------------------
	 SCS Same-Spin Scale       =       0.3333333333333333 [-]
	 SCS Opposite-Spin Scale   =       1.2000000000000000 [-]
	 SCS Same-Spin Energy      =      -0.2766714675042238 [Eh]
	 SCS Opposite-Spin Energy  =      -3.0329807855758948 [Eh]
	 SCS Correlation Energy    =      -3.3096522530801185 [Eh]
	 SCS Total Energy          =    -814.7757502525458904 [Eh]
	-----------------------------------------------------------

  Dipole Moment: [D]
     X:     1.4434      Y:    -4.6868      Z:     2.6111     Total:     5.5558

*** Psi4 exiting successfully. Buy a developer a beer!
