                               Psi4 1.3.2 release

  ==> Input File <==

--------------------------------------------------------------------------
#psi4
#
memory 32 gb

molecule  {
0 1
  O        1.3620710    -0.3800110    -0.9318440
  O        3.2020570     1.9012130    -0.2995130
  O        2.7994070    -2.7489470    -0.4002010
  O       -1.3621860     2.3740050     0.1547830
  N       -0.7982440     0.1994180    -0.2292560
  N       -3.0541720     0.8052390     0.2400120
  N       -4.6734100    -0.8124350     0.4126370
  C        2.7015950     0.8755540     0.5594740
  C        1.2368440     1.1072260     0.8878520
  C        2.7004209    -0.4269780    -0.2325158
  C        0.5739580     0.6830040    -0.4149160
  C        2.8020980    -1.6600160     0.5224700
  C       -1.1273370    -1.1158190    -0.3082760
  C       -1.7446880     1.2038920     0.0820450
  C       -2.4173070    -1.5045610    -0.1045420
  C       -3.3619920    -0.4731600     0.1685110
  H        3.3450172     0.7027036     1.4342375
  H        0.9047070     0.4438290     1.6934890
  H        0.9853290     2.1340670     1.1581470
  H        0.5274540     1.5132540    -1.1249130
  H        3.4174920    -0.3642830    -1.0666260
  H        1.9707490    -1.7331840     1.2432230
  H        3.7460890    -1.6095150     1.0882890
  H        3.1038510     2.7463240     0.1779830
  H       -0.3107400    -1.7892010    -0.5436980
  H        2.9100300    -3.5650720     0.1192120
  H       -2.7034680    -2.5490840    -0.1532500
  H       -5.0287110    -1.6377420    -0.0567190
  H       -5.2994710    -0.0137980     0.3861010
units angstrom
no_reorient  #important for SAPT in psi4, default
symmetry c1  #important for SAPT in psi4, default
}

set PROPERTIES_ORIGIN ["COM"]
properties('MP2/aug-cc-pvtz', properties = ['dipole'])
--------------------------------------------------------------------------

    Molecular point group: c1
  Charge       = 0
  Multiplicity = 1
  Basis Set: AUG-CC-PVTZ
    Blend: AUG-CC-PVTZ
  Basis Set: (AUG-CC-PVTZ AUX)
    Blend: AUG-CC-PVTZ-JKFIT

    Orbital Energies [Eh]
    ---------------------

    Doubly Occupied:

       1A    -20.581221     2A    -20.577203     3A    -20.564522
       4A    -20.501565     5A    -15.619469     6A    -15.587239
       7A    -15.539381     8A    -11.368226     9A    -11.343651
      10A    -11.326715    11A    -11.316442    12A    -11.304039
      13A    -11.299137    14A    -11.295772    15A    -11.237160
      16A    -11.235436    17A     -1.403875    18A     -1.381702
      19A     -1.376726    20A     -1.359921    21A     -1.290241
      22A     -1.258278    23A     -1.167434    24A     -1.081442
      25A     -1.072619    26A     -1.032261    27A     -0.930640
      28A     -0.895688    29A     -0.868891    30A     -0.826818
      31A     -0.804106    32A     -0.752786    33A     -0.735050
      34A     -0.721891    35A     -0.707916    36A     -0.692989
      37A     -0.689004    38A     -0.675185    39A     -0.655098
      40A     -0.637404    41A     -0.624599    42A     -0.618368
      43A     -0.608082    44A     -0.594716    45A     -0.585256
      46A     -0.570621    47A     -0.563768    48A     -0.544399
      49A     -0.532818    50A     -0.522821    51A     -0.508992
      52A     -0.484133    53A     -0.481310    54A     -0.469399
      55A     -0.463839    56A     -0.444756    57A     -0.438401
      58A     -0.414776    59A     -0.382444    60A     -0.333349

  @DF-RHF Final Energy:  -811.47069261255285

   => Energetics <=

    Nuclear Repulsion Energy =           1169.1804423856885933
    One-Electron Energy =               -3433.4982842688687015
    Two-Electron Energy =                1452.8471492706275967
    Total Energy =                       -811.4706926125527389
  Basis Set: (AUG-CC-PVTZ AUX)
    Blend: AUG-CC-PVTZ-RI
    Molecular point group: c1

    Geometry (in Angstrom), charge = 0, multiplicity = 1:

       Center              X                  Y                   Z               Mass
    ------------   -----------------  -----------------  -----------------  -----------------
         O            1.359455542438    -0.377938082132    -0.934568450482    15.994914619570
         O            3.199441542438     1.903285917868    -0.302237450482    15.994914619570
         O            2.796791542438    -2.746874082132    -0.402925450482    15.994914619570
         O           -1.364801457562     2.376077917868     0.152058549518    15.994914619570
         N           -0.800859457562     0.201490917868    -0.231980450482    14.003074004430
         N           -3.056787457562     0.807311917868     0.237287549518    14.003074004430
         N           -4.676025457562    -0.810362082132     0.409912549518    14.003074004430
         C            2.698979542438     0.877626917868     0.556749549518    12.000000000000
         C            1.234228542438     1.109298917868     0.885127549518    12.000000000000
         C            2.697805442438    -0.424905082132    -0.235240250482    12.000000000000
         C            0.571342542438     0.685076917868    -0.417640450482    12.000000000000
         C            2.799482542438    -1.657943082132     0.519745549518    12.000000000000
         C           -1.129952457562    -1.113746082132    -0.311000450482    12.000000000000
         C           -1.747303457562     1.205964917868     0.079320549518    12.000000000000
         C           -2.419922457562    -1.502488082132    -0.107266450482    12.000000000000
         C           -3.364607457562    -0.471087082132     0.165786549518    12.000000000000
         H            3.342401742438     0.704776517868     1.431513049518     1.007825032230
         H            0.902091542438     0.445901917868     1.690764549518     1.007825032230
         H            0.982713542438     2.136139917868     1.155422549518     1.007825032230
         H            0.524838542438     1.515326917868    -1.127637450482     1.007825032230
         H            3.414876542438    -0.362210082132    -1.069350450482     1.007825032230
         H            1.968133542438    -1.731111082132     1.240498549518     1.007825032230
         H            3.743473542438    -1.607442082132     1.085564549518     1.007825032230
         H            3.101235542438     2.748396917868     0.175258549518     1.007825032230
         H           -0.313355457562    -1.787128082132    -0.546422450482     1.007825032230
         H            2.907414542438    -3.562999082132     0.116487549518     1.007825032230
         H           -2.706083457562    -2.547011082132    -0.155974450482     1.007825032230
         H           -5.031326457562    -1.635669082132    -0.059443450482     1.007825032230
         H           -5.302086457562    -0.011725082132     0.383376549518     1.007825032230

  Basis Set: AUG-CC-PVTZ
    Blend: AUG-CC-PVTZ
  Basis Set: (AUG-CC-PVTZ AUX)
    Blend: AUG-CC-PVTZ-JKFIT
	 Reference Energy          =    -811.4706926125528526 [Eh]
	 Singles Energy            =      -0.0000000000000000 [Eh]
	 Same-Spin Energy          =      -0.8305284202906420 [Eh]
	 Opposite-Spin Energy      =      -2.5268480005720448 [Eh]
	 Correlation Energy        =      -3.3573764208626868 [Eh]
	 Total Energy              =    -814.8280690334155452 [Eh]

	 ================> DF-SCS-MP2 Energies <==================
	-----------------------------------------------------------
	 SCS Same-Spin Scale       =       0.3333333333333333 [-]
	 SCS Opposite-Spin Scale   =       1.2000000000000000 [-]
	 SCS Same-Spin Energy      =      -0.2768428067635473 [Eh]
	 SCS Opposite-Spin Energy  =      -3.0322176006864536 [Eh]
	 SCS Correlation Energy    =      -3.3090604074500010 [Eh]
	 SCS Total Energy          =    -814.7797530200028859 [Eh]
	-----------------------------------------------------------

  Dipole Moment: [D]
     X:     1.3409      Y:    -4.7835      Z:     2.5754     Total:     5.5958

*** Psi4 exiting successfully. Buy a developer a beer!
