                               Psi4 1.3.2 release

  ==> Input File <==

--------------------------------------------------------------------------
#psi4
#
memory 32 gb

molecule  {
0 1
  O        1.3620710    -0.3800110    -0.9318440
  O        3.2020570     1.9012130    -0.2995130
  O        2.7994070    -2.7489470    -0.4002010
  O       -1.3722993     2.3771421     0.1567043
  N       -0.7982440     0.1994180    -0.2292560
  N       -3.0573860     0.8166869     0.2418017
  N       -4.6734100    -0.8124350     0.4126370
  C        2.7015950     0.8755540     0.5594740
  C        1.2368440     1.1072260     0.8878520
  C        2.6518190    -0.3922910    -0.2854700
  C        0.5739580     0.6830040    -0.4149160
  C        2.8020980    -1.6600160     0.5224700
  C       -1.1273370    -1.1158190    -0.3082760
  C       -1.7446880     1.2038920     0.0820450
  C       -2.4173070    -1.5045610    -0.1045420
  C       -3.3619920    -0.4731600     0.1685110
  H        3.3343810     0.7567850     1.4508530
  H        0.9047070     0.4438290     1.6934890
  H        0.9853290     2.1340670     1.1581470
  H        0.5274540     1.5132540    -1.1249130
  H        3.4174920    -0.3642830    -1.0666260
  H        1.9707490    -1.7331840     1.2432230
  H        3.7460890    -1.6095150     1.0882890
  H        3.1038510     2.7463240     0.1779830
  H       -0.3107400    -1.7892010    -0.5436980
  H        2.9100300    -3.5650720     0.1192120
  H       -2.7034680    -2.5490840    -0.1532500
  H       -5.0287110    -1.6377420    -0.0567190
  H       -5.2994710    -0.0137980     0.3861010
units angstrom
no_reorient  #important for SAPT in psi4, default
symmetry c1  #important for SAPT in psi4, default
}

set PROPERTIES_ORIGIN ["COM"]
properties('MP2/aug-cc-pvtz', properties = ['dipole'])
--------------------------------------------------------------------------

    Molecular point group: c1
  Charge       = 0
  Multiplicity = 1
  Basis Set: AUG-CC-PVTZ
    Blend: AUG-CC-PVTZ
  Basis Set: (AUG-CC-PVTZ AUX)
    Blend: AUG-CC-PVTZ-JKFIT

    Orbital Energies [Eh]
    ---------------------

    Doubly Occupied:

       1A    -20.577943     2A    -20.574484     3A    -20.573214
       4A    -20.501668     5A    -15.622422     6A    -15.588990
       7A    -15.541361     8A    -11.368638     9A    -11.346221
      10A    -11.331136    11A    -11.319120    12A    -11.301051
      13A    -11.297065    14A    -11.293300    15A    -11.237693
      16A    -11.237003    17A     -1.416837    18A     -1.381656
      19A     -1.373750    20A     -1.365736    21A     -1.290802
      22A     -1.261403    23A     -1.167348    24A     -1.079324
      25A     -1.069289    26A     -1.028149    27A     -0.926820
      28A     -0.897966    29A     -0.867688    30A     -0.830749
      31A     -0.806607    32A     -0.754040    33A     -0.739031
      34A     -0.721108    35A     -0.706551    36A     -0.693030
      37A     -0.689264    38A     -0.675620    39A     -0.656648
      40A     -0.637345    41A     -0.627278    42A     -0.618395
      43A     -0.604224    44A     -0.595186    45A     -0.588062
      46A     -0.572730    47A     -0.568857    48A     -0.544956
      49A     -0.532234    50A     -0.523912    51A     -0.510471
      52A     -0.486066    53A     -0.482102    54A     -0.468695
      55A     -0.461244    56A     -0.443715    57A     -0.437952
      58A     -0.416946    59A     -0.382408    60A     -0.335045

  @DF-RHF Final Energy:  -811.47875019906792

   => Energetics <=

    Nuclear Repulsion Energy =           1169.4971673088148236
    One-Electron Energy =               -3434.0547444936419197
    Two-Electron Energy =                1453.0788269857591786
    Total Energy =                       -811.4787501990679175
  Basis Set: (AUG-CC-PVTZ AUX)
    Blend: AUG-CC-PVTZ-RI
    Molecular point group: c1

    Geometry (in Angstrom), charge = 0, multiplicity = 1:

       Center              X                  Y                   Z               Mass
    ------------   -----------------  -----------------  -----------------  -----------------
         O            1.362981489605    -0.380937906909    -0.932089648905    15.994914619570
         O            3.202967489605     1.900286093091    -0.299758648905    15.994914619570
         O            2.800317489605    -2.749873906909    -0.400446648905    15.994914619570
         O           -1.371388810395     2.376215193091     0.156458651095    15.994914619570
         N           -0.797333510395     0.198491093091    -0.229501648905    14.003074004430
         N           -3.056475510395     0.815759993091     0.241556051095    14.003074004430
         N           -4.672499510395    -0.813361906909     0.412391351095    14.003074004430
         C            2.702505489605     0.874627093091     0.559228351095    12.000000000000
         C            1.237754489605     1.106299093091     0.887606351095    12.000000000000
         C            2.652729489605    -0.393217906909    -0.285715648905    12.000000000000
         C            0.574868489605     0.682077093091    -0.415161648905    12.000000000000
         C            2.803008489605    -1.660942906909     0.522224351095    12.000000000000
         C           -1.126426510395    -1.116745906909    -0.308521648905    12.000000000000
         C           -1.743777510395     1.202965093091     0.081799351095    12.000000000000
         C           -2.416396510395    -1.505487906909    -0.104787648905    12.000000000000
         C           -3.361081510395    -0.474086906909     0.168265351095    12.000000000000
         H            3.335291489605     0.755858093091     1.450607351095     1.007825032230
         H            0.905617489605     0.442902093091     1.693243351095     1.007825032230
         H            0.986239489605     2.133140093091     1.157901351095     1.007825032230
         H            0.528364489605     1.512327093091    -1.125158648905     1.007825032230
         H            3.418402489605    -0.365209906909    -1.066871648905     1.007825032230
         H            1.971659489605    -1.734110906909     1.242977351095     1.007825032230
         H            3.746999489605    -1.610441906909     1.088043351095     1.007825032230
         H            3.104761489605     2.745397093091     0.177737351095     1.007825032230
         H           -0.309829510395    -1.790127906909    -0.543943648905     1.007825032230
         H            2.910940489605    -3.565998906909     0.118966351095     1.007825032230
         H           -2.702557510395    -2.550010906909    -0.153495648905     1.007825032230
         H           -5.027800510395    -1.638668906909    -0.056964648905     1.007825032230
         H           -5.298560510395    -0.014724906909     0.385855351095     1.007825032230

  Basis Set: AUG-CC-PVTZ
    Blend: AUG-CC-PVTZ
  Basis Set: (AUG-CC-PVTZ AUX)
    Blend: AUG-CC-PVTZ-JKFIT
	 Reference Energy          =    -811.4787501990679175 [Eh]
	 Singles Energy            =      -0.0000000000000000 [Eh]
	 Same-Spin Energy          =      -0.8296922479036093 [Eh]
	 Opposite-Spin Energy      =      -2.5253544129228294 [Eh]
	 Correlation Energy        =      -3.3550466608264387 [Eh]
	 Total Energy              =    -814.8337968598943917 [Eh]

	 ================> DF-SCS-MP2 Energies <==================
	-----------------------------------------------------------
	 SCS Same-Spin Scale       =       0.3333333333333333 [-]
	 SCS Opposite-Spin Scale   =       1.2000000000000000 [-]
	 SCS Same-Spin Energy      =      -0.2765640826345364 [Eh]
	 SCS Opposite-Spin Energy  =      -3.0304252955073951 [Eh]
	 SCS Correlation Energy    =      -3.3069893781419317 [Eh]
	 SCS Total Energy          =    -814.7857395772098243 [Eh]
	-----------------------------------------------------------

  Dipole Moment: [D]
     X:     1.0942      Y:    -4.7318      Z:     2.4838     Total:     5.4550

*** Psi4 exiting successfully. Buy a developer a beer!
