                               Psi4 1.3.2 release

  ==> Input File <==

--------------------------------------------------------------------------
#psi4
#
memory 32 gb

molecule  {
0 1
  O        1.3620710    -0.3800110    -0.9318440
  O        3.2020570     1.9012130    -0.2995130
  O        2.7994070    -2.7489470    -0.4002010
  O       -1.3621860     2.3740050     0.1547830
  N       -0.7982440     0.1994180    -0.2292560
  N       -3.0541720     0.8052390     0.2400120
  N       -4.6734100    -0.8124350     0.4126370
  C        2.7015950     0.8755540     0.5594740
  C        1.2458017     1.1801887     0.8570981
  C        2.6518190    -0.3922910    -0.2854700
  C        0.5739580     0.6830040    -0.4149160
  C        2.8020980    -1.6600160     0.5224700
  C       -1.1273370    -1.1158190    -0.3082760
  C       -1.7446880     1.2038920     0.0820450
  C       -2.4173070    -1.5045610    -0.1045420
  C       -3.3619920    -0.4731600     0.1685110
  H        3.3343810     0.7567850     1.4508530
  H        0.9047070     0.4438290     1.6934890
  H        0.9853290     2.1340670     1.1581470
  H        0.5533146     1.5461417    -1.0858411
  H        3.4174920    -0.3642830    -1.0666260
  H        1.9707490    -1.7331840     1.2432230
  H        3.7460890    -1.6095150     1.0882890
  H        3.1038510     2.7463240     0.1779830
  H       -0.3107400    -1.7892010    -0.5436980
  H        2.9100300    -3.5650720     0.1192120
  H       -2.7034680    -2.5490840    -0.1532500
  H       -5.0287110    -1.6377420    -0.0567190
  H       -5.2994710    -0.0137980     0.3861010
units angstrom
no_reorient  #important for SAPT in psi4, default
symmetry c1  #important for SAPT in psi4, default
}

set PROPERTIES_ORIGIN ["COM"]
properties('MP2/aug-cc-pvtz', properties = ['dipole'])
--------------------------------------------------------------------------

    Molecular point group: c1
  Charge       = 0
  Multiplicity = 1
  Basis Set: AUG-CC-PVTZ
    Blend: AUG-CC-PVTZ
  Basis Set: (AUG-CC-PVTZ AUX)
    Blend: AUG-CC-PVTZ-JKFIT

    Orbital Energies [Eh]
    ---------------------

    Doubly Occupied:

       1A    -20.578080     2A    -20.575102     3A    -20.572286
       4A    -20.503615     5A    -15.623077     6A    -15.588534
       7A    -15.541029     8A    -11.370339     9A    -11.345290
      10A    -11.330945    11A    -11.318748    12A    -11.301624
      13A    -11.297135    14A    -11.294598    15A    -11.237858
      16A    -11.237336    17A     -1.417023    18A     -1.382821
      19A     -1.373826    20A     -1.365935    21A     -1.292576
      22A     -1.261671    23A     -1.169310    24A     -1.078837
      25A     -1.068522    26A     -1.029509    27A     -0.926940
      28A     -0.897674    29A     -0.869809    30A     -0.830477
      31A     -0.808309    32A     -0.754083    33A     -0.739584
      34A     -0.722516    35A     -0.707275    36A     -0.695707
      37A     -0.688264    38A     -0.674928    39A     -0.656623
      40A     -0.637992    41A     -0.625836    42A     -0.617610
      43A     -0.604577    44A     -0.594706    45A     -0.590443
      46A     -0.575164    47A     -0.568269    48A     -0.550068
      49A     -0.532701    50A     -0.529222    51A     -0.500915
      52A     -0.486638    53A     -0.481636    54A     -0.466806
      55A     -0.460421    56A     -0.444542    57A     -0.436432
      58A     -0.416803    59A     -0.383575    60A     -0.335337

  @DF-RHF Final Energy:  -811.47106798687207

   => Energetics <=

    Nuclear Repulsion Energy =           1169.6291152278970458
    One-Electron Energy =               -3434.2653426964507162
    Two-Electron Energy =                1453.1651594816814850
    Total Energy =                       -811.4710679868719581
  Basis Set: (AUG-CC-PVTZ AUX)
    Blend: AUG-CC-PVTZ-RI
    Molecular point group: c1

    Geometry (in Angstrom), charge = 0, multiplicity = 1:

       Center              X                  Y                   Z               Mass
    ------------   -----------------  -----------------  -----------------  -----------------
         O            1.361482869226    -0.384012512337    -0.930392258163    15.994914619570
         O            3.201468869226     1.897211487663    -0.298061258163    15.994914619570
         O            2.798818869226    -2.752948512337    -0.398749258163    15.994914619570
         O           -1.362774130774     2.370003487663     0.156234741837    15.994914619570
         N           -0.798832130774     0.195416487663    -0.227804258163    14.003074004430
         N           -3.054760130774     0.801237487663     0.241463741837    14.003074004430
         N           -4.673998130774    -0.816436512337     0.414088741837    14.003074004430
         C            2.701006869226     0.871552487663     0.560925741837    12.000000000000
         C            1.245213569226     1.176187187663     0.858549841837    12.000000000000
         C            2.651230869226    -0.396292512337    -0.284018258163    12.000000000000
         C            0.573369869226     0.679002487663    -0.413464258163    12.000000000000
         C            2.801509869226    -1.664017512337     0.523921741837    12.000000000000
         C           -1.127925130774    -1.119820512337    -0.306824258163    12.000000000000
         C           -1.745276130774     1.199890487663     0.083496741837    12.000000000000
         C           -2.417895130774    -1.508562512337    -0.103090258163    12.000000000000
         C           -3.362580130774    -0.477161512337     0.169962741837    12.000000000000
         H            3.333792869226     0.752783487663     1.452304741837     1.007825032230
         H            0.904118869226     0.439827487663     1.694940741837     1.007825032230
         H            0.984740869226     2.130065487663     1.159598741837     1.007825032230
         H            0.552726469226     1.542140187663    -1.084389358163     1.007825032230
         H            3.416903869226    -0.368284512337    -1.065174258163     1.007825032230
         H            1.970160869226    -1.737185512337     1.244674741837     1.007825032230
         H            3.745500869226    -1.613516512337     1.089740741837     1.007825032230
         H            3.103262869226     2.742322487663     0.179434741837     1.007825032230
         H           -0.311328130774    -1.793202512337    -0.542246258163     1.007825032230
         H            2.909441869226    -3.569073512337     0.120663741837     1.007825032230
         H           -2.704056130774    -2.553085512337    -0.151798258163     1.007825032230
         H           -5.029299130774    -1.641743512337    -0.055267258163     1.007825032230
         H           -5.300059130774    -0.017799512337     0.387552741837     1.007825032230

  Basis Set: AUG-CC-PVTZ
    Blend: AUG-CC-PVTZ
  Basis Set: (AUG-CC-PVTZ AUX)
    Blend: AUG-CC-PVTZ-JKFIT
	 Reference Energy          =    -811.4710679868720717 [Eh]
	 Singles Energy            =      -0.0000000000000000 [Eh]
	 Same-Spin Energy          =      -0.8296712723451781 [Eh]
	 Opposite-Spin Energy      =      -2.5253895469516436 [Eh]
	 Correlation Energy        =      -3.3550608192968219 [Eh]
	 Total Energy              =    -814.8261288061688674 [Eh]

	 ================> DF-SCS-MP2 Energies <==================
	-----------------------------------------------------------
	 SCS Same-Spin Scale       =       0.3333333333333333 [-]
	 SCS Opposite-Spin Scale   =       1.2000000000000000 [-]
	 SCS Same-Spin Energy      =      -0.2765570907817260 [Eh]
	 SCS Opposite-Spin Energy  =      -3.0304674563419725 [Eh]
	 SCS Correlation Energy    =      -3.3070245471236985 [Eh]
	 SCS Total Energy          =    -814.7780925339957321 [Eh]
	-----------------------------------------------------------

  Dipole Moment: [D]
     X:     1.0727      Y:    -4.6806      Z:     2.4687     Total:     5.3994

*** Psi4 exiting successfully. Buy a developer a beer!
