                               Psi4 1.3.2 release

  ==> Input File <==

--------------------------------------------------------------------------
#psi4
#
memory 32 gb

molecule  {
0 1
  O        1.3620710    -0.3800110    -0.9318440
  O        3.2020570     1.9012130    -0.2995130
  O        2.7994070    -2.7489470    -0.4002010
  O       -1.3621860     2.3740050     0.1547830
  N       -0.7982440     0.1994180    -0.2292560
  N       -3.0541720     0.8052390     0.2400120
  N       -4.6734100    -0.8124350     0.4126370
  C        2.7015950     0.8755540     0.5594740
  C        1.2507734     1.1504475     0.9152125
  C        2.7047684    -0.3900776    -0.2902351
  C        0.5739580     0.6830040    -0.4149160
  C        2.8020980    -1.6600160     0.5224700
  C       -1.1273370    -1.1158190    -0.3082760
  C       -1.7446880     1.2038920     0.0820450
  C       -2.4173070    -1.5045610    -0.1045420
  C       -3.3619920    -0.4731600     0.1685110
  H        3.3343810     0.7567850     1.4508530
  H        0.9047070     0.4438290     1.6934890
  H        0.9853290     2.1340670     1.1581470
  H        0.5274540     1.5132540    -1.1249130
  H        3.4174920    -0.3642830    -1.0666260
  H        1.9707490    -1.7331840     1.2432230
  H        3.7460890    -1.6095150     1.0882890
  H        3.1038510     2.7463240     0.1779830
  H       -0.3107400    -1.7892010    -0.5436980
  H        2.9100300    -3.5650720     0.1192120
  H       -2.7034680    -2.5490840    -0.1532500
  H       -5.0287110    -1.6377420    -0.0567190
  H       -5.2994710    -0.0137980     0.3861010
units angstrom
no_reorient  #important for SAPT in psi4, default
symmetry c1  #important for SAPT in psi4, default
}

set PROPERTIES_ORIGIN ["COM"]
properties('MP2/aug-cc-pvtz', properties = ['dipole'])
--------------------------------------------------------------------------

    Molecular point group: c1
  Charge       = 0
  Multiplicity = 1
  Basis Set: AUG-CC-PVTZ
    Blend: AUG-CC-PVTZ
  Basis Set: (AUG-CC-PVTZ AUX)
    Blend: AUG-CC-PVTZ-JKFIT

    Orbital Energies [Eh]
    ---------------------

    Doubly Occupied:

       1A    -20.579062     2A    -20.574084     3A    -20.568630
       4A    -20.502207     5A    -15.620616     6A    -15.587547
       7A    -15.539850     8A    -11.368831     9A    -11.344043
      10A    -11.329789    11A    -11.316972    12A    -11.302558
      13A    -11.299232    14A    -11.295175    15A    -11.236810
      16A    -11.235885    17A     -1.406163    18A     -1.381400
      19A     -1.374648    20A     -1.361740    21A     -1.290882
      22A     -1.259179    23A     -1.167822    24A     -1.074831
      25A     -1.069178    26A     -1.026559    27A     -0.925429
      28A     -0.896467    29A     -0.870036    30A     -0.829309
      31A     -0.809871    32A     -0.753119    33A     -0.735052
      34A     -0.719860    35A     -0.706322    36A     -0.694847
      37A     -0.688528    38A     -0.674322    39A     -0.654744
      40A     -0.635807    41A     -0.624030    42A     -0.617901
      43A     -0.604700    44A     -0.594262    45A     -0.585282
      46A     -0.572323    47A     -0.569487    48A     -0.549172
      49A     -0.531544    50A     -0.525327    51A     -0.507295
      52A     -0.489496    53A     -0.481353    54A     -0.469200
      55A     -0.461204    56A     -0.443033    57A     -0.435176
      58A     -0.415510    59A     -0.382082    60A     -0.333450

  @DF-RHF Final Energy:  -811.47287654828119

   => Energetics <=

    Nuclear Repulsion Energy =           1167.8681156886495955
    One-Electron Energy =               -3430.8835151882549326
    Two-Electron Energy =                1451.5425229513241447
    Total Energy =                       -811.4728765482811923
  Basis Set: (AUG-CC-PVTZ AUX)
    Blend: AUG-CC-PVTZ-RI
    Molecular point group: c1

    Geometry (in Angstrom), charge = 0, multiplicity = 1:

       Center              X                  Y                   Z               Mass
    ------------   -----------------  -----------------  -----------------  -----------------
         O            1.358536951506    -0.382411923683    -0.933037959682    15.994914619570
         O            3.198522951506     1.898812076317    -0.300706959682    15.994914619570
         O            2.795872951506    -2.751347923683    -0.401394959682    15.994914619570
         O           -1.365720048494     2.371604076317     0.153589040318    15.994914619570
         N           -0.801778048494     0.197017076317    -0.230449959682    14.003074004430
         N           -3.057706048494     0.802838076317     0.238818040318    14.003074004430
         N           -4.676944048494    -0.814835923683     0.411443040318    14.003074004430
         C            2.698060951506     0.873153076317     0.558280040318    12.000000000000
         C            1.247239351506     1.148046576317     0.914018540318    12.000000000000
         C            2.701234351506    -0.392478523683    -0.291429059682    12.000000000000
         C            0.570423951506     0.680603076317    -0.416109959682    12.000000000000
         C            2.798563951506    -1.662416923683     0.521276040318    12.000000000000
         C           -1.130871048494    -1.118219923683    -0.309469959682    12.000000000000
         C           -1.748222048494     1.201491076317     0.080851040318    12.000000000000
         C           -2.420841048494    -1.506961923683    -0.105735959682    12.000000000000
         C           -3.365526048494    -0.475560923683     0.167317040318    12.000000000000
         H            3.330846951506     0.754384076317     1.449659040318     1.007825032230
         H            0.901172951506     0.441428076317     1.692295040318     1.007825032230
         H            0.981794951506     2.131666076317     1.156953040318     1.007825032230
         H            0.523919951506     1.510853076317    -1.126106959682     1.007825032230
         H            3.413957951506    -0.366683923683    -1.067819959682     1.007825032230
         H            1.967214951506    -1.735584923683     1.242029040318     1.007825032230
         H            3.742554951506    -1.611915923683     1.087095040318     1.007825032230
         H            3.100316951506     2.743923076317     0.176789040318     1.007825032230
         H           -0.314274048494    -1.791601923683    -0.544891959682     1.007825032230
         H            2.906495951506    -3.567472923683     0.118018040318     1.007825032230
         H           -2.707002048494    -2.551484923683    -0.154443959682     1.007825032230
         H           -5.032245048494    -1.640142923683    -0.057912959682     1.007825032230
         H           -5.303005048494    -0.016198923683     0.384907040318     1.007825032230

  Basis Set: AUG-CC-PVTZ
    Blend: AUG-CC-PVTZ
  Basis Set: (AUG-CC-PVTZ AUX)
    Blend: AUG-CC-PVTZ-JKFIT
	 Reference Energy          =    -811.4728765482811923 [Eh]
	 Singles Energy            =      -0.0000000000000000 [Eh]
	 Same-Spin Energy          =      -0.8294255260023009 [Eh]
	 Opposite-Spin Energy      =      -2.5256516386991761 [Eh]
	 Correlation Energy        =      -3.3550771647014770 [Eh]
	 Total Energy              =    -814.8279537129826622 [Eh]

	 ================> DF-SCS-MP2 Energies <==================
	-----------------------------------------------------------
	 SCS Same-Spin Scale       =       0.3333333333333333 [-]
	 SCS Opposite-Spin Scale   =       1.2000000000000000 [-]
	 SCS Same-Spin Energy      =      -0.2764751753341003 [Eh]
	 SCS Opposite-Spin Energy  =      -3.0307819664390112 [Eh]
	 SCS Correlation Energy    =      -3.3072571417731114 [Eh]
	 SCS Total Energy          =    -814.7801336900542992 [Eh]
	-----------------------------------------------------------

  Dipole Moment: [D]
     X:     1.2587      Y:    -4.7313      Z:     2.4824     Total:     5.4892

*** Psi4 exiting successfully. Buy a developer a beer!
