                               Psi4 1.3.2 release

  ==> Input File <==

--------------------------------------------------------------------------
#psi4
#
memory 32 gb

molecule  {
0 1
  O        1.3620710    -0.3800110    -0.9318440
  O        3.2020570     1.9012130    -0.2995130
  O        2.8600969    -2.7193864    -0.4322395
  O       -1.3621860     2.3740050     0.1547830
  N       -0.7982440     0.1994180    -0.2292560
  N       -3.0541720     0.8052390     0.2400120
  N       -4.6734100    -0.8124350     0.4126370
  C        2.7015950     0.8755540     0.5594740
  C        1.2368440     1.1072260     0.8878520
  C        2.6518190    -0.3922910    -0.2854700
  C        0.5739580     0.6830040    -0.4149160
  C        2.8020980    -1.6600160     0.5224700
  C       -1.1273370    -1.1158190    -0.3082760
  C       -1.7446880     1.2038920     0.0820450
  C       -2.4173070    -1.5045610    -0.1045420
  C       -3.3619920    -0.4731600     0.1685110
  H        3.3343810     0.7567850     1.4508530
  H        0.9047070     0.4438290     1.6934890
  H        0.9853290     2.1340670     1.1581470
  H        0.5274540     1.5132540    -1.1249130
  H        3.4174920    -0.3642830    -1.0666260
  H        1.9893604    -1.6841519     1.2673557
  H        3.7460890    -1.6095150     1.0882890
  H        3.1038510     2.7463240     0.1779830
  H       -0.3107400    -1.7892010    -0.5436980
  H        2.9100300    -3.5650720     0.1192120
  H       -2.7034680    -2.5490840    -0.1532500
  H       -5.0287110    -1.6377420    -0.0567190
  H       -5.2994710    -0.0137980     0.3861010
units angstrom
no_reorient  #important for SAPT in psi4, default
symmetry c1  #important for SAPT in psi4, default
}

set PROPERTIES_ORIGIN ["COM"]
properties('MP2/aug-cc-pvtz', properties = ['dipole'])
--------------------------------------------------------------------------

    Molecular point group: c1
  Charge       = 0
  Multiplicity = 1
  Basis Set: AUG-CC-PVTZ
    Blend: AUG-CC-PVTZ
  Basis Set: (AUG-CC-PVTZ AUX)
    Blend: AUG-CC-PVTZ-JKFIT

    Orbital Energies [Eh]
    ---------------------

    Doubly Occupied:

       1A    -20.584267     2A    -20.573752     3A    -20.572664
       4A    -20.503195     5A    -15.621919     6A    -15.588572
       7A    -15.541022     8A    -11.370063     9A    -11.345278
      10A    -11.330687    11A    -11.318686    12A    -11.299936
      13A    -11.296364    14A    -11.291423    15A    -11.237367
      16A    -11.236735    17A     -1.416391    18A     -1.382231
      19A     -1.370803    20A     -1.363525    21A     -1.292417
      22A     -1.261589    23A     -1.169304    24A     -1.078962
      25A     -1.068463    26A     -1.027166    27A     -0.925616
      28A     -0.897422    29A     -0.868617    30A     -0.830737
      31A     -0.806392    32A     -0.754419    33A     -0.738771
      34A     -0.719784    35A     -0.706195    36A     -0.689285
      37A     -0.686203    38A     -0.675501    39A     -0.656900
      40A     -0.637598    41A     -0.627601    42A     -0.618018
      43A     -0.603587    44A     -0.592876    45A     -0.589425
      46A     -0.572666    47A     -0.568197    48A     -0.547479
      49A     -0.532650    50A     -0.523217    51A     -0.509637
      52A     -0.484856    53A     -0.482086    54A     -0.468903
      55A     -0.460904    56A     -0.444316    57A     -0.437319
      58A     -0.416483    59A     -0.383904    60A     -0.335165

  @DF-RHF Final Energy:  -811.47308906660498

   => Energetics <=

    Nuclear Repulsion Energy =           1169.6978622104218175
    One-Electron Energy =               -3434.4708748884395391
    Two-Electron Energy =                1453.2999236114128507
    Total Energy =                       -811.4730890666050982
  Basis Set: (AUG-CC-PVTZ AUX)
    Blend: AUG-CC-PVTZ-RI
    Molecular point group: c1

    Geometry (in Angstrom), charge = 0, multiplicity = 1:

       Center              X                  Y                   Z               Mass
    ------------   -----------------  -----------------  -----------------  -----------------
         O            1.357713750551    -0.382310714084    -0.929694464561    15.994914619570
         O            3.197699750551     1.898913285916    -0.297363464561    15.994914619570
         O            2.855739650551    -2.721686114084    -0.430089964561    15.994914619570
         O           -1.366543249449     2.371705285916     0.156932535439    15.994914619570
         N           -0.802601249449     0.197118285916    -0.227106464561    14.003074004430
         N           -3.058529249449     0.802939285916     0.242161535439    14.003074004430
         N           -4.677767249449    -0.814734714084     0.414786535439    14.003074004430
         C            2.697237750551     0.873254285916     0.561623535439    12.000000000000
         C            1.232486750551     1.104926285916     0.890001535439    12.000000000000
         C            2.647461750551    -0.394590714084    -0.283320464561    12.000000000000
         C            0.569600750551     0.680704285916    -0.412766464561    12.000000000000
         C            2.797740750551    -1.662315714084     0.524619535439    12.000000000000
         C           -1.131694249449    -1.118118714084    -0.306126464561    12.000000000000
         C           -1.749045249449     1.201592285916     0.084194535439    12.000000000000
         C           -2.421664249449    -1.506860714084    -0.102392464561    12.000000000000
         C           -3.366349249449    -0.475459714084     0.170660535439    12.000000000000
         H            3.330023750551     0.754485285916     1.453002535439     1.007825032230
         H            0.900349750551     0.441529285916     1.695638535439     1.007825032230
         H            0.980971750551     2.131767285916     1.160296535439     1.007825032230
         H            0.523096750551     1.510954285916    -1.122763464561     1.007825032230
         H            3.413134750551    -0.366582714084    -1.064476464561     1.007825032230
         H            1.985003150551    -1.686451614084     1.269505235439     1.007825032230
         H            3.741731750551    -1.611814714084     1.090438535439     1.007825032230
         H            3.099493750551     2.744024285916     0.180132535439     1.007825032230
         H           -0.315097249449    -1.791500714084    -0.541548464561     1.007825032230
         H            2.905672750551    -3.567371714084     0.121361535439     1.007825032230
         H           -2.707825249449    -2.551383714084    -0.151100464561     1.007825032230
         H           -5.033068249449    -1.640041714084    -0.054569464561     1.007825032230
         H           -5.303828249449    -0.016097714084     0.388250535439     1.007825032230

  Basis Set: AUG-CC-PVTZ
    Blend: AUG-CC-PVTZ
  Basis Set: (AUG-CC-PVTZ AUX)
    Blend: AUG-CC-PVTZ-JKFIT
	 Reference Energy          =    -811.4730890666049845 [Eh]
	 Singles Energy            =      -0.0000000000000000 [Eh]
	 Same-Spin Energy          =      -0.8303960154150084 [Eh]
	 Opposite-Spin Energy      =      -2.5268500206913238 [Eh]
	 Correlation Energy        =      -3.3572460361063321 [Eh]
	 Total Energy              =    -814.8303351027112740 [Eh]

	 ================> DF-SCS-MP2 Energies <==================
	-----------------------------------------------------------
	 SCS Same-Spin Scale       =       0.3333333333333333 [-]
	 SCS Opposite-Spin Scale   =       1.2000000000000000 [-]
	 SCS Same-Spin Energy      =      -0.2767986718050028 [Eh]
	 SCS Opposite-Spin Energy  =      -3.0322200248295883 [Eh]
	 SCS Correlation Energy    =      -3.3090186966345909 [Eh]
	 SCS Total Energy          =    -814.7821077632395372 [Eh]
	-----------------------------------------------------------

  Dipole Moment: [D]
     X:     0.9440      Y:    -4.7448      Z:     2.5183     Total:     5.4540

*** Psi4 exiting successfully. Buy a developer a beer!
