                               Psi4 1.3.2 release

  ==> Input File <==

--------------------------------------------------------------------------
#psi4
#
memory 32 gb

molecule  {
0 1
  O        1.3620710    -0.3800110    -0.9318440
  O        3.2020570     1.9012130    -0.2995130
  O        2.7994070    -2.7489470    -0.4002010
  O       -1.3621860     2.3740050     0.1547830
  N       -0.7982440     0.1994180    -0.2292560
  N       -3.0541720     0.8052390     0.2400120
  N       -4.6734100    -0.8124350     0.4126370
  C        2.7015950     0.8755540     0.5594740
  C        1.2584022     1.1719359     0.9287324
  C        2.7312456    -0.3883924    -0.2922298
  C        0.5739580     0.6830040    -0.4149160
  C        2.8020980    -1.6600160     0.5224700
  C       -1.1273370    -1.1158190    -0.3082760
  C       -1.7446880     1.2038920     0.0820450
  C       -2.4173070    -1.5045610    -0.1045420
  C       -3.3619920    -0.4731600     0.1685110
  H        3.3343810     0.7567850     1.4508530
  H        0.9047070     0.4438290     1.6934890
  H        0.9853290     2.1340670     1.1581470
  H        0.5274540     1.5132540    -1.1249130
  H        3.4174920    -0.3642830    -1.0666260
  H        1.9707490    -1.7331840     1.2432230
  H        3.7460890    -1.6095150     1.0882890
  H        3.1038510     2.7463240     0.1779830
  H       -0.3107400    -1.7892010    -0.5436980
  H        2.9100300    -3.5650720     0.1192120
  H       -2.7034680    -2.5490840    -0.1532500
  H       -5.0287110    -1.6377420    -0.0567190
  H       -5.2994710    -0.0137980     0.3861010
units angstrom
no_reorient  #important for SAPT in psi4, default
symmetry c1  #important for SAPT in psi4, default
}

set PROPERTIES_ORIGIN ["COM"]
properties('MP2/aug-cc-pvtz', properties = ['dipole'])
--------------------------------------------------------------------------

    Molecular point group: c1
  Charge       = 0
  Multiplicity = 1
  Basis Set: AUG-CC-PVTZ
    Blend: AUG-CC-PVTZ
  Basis Set: (AUG-CC-PVTZ AUX)
    Blend: AUG-CC-PVTZ-JKFIT

    Orbital Energies [Eh]
    ---------------------

    Doubly Occupied:

       1A    -20.579742     2A    -20.573976     3A    -20.566469
       4A    -20.501790     5A    -15.620108     6A    -15.587163
       7A    -15.539396     8A    -11.368312     9A    -11.343570
      10A    -11.329362    11A    -11.316350    12A    -11.303689
      13A    -11.300593    14A    -11.296641    15A    -11.237101
      16A    -11.235354    17A     -1.402166    18A     -1.381066
      19A     -1.375213    20A     -1.359058    21A     -1.290230
      22A     -1.258076    23A     -1.167214    24A     -1.073484
      25A     -1.069130    26A     -1.025931    27A     -0.924794
      28A     -0.896214    29A     -0.870654    30A     -0.828698
      31A     -0.812273    32A     -0.752630    33A     -0.733441
      34A     -0.719258    35A     -0.706255    36A     -0.696218
      37A     -0.688075    38A     -0.673505    39A     -0.653882
      40A     -0.635377    41A     -0.622607    42A     -0.617627
      43A     -0.606152    44A     -0.594049    45A     -0.583966
      46A     -0.573243    47A     -0.568465    48A     -0.551544
      49A     -0.531595    50A     -0.524669    51A     -0.506233
      52A     -0.490070    53A     -0.480425    54A     -0.469727
      55A     -0.460483    56A     -0.442183    57A     -0.432940
      58A     -0.415067    59A     -0.381181    60A     -0.332697

  @DF-RHF Final Energy:  -811.46480426494918

   => Energetics <=

    Nuclear Repulsion Energy =           1166.8477729350991012
    One-Electron Energy =               -3428.8703930609467534
    Two-Electron Energy =                1450.5578158608982449
    Total Energy =                       -811.4648042649491799
  Basis Set: (AUG-CC-PVTZ AUX)
    Blend: AUG-CC-PVTZ-RI
    Molecular point group: c1

    Geometry (in Angstrom), charge = 0, multiplicity = 1:

       Center              X                  Y                   Z               Mass
    ------------   -----------------  -----------------  -----------------  -----------------
         O            1.356734710509    -0.383636471035    -0.933646978269    15.994914619570
         O            3.196720710509     1.897587528965    -0.301315978269    15.994914619570
         O            2.794070710509    -2.752572471035    -0.402003978269    15.994914619570
         O           -1.367522289491     2.370379528965     0.152980021731    15.994914619570
         N           -0.803580289491     0.195792528965    -0.231058978269    14.003074004430
         N           -3.059508289491     0.801613528965     0.238209021731    14.003074004430
         N           -4.678746289491    -0.816060471035     0.410834021731    14.003074004430
         C            2.696258710509     0.871928528965     0.557671021731    12.000000000000
         C            1.253065910509     1.168310428965     0.926929421731    12.000000000000
         C            2.725909310509    -0.392017871035    -0.294032778269    12.000000000000
         C            0.568621710509     0.679378528965    -0.416718978269    12.000000000000
         C            2.796761710509    -1.663641471035     0.520667021731    12.000000000000
         C           -1.132673289491    -1.119444471035    -0.310078978269    12.000000000000
         C           -1.750024289491     1.200266528965     0.080242021731    12.000000000000
         C           -2.422643289491    -1.508186471035    -0.106344978269    12.000000000000
         C           -3.367328289491    -0.476785471035     0.166708021731    12.000000000000
         H            3.329044710509     0.753159528965     1.449050021731     1.007825032230
         H            0.899370710509     0.440203528965     1.691686021731     1.007825032230
         H            0.979992710509     2.130441528965     1.156344021731     1.007825032230
         H            0.522117710509     1.509628528965    -1.126715978269     1.007825032230
         H            3.412155710509    -0.367908471035    -1.068428978269     1.007825032230
         H            1.965412710509    -1.736809471035     1.241420021731     1.007825032230
         H            3.740752710509    -1.613140471035     1.086486021731     1.007825032230
         H            3.098514710509     2.742698528965     0.176180021731     1.007825032230
         H           -0.316076289491    -1.792826471035    -0.545500978269     1.007825032230
         H            2.904693710509    -3.568697471035     0.117409021731     1.007825032230
         H           -2.708804289491    -2.552709471035    -0.155052978269     1.007825032230
         H           -5.034047289491    -1.641367471035    -0.058521978269     1.007825032230
         H           -5.304807289491    -0.017423471035     0.384298021731     1.007825032230

  Basis Set: AUG-CC-PVTZ
    Blend: AUG-CC-PVTZ
  Basis Set: (AUG-CC-PVTZ AUX)
    Blend: AUG-CC-PVTZ-JKFIT
	 Reference Energy          =    -811.4648042649491799 [Eh]
	 Singles Energy            =      -0.0000000000000000 [Eh]
	 Same-Spin Energy          =      -0.8294850590556513 [Eh]
	 Opposite-Spin Energy      =      -2.5262296867318526 [Eh]
	 Correlation Energy        =      -3.3557147457875036 [Eh]
	 Total Energy              =    -814.8205190107366889 [Eh]

	 ================> DF-SCS-MP2 Energies <==================
	-----------------------------------------------------------
	 SCS Same-Spin Scale       =       0.3333333333333333 [-]
	 SCS Opposite-Spin Scale   =       1.2000000000000000 [-]
	 SCS Same-Spin Energy      =      -0.2764950196852171 [Eh]
	 SCS Opposite-Spin Energy  =      -3.0314756240782228 [Eh]
	 SCS Correlation Energy    =      -3.3079706437634400 [Eh]
	 SCS Total Energy          =    -814.7727749087125630 [Eh]
	-----------------------------------------------------------

  Dipole Moment: [D]
     X:     1.3440      Y:    -4.7586      Z:     2.4777     Total:     5.5308

*** Psi4 exiting successfully. Buy a developer a beer!
