                               Psi4 1.3.2 release

  ==> Input File <==

--------------------------------------------------------------------------
#psi4
#
memory 32 gb

molecule  {
0 1
  O        1.3620710    -0.3800110    -0.9318440
  O        3.2020570     1.9012130    -0.2995130
  O        2.7994070    -2.7489470    -0.4002010
  O       -1.3621860     2.3740050     0.1547830
  N       -0.7982440     0.1994180    -0.2292560
  N       -3.0541720     0.8052390     0.2400120
  N       -4.6734100    -0.8124350     0.4126370
  C        2.7015950     0.8755540     0.5594740
  C        1.2368440     1.1072260     0.8878520
  C        2.6599134    -0.3983162    -0.2768013
  C        0.5739580     0.6830040    -0.4149160
  C        2.8020980    -1.6600160     0.5224700
  C       -1.1273370    -1.1158190    -0.3082760
  C       -1.7446880     1.2038920     0.0820450
  C       -2.4173070    -1.5045610    -0.1045420
  C       -3.3619920    -0.4731600     0.1685110
  H        3.3362750     0.7477448     1.4482523
  H        0.9047070     0.4438290     1.6934890
  H        0.9853290     2.1340670     1.1581470
  H        0.5274540     1.5132540    -1.1249130
  H        3.4174920    -0.3642830    -1.0666260
  H        1.9707490    -1.7331840     1.2432230
  H        3.7460890    -1.6095150     1.0882890
  H        3.1038510     2.7463240     0.1779830
  H       -0.3107400    -1.7892010    -0.5436980
  H        2.9100300    -3.5650720     0.1192120
  H       -2.7034680    -2.5490840    -0.1532500
  H       -5.0287110    -1.6377420    -0.0567190
  H       -5.2994710    -0.0137980     0.3861010
units angstrom
no_reorient  #important for SAPT in psi4, default
symmetry c1  #important for SAPT in psi4, default
}

set PROPERTIES_ORIGIN ["COM"]
properties('MP2/aug-cc-pvtz', properties = ['dipole'])
--------------------------------------------------------------------------

    Molecular point group: c1
  Charge       = 0
  Multiplicity = 1
  Basis Set: AUG-CC-PVTZ
    Blend: AUG-CC-PVTZ
  Basis Set: (AUG-CC-PVTZ AUX)
    Blend: AUG-CC-PVTZ-JKFIT

    Orbital Energies [Eh]
    ---------------------

    Doubly Occupied:

       1A    -20.578324     2A    -20.574802     3A    -20.571552
       4A    -20.502794     5A    -15.621350     6A    -15.588164
       7A    -15.540556     8A    -11.369611     9A    -11.344798
      10A    -11.330068    11A    -11.317973    12A    -11.301328
      13A    -11.297290    14A    -11.293382    15A    -11.236837
      16A    -11.236751    17A     -1.414083    18A     -1.382188
      19A     -1.374105    20A     -1.365052    21A     -1.291890
      22A     -1.260906    23A     -1.168822    24A     -1.078793
      25A     -1.069828    26A     -1.028747    27A     -0.927435
      28A     -0.897148    29A     -0.868969    30A     -0.830089
      31A     -0.805994    32A     -0.753983    33A     -0.738067
      34A     -0.720973    35A     -0.706923    36A     -0.692836
      37A     -0.689279    38A     -0.675677    39A     -0.656329
      40A     -0.637183    41A     -0.627031    42A     -0.618446
      43A     -0.604754    44A     -0.594901    45A     -0.588242
      46A     -0.572356    47A     -0.568253    48A     -0.544721
      49A     -0.532365    50A     -0.523216    51A     -0.510603
      52A     -0.485567    53A     -0.482061    54A     -0.468785
      55A     -0.461872    56A     -0.444572    57A     -0.438227
      58A     -0.416092    59A     -0.383521    60A     -0.334662

  @DF-RHF Final Energy:  -811.47887092256428

   => Energetics <=

    Nuclear Repulsion Energy =           1169.8078245827471164
    One-Electron Energy =               -3434.6911400755489012
    Two-Electron Energy =                1453.4044445702372741
    Total Energy =                       -811.4788709225642833
  Basis Set: (AUG-CC-PVTZ AUX)
    Blend: AUG-CC-PVTZ-RI
    Molecular point group: c1

    Geometry (in Angstrom), charge = 0, multiplicity = 1:

       Center              X                  Y                   Z               Mass
    ------------   -----------------  -----------------  -----------------  -----------------
         O            1.361634851468    -0.379652531073    -0.932290498333    15.994914619570
         O            3.201620851468     1.901571468927    -0.299959498333    15.994914619570
         O            2.798970851468    -2.748588531073    -0.400647498333    15.994914619570
         O           -1.362622148532     2.374363468927     0.154336501667    15.994914619570
         N           -0.798680148532     0.199776468927    -0.229702498333    14.003074004430
         N           -3.054608148532     0.805597468927     0.239565501667    14.003074004430
         N           -4.673846148532    -0.812076531073     0.412190501667    14.003074004430
         C            2.701158851468     0.875912468927     0.559027501667    12.000000000000
         C            1.236407851468     1.107584468927     0.887405501667    12.000000000000
         C            2.659477251468    -0.397957731073    -0.277247798333    12.000000000000
         C            0.573521851468     0.683362468927    -0.415362498333    12.000000000000
         C            2.801661851468    -1.659657531073     0.522023501667    12.000000000000
         C           -1.127773148532    -1.115460531073    -0.308722498333    12.000000000000
         C           -1.745124148532     1.204250468927     0.081598501667    12.000000000000
         C           -2.417743148532    -1.504202531073    -0.104988498333    12.000000000000
         C           -3.362428148532    -0.472801531073     0.168064501667    12.000000000000
         H            3.335838851468     0.748103268927     1.447805801667     1.007825032230
         H            0.904270851468     0.444187468927     1.693042501667     1.007825032230
         H            0.984892851468     2.134425468927     1.157700501667     1.007825032230
         H            0.527017851468     1.513612468927    -1.125359498333     1.007825032230
         H            3.417055851468    -0.363924531073    -1.067072498333     1.007825032230
         H            1.970312851468    -1.732825531073     1.242776501667     1.007825032230
         H            3.745652851468    -1.609156531073     1.087842501667     1.007825032230
         H            3.103414851468     2.746682468927     0.177536501667     1.007825032230
         H           -0.311176148532    -1.788842531073    -0.544144498333     1.007825032230
         H            2.909593851468    -3.564713531073     0.118765501667     1.007825032230
         H           -2.703904148532    -2.548725531073    -0.153696498333     1.007825032230
         H           -5.029147148532    -1.637383531073    -0.057165498333     1.007825032230
         H           -5.299907148532    -0.013439531073     0.385654501667     1.007825032230

  Basis Set: AUG-CC-PVTZ
    Blend: AUG-CC-PVTZ
  Basis Set: (AUG-CC-PVTZ AUX)
    Blend: AUG-CC-PVTZ-JKFIT
	 Reference Energy          =    -811.4788709225642833 [Eh]
	 Singles Energy            =      -0.0000000000000000 [Eh]
	 Same-Spin Energy          =      -0.8297522405848049 [Eh]
	 Opposite-Spin Energy      =      -2.5253583485627393 [Eh]
	 Correlation Energy        =      -3.3551105891475443 [Eh]
	 Total Energy              =    -814.8339815117118405 [Eh]

	 ================> DF-SCS-MP2 Energies <==================
	-----------------------------------------------------------
	 SCS Same-Spin Scale       =       0.3333333333333333 [-]
	 SCS Opposite-Spin Scale   =       1.2000000000000000 [-]
	 SCS Same-Spin Energy      =      -0.2765840801949350 [Eh]
	 SCS Opposite-Spin Energy  =      -3.0304300182752870 [Eh]
	 SCS Correlation Energy    =      -3.3070140984702219 [Eh]
	 SCS Total Energy          =    -814.7858850210344599 [Eh]
	-----------------------------------------------------------

  Dipole Moment: [D]
     X:     1.1206      Y:    -4.6968      Z:     2.5042     Total:     5.4394

*** Psi4 exiting successfully. Buy a developer a beer!
