                               Psi4 1.3.2 release

  ==> Input File <==

--------------------------------------------------------------------------
#psi4
#
memory 32 gb

molecule  {
0 1
  O        1.3620710    -0.3800110    -0.9318440
  O        3.2020570     1.9012130    -0.2995130
  O        2.7994070    -2.7489470    -0.4002010
  O       -1.3421970     2.3675658     0.1500697
  N       -0.7806458     0.2166933    -0.2305151
  N       -3.0541720     0.8052390     0.2400120
  N       -4.6734100    -0.8124350     0.4126370
  C        2.7015950     0.8755540     0.5594740
  C        1.2368440     1.1072260     0.8878520
  C        2.6518190    -0.3922910    -0.2854700
  C        0.5739580     0.6830040    -0.4149160
  C        2.8020980    -1.6600160     0.5224700
  C       -1.1273370    -1.1158190    -0.3082760
  C       -1.7446880     1.2038920     0.0820450
  C       -2.4173070    -1.5045610    -0.1045420
  C       -3.3619920    -0.4731600     0.1685110
  H        3.3343810     0.7567850     1.4508530
  H        0.9047070     0.4438290     1.6934890
  H        0.9853290     2.1340670     1.1581470
  H        0.5274540     1.5132540    -1.1249130
  H        3.4174920    -0.3642830    -1.0666260
  H        1.9707490    -1.7331840     1.2432230
  H        3.7460890    -1.6095150     1.0882890
  H        3.1038510     2.7463240     0.1779830
  H       -0.3107400    -1.7892010    -0.5436980
  H        2.9100300    -3.5650720     0.1192120
  H       -2.7034680    -2.5490840    -0.1532500
  H       -5.0287110    -1.6377420    -0.0567190
  H       -5.2994710    -0.0137980     0.3861010
units angstrom
no_reorient  #important for SAPT in psi4, default
symmetry c1  #important for SAPT in psi4, default
}

set PROPERTIES_ORIGIN ["COM"]
properties('MP2/aug-cc-pvtz', properties = ['dipole'])
--------------------------------------------------------------------------

    Molecular point group: c1
  Charge       = 0
  Multiplicity = 1
  Basis Set: AUG-CC-PVTZ
    Blend: AUG-CC-PVTZ
  Basis Set: (AUG-CC-PVTZ AUX)
    Blend: AUG-CC-PVTZ-JKFIT

    Orbital Energies [Eh]
    ---------------------

    Doubly Occupied:

       1A    -20.577179     2A    -20.573179     3A    -20.571523
       4A    -20.501885     5A    -15.620071     6A    -15.590189
       7A    -15.542953     8A    -11.369843     9A    -11.347321
      10A    -11.327357    11A    -11.320308    12A    -11.299495
      13A    -11.296129    14A    -11.292033    15A    -11.239546
      16A    -11.234848    17A     -1.416075    18A     -1.382273
      19A     -1.372765    20A     -1.364827    21A     -1.291354
      22A     -1.259730    23A     -1.171238    24A     -1.078619
      25A     -1.068888    26A     -1.027138    27A     -0.927232
      28A     -0.895752    29A     -0.868982    30A     -0.830406
      31A     -0.805814    32A     -0.755050    33A     -0.737066
      34A     -0.720069    35A     -0.707965    36A     -0.692307
      37A     -0.688777    38A     -0.676177    39A     -0.656652
      40A     -0.637089    41A     -0.626798    42A     -0.618376
      43A     -0.604509    44A     -0.595244    45A     -0.588083
      46A     -0.572955    47A     -0.567493    48A     -0.544253
      49A     -0.532855    50A     -0.522753    51A     -0.509539
      52A     -0.484466    53A     -0.479531    54A     -0.467661
      55A     -0.459503    56A     -0.444795    57A     -0.437370
      58A     -0.416839    59A     -0.384615    60A     -0.336315

  @DF-RHF Final Energy:  -811.47825061298397

   => Energetics <=

    Nuclear Repulsion Energy =           1170.3337710044131654
    One-Electron Energy =               -3435.7639239059008105
    Two-Electron Energy =                1453.9519022885035611
    Total Energy =                       -811.4782506129838566
  Basis Set: (AUG-CC-PVTZ AUX)
    Blend: AUG-CC-PVTZ-RI
    Molecular point group: c1

    Geometry (in Angstrom), charge = 0, multiplicity = 1:

       Center              X                  Y                   Z               Mass
    ------------   -----------------  -----------------  -----------------  -----------------
         O            1.359577920831    -0.380622743773    -0.931434349088    15.994914619570
         O            3.199563920831     1.900601256227    -0.299103349088    15.994914619570
         O            2.796913920831    -2.749558743773    -0.399791349088    15.994914619570
         O           -1.344690079169     2.366954056227     0.150479350912    15.994914619570
         N           -0.783138879169     0.216081556227    -0.230105449088    14.003074004430
         N           -3.056665079169     0.804627256227     0.240421650912    14.003074004430
         N           -4.675903079169    -0.813046743773     0.413046650912    14.003074004430
         C            2.699101920831     0.874942256227     0.559883650912    12.000000000000
         C            1.234350920831     1.106614256227     0.888261650912    12.000000000000
         C            2.649325920831    -0.392902743773    -0.285060349088    12.000000000000
         C            0.571464920831     0.682392256227    -0.414506349088    12.000000000000
         C            2.799604920831    -1.660627743773     0.522879650912    12.000000000000
         C           -1.129830079169    -1.116430743773    -0.307866349088    12.000000000000
         C           -1.747181079169     1.203280256227     0.082454650912    12.000000000000
         C           -2.419800079169    -1.505172743773    -0.104132349088    12.000000000000
         C           -3.364485079169    -0.473771743773     0.168920650912    12.000000000000
         H            3.331887920831     0.756173256227     1.451262650912     1.007825032230
         H            0.902213920831     0.443217256227     1.693898650912     1.007825032230
         H            0.982835920831     2.133455256227     1.158556650912     1.007825032230
         H            0.524960920831     1.512642256227    -1.124503349088     1.007825032230
         H            3.414998920831    -0.364894743773    -1.066216349088     1.007825032230
         H            1.968255920831    -1.733795743773     1.243632650912     1.007825032230
         H            3.743595920831    -1.610126743773     1.088698650912     1.007825032230
         H            3.101357920831     2.745712256227     0.178392650912     1.007825032230
         H           -0.313233079169    -1.789812743773    -0.543288349088     1.007825032230
         H            2.907536920831    -3.565683743773     0.119621650912     1.007825032230
         H           -2.705961079169    -2.549695743773    -0.152840349088     1.007825032230
         H           -5.031204079169    -1.638353743773    -0.056309349088     1.007825032230
         H           -5.301964079169    -0.014409743773     0.386510650912     1.007825032230

  Basis Set: AUG-CC-PVTZ
    Blend: AUG-CC-PVTZ
  Basis Set: (AUG-CC-PVTZ AUX)
    Blend: AUG-CC-PVTZ-JKFIT
	 Reference Energy          =    -811.4782506129839703 [Eh]
	 Singles Energy            =      -0.0000000000000000 [Eh]
	 Same-Spin Energy          =      -0.8296326426933719 [Eh]
	 Opposite-Spin Energy      =      -2.5252655751701245 [Eh]
	 Correlation Energy        =      -3.3548982178634965 [Eh]
	 Total Energy              =    -814.8331488308474491 [Eh]

	 ================> DF-SCS-MP2 Energies <==================
	-----------------------------------------------------------
	 SCS Same-Spin Scale       =       0.3333333333333333 [-]
	 SCS Opposite-Spin Scale   =       1.2000000000000000 [-]
	 SCS Same-Spin Energy      =      -0.2765442142311240 [Eh]
	 SCS Opposite-Spin Energy  =      -3.0303186902041492 [Eh]
	 SCS Correlation Energy    =      -3.3068629044352731 [Eh]
	 SCS Total Energy          =    -814.7851135174192905 [Eh]
	-----------------------------------------------------------

  Dipole Moment: [D]
     X:     0.8834      Y:    -4.7257      Z:     2.5049     Total:     5.4210

*** Psi4 exiting successfully. Buy a developer a beer!
