                               Psi4 1.3.2 release

  ==> Input File <==

--------------------------------------------------------------------------
#psi4
#
memory 32 gb

molecule  {
0 1
  O        1.3620710    -0.3800110    -0.9318440
  O        3.2020570     1.9012130    -0.2995130
  O        2.7994070    -2.7489470    -0.4002010
  O       -1.3621860     2.3740050     0.1547830
  N       -0.7982440     0.1994180    -0.2292560
  N       -3.0541720     0.8052390     0.2400120
  N       -4.6734100    -0.8124350     0.4126370
  C        2.7015950     0.8755540     0.5594740
  C        1.2368440     1.1072260     0.8878520
  C        2.6583495    -0.2259524    -0.1746151
  C        0.5739580     0.6830040    -0.4149160
  C        2.8020980    -1.6600160     0.5224700
  C       -1.1273370    -1.1158190    -0.3082760
  C       -1.7446880     1.2038920     0.0820450
  C       -2.4173070    -1.5045610    -0.1045420
  C       -3.3619920    -0.4731600     0.1685110
  H        3.3343810     0.7567850     1.4508530
  H        0.9047070     0.4438290     1.6934890
  H        0.9853290     2.1340670     1.1581470
  H        0.5274540     1.5132540    -1.1249130
  H        3.4174920    -0.3642830    -1.0666260
  H        1.9707490    -1.7331840     1.2432230
  H        3.7460890    -1.6095150     1.0882890
  H        3.1038510     2.7463240     0.1779830
  H       -0.3107400    -1.7892010    -0.5436980
  H        2.9100300    -3.5650720     0.1192120
  H       -2.7034680    -2.5490840    -0.1532500
  H       -5.0287110    -1.6377420    -0.0567190
  H       -5.2994710    -0.0137980     0.3861010
units angstrom
no_reorient  #important for SAPT in psi4, default
symmetry c1  #important for SAPT in psi4, default
}

set PROPERTIES_ORIGIN ["COM"]
properties('MP2/aug-cc-pvtz', properties = ['dipole'])
--------------------------------------------------------------------------

    Molecular point group: c1
  Charge       = 0
  Multiplicity = 1
  Basis Set: AUG-CC-PVTZ
    Blend: AUG-CC-PVTZ
  Basis Set: (AUG-CC-PVTZ AUX)
    Blend: AUG-CC-PVTZ-JKFIT

    Orbital Energies [Eh]
    ---------------------

    Doubly Occupied:

       1A    -20.580972     2A    -20.577528     3A    -20.570877
       4A    -20.502695     5A    -15.620684     6A    -15.587959
       7A    -15.540232     8A    -11.369158     9A    -11.344541
      10A    -11.327651    11A    -11.317561    12A    -11.304527
      13A    -11.298515    14A    -11.294002    15A    -11.242054
      16A    -11.236414    17A     -1.412582    18A     -1.384507
      19A     -1.374679    20A     -1.363697    21A     -1.291363
      22A     -1.259648    23A     -1.168259    24A     -1.110779
      25A     -1.071156    26A     -1.020795    27A     -0.928840
      28A     -0.899451    29A     -0.878138    30A     -0.832058
      31A     -0.796900    32A     -0.753563    33A     -0.739915
      34A     -0.723687    35A     -0.710746    36A     -0.694570
      37A     -0.690705    38A     -0.672128    39A     -0.653945
      40A     -0.638870    41A     -0.630457    42A     -0.618966
      43A     -0.600887    44A     -0.593394    45A     -0.583071
      46A     -0.576708    47A     -0.558191    48A     -0.548500
      49A     -0.536177    50A     -0.520700    51A     -0.510790
      52A     -0.501502    53A     -0.481448    54A     -0.466338
      55A     -0.460390    56A     -0.442324    57A     -0.425657
      58A     -0.414907    59A     -0.383172    60A     -0.334486

  @DF-RHF Final Energy:  -811.42420024405260

   => Energetics <=

    Nuclear Repulsion Energy =           1171.2368133624038364
    One-Electron Energy =               -3437.3731910887413505
    Two-Electron Energy =                1454.7121774822851421
    Total Energy =                       -811.4242002440525994
  Basis Set: (AUG-CC-PVTZ AUX)
    Blend: AUG-CC-PVTZ-RI
    Molecular point group: c1

    Geometry (in Angstrom), charge = 0, multiplicity = 1:

       Center              X                  Y                   Z               Mass
    ------------   -----------------  -----------------  -----------------  -----------------
         O            1.361725897156    -0.388800758634    -0.937701798575    15.994914619570
         O            3.201711897156     1.892423241366    -0.305370798575    15.994914619570
         O            2.799061897156    -2.757736758634    -0.406058798575    15.994914619570
         O           -1.362531102844     2.365215241366     0.148925201425    15.994914619570
         N           -0.798589102844     0.190628241366    -0.235113798575    14.003074004430
         N           -3.054517102844     0.796449241366     0.234154201425    14.003074004430
         N           -4.673755102844    -0.821224758634     0.406779201425    14.003074004430
         C            2.701249897156     0.866764241366     0.553616201425    12.000000000000
         C            1.236498897156     1.098436241366     0.881994201425    12.000000000000
         C            2.658004397156    -0.234742158634    -0.180472898575    12.000000000000
         C            0.573612897156     0.674214241366    -0.420773798575    12.000000000000
         C            2.801752897156    -1.668805758634     0.516612201425    12.000000000000
         C           -1.127682102844    -1.124608758634    -0.314133798575    12.000000000000
         C           -1.745033102844     1.195102241366     0.076187201425    12.000000000000
         C           -2.417652102844    -1.513350758634    -0.110399798575    12.000000000000
         C           -3.362337102844    -0.481949758634     0.162653201425    12.000000000000
         H            3.334035897156     0.747995241366     1.444995201425     1.007825032230
         H            0.904361897156     0.435039241366     1.687631201425     1.007825032230
         H            0.984983897156     2.125277241366     1.152289201425     1.007825032230
         H            0.527108897156     1.504464241366    -1.130770798575     1.007825032230
         H            3.417146897156    -0.373072758634    -1.072483798575     1.007825032230
         H            1.970403897156    -1.741973758634     1.237365201425     1.007825032230
         H            3.745743897156    -1.618304758634     1.082431201425     1.007825032230
         H            3.103505897156     2.737534241366     0.172125201425     1.007825032230
         H           -0.311085102844    -1.797990758634    -0.549555798575     1.007825032230
         H            2.909684897156    -3.573861758634     0.113354201425     1.007825032230
         H           -2.703813102844    -2.557873758634    -0.159107798575     1.007825032230
         H           -5.029056102844    -1.646531758634    -0.062576798575     1.007825032230
         H           -5.299816102844    -0.022587758634     0.380243201425     1.007825032230

  Basis Set: AUG-CC-PVTZ
    Blend: AUG-CC-PVTZ
  Basis Set: (AUG-CC-PVTZ AUX)
    Blend: AUG-CC-PVTZ-JKFIT
	 Reference Energy          =    -811.4242002440525994 [Eh]
	 Singles Energy            =      -0.0000000000000000 [Eh]
	 Same-Spin Energy          =      -0.8332868403100347 [Eh]
	 Opposite-Spin Energy      =      -2.5311686876444410 [Eh]
	 Correlation Energy        =      -3.3644555279544757 [Eh]
	 Total Energy              =    -814.7886557720070186 [Eh]

	 ================> DF-SCS-MP2 Energies <==================
	-----------------------------------------------------------
	 SCS Same-Spin Scale       =       0.3333333333333333 [-]
	 SCS Opposite-Spin Scale   =       1.2000000000000000 [-]
	 SCS Same-Spin Energy      =      -0.2777622801033449 [Eh]
	 SCS Opposite-Spin Energy  =      -3.0374024251733291 [Eh]
	 SCS Correlation Energy    =      -3.3151647052766742 [Eh]
	 SCS Total Energy          =    -814.7393649493292287 [Eh]
	-----------------------------------------------------------

  Dipole Moment: [D]
     X:     1.1159      Y:    -4.5757      Z:     2.6083     Total:     5.3838

*** Psi4 exiting successfully. Buy a developer a beer!
