                               Psi4 1.3.2 release

  ==> Input File <==

--------------------------------------------------------------------------
#psi4
#
memory 32 gb

molecule  {
0 1
  O        1.3620710    -0.3800110    -0.9318440
  O        3.2020570     1.9012130    -0.2995130
  O        2.7994070    -2.7489470    -0.4002010
  O       -1.3621860     2.3740050     0.1547830
  N       -0.7982440     0.1994180    -0.2292560
  N       -3.0541720     0.8052390     0.2400120
  N       -4.6734100    -0.8124350     0.4126370
  C        2.7015950     0.8755540     0.5594740
  C        1.2384639     1.1194726     0.8829722
  C        2.6518190    -0.3922910    -0.2854700
  C        0.5739580     0.6830040    -0.4149160
  C        2.8020980    -1.6600160     0.5224700
  C       -1.1273370    -1.1158190    -0.3082760
  C       -1.7446880     1.2038920     0.0820450
  C       -2.4173070    -1.5045610    -0.1045420
  C       -3.3619920    -0.4731600     0.1685110
  H        3.3343810     0.7567850     1.4508530
  H        0.9047070     0.4438290     1.6934890
  H        0.9853290     2.1340670     1.1581470
  H        0.5317572     1.5188958    -1.1185333
  H        3.4174920    -0.3642830    -1.0666260
  H        1.9707490    -1.7331840     1.2432230
  H        3.7460890    -1.6095150     1.0882890
  H        3.1038510     2.7463240     0.1779830
  H       -0.3107400    -1.7892010    -0.5436980
  H        2.9100300    -3.5650720     0.1192120
  H       -2.7034680    -2.5490840    -0.1532500
  H       -5.0287110    -1.6377420    -0.0567190
  H       -5.2994710    -0.0137980     0.3861010
units angstrom
no_reorient  #important for SAPT in psi4, default
symmetry c1  #important for SAPT in psi4, default
}

set PROPERTIES_ORIGIN ["COM"]
properties('MP2/aug-cc-pvtz', properties = ['dipole'])
--------------------------------------------------------------------------

    Molecular point group: c1
  Charge       = 0
  Multiplicity = 1
  Basis Set: AUG-CC-PVTZ
    Blend: AUG-CC-PVTZ
  Basis Set: (AUG-CC-PVTZ AUX)
    Blend: AUG-CC-PVTZ-JKFIT

    Orbital Energies [Eh]
    ---------------------

    Doubly Occupied:

       1A    -20.577801     2A    -20.573965     3A    -20.573229
       4A    -20.503135     5A    -15.621943     6A    -15.588381
       7A    -15.540830     8A    -11.369961     9A    -11.345072
      10A    -11.330705    11A    -11.318354    12A    -11.300896
      13A    -11.296903    14A    -11.293310    15A    -11.237066
      16A    -11.236829    17A     -1.416692    18A     -1.382479
      19A     -1.373596    20A     -1.365721    21A     -1.292276
      22A     -1.261453    23A     -1.169134    24A     -1.078928
      25A     -1.068858    26A     -1.028183    27A     -0.926804
      28A     -0.897476    29A     -0.869045    30A     -0.830589
      31A     -0.806673    32A     -0.754203    33A     -0.738817
      34A     -0.721203    35A     -0.706865    36A     -0.693155
      37A     -0.689064    38A     -0.675626    39A     -0.656642
      40A     -0.637161    41A     -0.627097    42A     -0.618342
      43A     -0.604656    44A     -0.595028    45A     -0.588945
      46A     -0.573131    47A     -0.568688    48A     -0.545491
      49A     -0.531816    50A     -0.525567    51A     -0.508889
      52A     -0.486062    53A     -0.482199    54A     -0.468284
      55A     -0.461120    56A     -0.444475    57A     -0.437694
      58A     -0.416421    59A     -0.383716    60A     -0.334998

  @DF-RHF Final Energy:  -811.47915642958060

   => Energetics <=

    Nuclear Repulsion Energy =           1169.8858542777093135
    One-Electron Energy =               -3434.8267378221949002
    Two-Electron Energy =                1453.4617271149049884
    Total Energy =                       -811.4791564295805983
  Basis Set: (AUG-CC-PVTZ AUX)
    Blend: AUG-CC-PVTZ-RI
    Molecular point group: c1

    Geometry (in Angstrom), charge = 0, multiplicity = 1:

       Center              X                  Y                   Z               Mass
    ------------   -----------------  -----------------  -----------------  -----------------
         O            1.361966287229    -0.380683214338    -0.931614418724    15.994914619570
         O            3.201952287229     1.900540785662    -0.299283418724    15.994914619570
         O            2.799302287229    -2.749619214338    -0.399971418724    15.994914619570
         O           -1.362290712771     2.373332785662     0.155012581276    15.994914619570
         N           -0.798348712771     0.198745785662    -0.229026418724    14.003074004430
         N           -3.054276712771     0.804566785662     0.240241581276    14.003074004430
         N           -4.673514712771    -0.813107214338     0.412866581276    14.003074004430
         C            2.701490287229     0.874881785662     0.559703581276    12.000000000000
         C            1.238359187229     1.118800385662     0.883201781276    12.000000000000
         C            2.651714287229    -0.392963214338    -0.285240418724    12.000000000000
         C            0.573853287229     0.682331785662    -0.414686418724    12.000000000000
         C            2.801993287229    -1.660688214338     0.522699581276    12.000000000000
         C           -1.127441712771    -1.116491214338    -0.308046418724    12.000000000000
         C           -1.744792712771     1.203219785662     0.082274581276    12.000000000000
         C           -2.417411712771    -1.505233214338    -0.104312418724    12.000000000000
         C           -3.362096712771    -0.473832214338     0.168740581276    12.000000000000
         H            3.334276287229     0.756112785662     1.451082581276     1.007825032230
         H            0.904602287229     0.443156785662     1.693718581276     1.007825032230
         H            0.985224287229     2.133394785662     1.158376581276     1.007825032230
         H            0.531652487229     1.518223585662    -1.118303718724     1.007825032230
         H            3.417387287229    -0.364955214338    -1.066396418724     1.007825032230
         H            1.970644287229    -1.733856214338     1.243452581276     1.007825032230
         H            3.745984287229    -1.610187214338     1.088518581276     1.007825032230
         H            3.103746287229     2.745651785662     0.178212581276     1.007825032230
         H           -0.310844712771    -1.789873214338    -0.543468418724     1.007825032230
         H            2.909925287229    -3.565744214338     0.119441581276     1.007825032230
         H           -2.703572712771    -2.549756214338    -0.153020418724     1.007825032230
         H           -5.028815712771    -1.638414214338    -0.056489418724     1.007825032230
         H           -5.299575712771    -0.014470214338     0.386330581276     1.007825032230

  Basis Set: AUG-CC-PVTZ
    Blend: AUG-CC-PVTZ
  Basis Set: (AUG-CC-PVTZ AUX)
    Blend: AUG-CC-PVTZ-JKFIT
	 Reference Energy          =    -811.4791564295805983 [Eh]
	 Singles Energy            =      -0.0000000000000000 [Eh]
	 Same-Spin Energy          =      -0.8296300601957727 [Eh]
	 Opposite-Spin Energy      =      -2.5251189004751544 [Eh]
	 Correlation Energy        =      -3.3547489606709271 [Eh]
	 Total Energy              =    -814.8339053902515161 [Eh]

	 ================> DF-SCS-MP2 Energies <==================
	-----------------------------------------------------------
	 SCS Same-Spin Scale       =       0.3333333333333333 [-]
	 SCS Opposite-Spin Scale   =       1.2000000000000000 [-]
	 SCS Same-Spin Energy      =      -0.2765433533985909 [Eh]
	 SCS Opposite-Spin Energy  =      -3.0301426805701852 [Eh]
	 SCS Correlation Energy    =      -3.3066860339687763 [Eh]
	 SCS Total Energy          =    -814.7858424635493293 [Eh]
	-----------------------------------------------------------

  Dipole Moment: [D]
     X:     1.0734      Y:    -4.6791      Z:     2.4877     Total:     5.4069

*** Psi4 exiting successfully. Buy a developer a beer!
