                               Psi4 1.3.2 release

  ==> Input File <==

--------------------------------------------------------------------------
#psi4
#
memory 32 gb

molecule  {
0 1
  O        1.3620710    -0.3800110    -0.9318440
  O        3.2020570     1.9012130    -0.2995130
  O        2.7994070    -2.7489470    -0.4002010
  O       -1.3621860     2.3740050     0.1547830
  N       -0.7982440     0.1994180    -0.2292560
  N       -3.0541720     0.8052390     0.2400120
  N       -4.6734100    -0.8124350     0.4126370
  C        2.7015950     0.8755540     0.5594740
  C        1.2368440     1.1072260     0.8878520
  C        2.6518190    -0.3922910    -0.2854700
  C        0.5739580     0.6830040    -0.4149160
  C        2.8020980    -1.6600160     0.5224700
  C       -1.1273370    -1.1158190    -0.3082760
  C       -1.7446880     1.2038920     0.0820450
  C       -2.4108930    -1.5271351    -0.1083923
  C       -3.3619920    -0.4731600     0.1685110
  H        3.3343810     0.7567850     1.4508530
  H        0.9047070     0.4438290     1.6934890
  H        0.9853290     2.1340670     1.1581470
  H        0.5274540     1.5132540    -1.1249130
  H        3.4174920    -0.3642830    -1.0666260
  H        1.9707490    -1.7331840     1.2432230
  H        3.7460890    -1.6095150     1.0882890
  H        3.1038510     2.7463240     0.1779830
  H       -0.3227942    -1.8037756    -0.5430610
  H        2.9100300    -3.5650720     0.1192120
  H       -2.7034680    -2.5490840    -0.1532500
  H       -5.0287110    -1.6377420    -0.0567190
  H       -5.2994710    -0.0137980     0.3861010
units angstrom
no_reorient  #important for SAPT in psi4, default
symmetry c1  #important for SAPT in psi4, default
}

set PROPERTIES_ORIGIN ["COM"]
properties('MP2/aug-cc-pvtz', properties = ['dipole'])
--------------------------------------------------------------------------

    Molecular point group: c1
  Charge       = 0
  Multiplicity = 1
  Basis Set: AUG-CC-PVTZ
    Blend: AUG-CC-PVTZ
  Basis Set: (AUG-CC-PVTZ AUX)
    Blend: AUG-CC-PVTZ-JKFIT

    Orbital Energies [Eh]
    ---------------------

    Doubly Occupied:

       1A    -20.577358     2A    -20.574102     3A    -20.572223
       4A    -20.503846     5A    -15.621376     6A    -15.589035
       7A    -15.541652     8A    -11.370532     9A    -11.347243
      10A    -11.330487    11A    -11.317207    12A    -11.300552
      13A    -11.296452    14A    -11.292640    15A    -11.237189
      16A    -11.236495    17A     -1.416100    18A     -1.382517
      19A     -1.373229    20A     -1.365425    21A     -1.291587
      22A     -1.261144    23A     -1.169421    24A     -1.078485
      25A     -1.068330    26A     -1.027374    27A     -0.925770
      28A     -0.895273    29A     -0.869163    30A     -0.831252
      31A     -0.805874    32A     -0.753410    33A     -0.739218
      34A     -0.720681    35A     -0.706212    36A     -0.692501
      37A     -0.689148    38A     -0.675915    39A     -0.658323
      40A     -0.639593    41A     -0.627221    42A     -0.617521
      43A     -0.603877    44A     -0.593664    45A     -0.587710
      46A     -0.574094    47A     -0.568300    48A     -0.544460
      49A     -0.532207    50A     -0.523623    51A     -0.510148
      52A     -0.485519    53A     -0.482049    54A     -0.468121
      55A     -0.460878    56A     -0.444818    57A     -0.437619
      58A     -0.416313    59A     -0.383695    60A     -0.335249

  @DF-RHF Final Energy:  -811.47920411415396

   => Energetics <=

    Nuclear Repulsion Energy =           1169.4648780767845437
    One-Electron Energy =               -3434.0053267565094757
    Two-Electron Energy =                1453.0612445655710872
    Total Energy =                       -811.4792041141540722
  Basis Set: (AUG-CC-PVTZ AUX)
    Blend: AUG-CC-PVTZ-RI
    Molecular point group: c1

    Geometry (in Angstrom), charge = 0, multiplicity = 1:

       Center              X                  Y                   Z               Mass
    ------------   -----------------  -----------------  -----------------  -----------------
         O            1.361785549666    -0.378753486808    -0.931643333893    15.994914619570
         O            3.201771549666     1.902470513192    -0.299312333893    15.994914619570
         O            2.799121549666    -2.747689486808    -0.400000333893    15.994914619570
         O           -1.362471450334     2.375262513192     0.154983666107    15.994914619570
         N           -0.798529450334     0.200675513192    -0.229055333893    14.003074004430
         N           -3.054457450334     0.806496513192     0.240212666107    14.003074004430
         N           -4.673695450334    -0.811177486808     0.412837666107    14.003074004430
         C            2.701309549666     0.876811513192     0.559674666107    12.000000000000
         C            1.236558549666     1.108483513192     0.888052666107    12.000000000000
         C            2.651533549666    -0.391033486808    -0.285269333893    12.000000000000
         C            0.573672549666     0.684261513192    -0.414715333893    12.000000000000
         C            2.801812549666    -1.658758486808     0.522670666107    12.000000000000
         C           -1.127622450334    -1.114561486808    -0.308075333893    12.000000000000
         C           -1.744973450334     1.205149513192     0.082245666107    12.000000000000
         C           -2.411178450334    -1.525877586808    -0.108191633893    12.000000000000
         C           -3.362277450334    -0.471902486808     0.168711666107    12.000000000000
         H            3.334095549666     0.758042513192     1.451053666107     1.007825032230
         H            0.904421549666     0.445086513192     1.693689666107     1.007825032230
         H            0.985043549666     2.135324513192     1.158347666107     1.007825032230
         H            0.527168549666     1.514511513192    -1.124712333893     1.007825032230
         H            3.417206549666    -0.363025486808    -1.066425333893     1.007825032230
         H            1.970463549666    -1.731926486808     1.243423666107     1.007825032230
         H            3.745803549666    -1.608257486808     1.088489666107     1.007825032230
         H            3.103565549666     2.747581513192     0.178183666107     1.007825032230
         H           -0.323079650334    -1.802518086808    -0.542860333893     1.007825032230
         H            2.909744549666    -3.563814486808     0.119412666107     1.007825032230
         H           -2.703753450334    -2.547826486808    -0.153049333893     1.007825032230
         H           -5.028996450334    -1.636484486808    -0.056518333893     1.007825032230
         H           -5.299756450334    -0.012540486808     0.386301666107     1.007825032230

  Basis Set: AUG-CC-PVTZ
    Blend: AUG-CC-PVTZ
  Basis Set: (AUG-CC-PVTZ AUX)
    Blend: AUG-CC-PVTZ-JKFIT
	 Reference Energy          =    -811.4792041141539585 [Eh]
	 Singles Energy            =      -0.0000000000000000 [Eh]
	 Same-Spin Energy          =      -0.8292818899846718 [Eh]
	 Opposite-Spin Energy      =      -2.5248686164031402 [Eh]
	 Correlation Energy        =      -3.3541505063878119 [Eh]
	 Total Energy              =    -814.8333546205417406 [Eh]

	 ================> DF-SCS-MP2 Energies <==================
	-----------------------------------------------------------
	 SCS Same-Spin Scale       =       0.3333333333333333 [-]
	 SCS Opposite-Spin Scale   =       1.2000000000000000 [-]
	 SCS Same-Spin Energy      =      -0.2764272966615572 [Eh]
	 SCS Opposite-Spin Energy  =      -3.0298423396837681 [Eh]
	 SCS Correlation Energy    =      -3.3062696363453252 [Eh]
	 SCS Total Energy          =    -814.7854737504992499 [Eh]
	-----------------------------------------------------------

  Dipole Moment: [D]
     X:     1.0007      Y:    -4.6623      Z:     2.5014     Total:     5.3848

*** Psi4 exiting successfully. Buy a developer a beer!
