                               Psi4 1.3.2 release

  ==> Input File <==

--------------------------------------------------------------------------
#psi4
#
memory 32 gb

molecule  {
0 1
  O        1.3620710    -0.3800110    -0.9318440
  O        3.2020570     1.9012130    -0.2995130
  O        2.7589409    -2.7670006    -0.3774313
  O       -1.3621860     2.3740050     0.1547830
  N       -0.7982440     0.1994180    -0.2292560
  N       -3.0541720     0.8052390     0.2400120
  N       -4.6734100    -0.8124350     0.4126370
  C        2.7015950     0.8755540     0.5594740
  C        1.2368440     1.1072260     0.8878520
  C        2.6518190    -0.3922910    -0.2854700
  C        0.5739580     0.6830040    -0.4149160
  C        2.8020980    -1.6600160     0.5224700
  C       -1.1273370    -1.1158190    -0.3082760
  C       -1.7446880     1.2038920     0.0820450
  C       -2.4173070    -1.5045610    -0.1045420
  C       -3.3619920    -0.4731600     0.1685110
  H        3.3343810     0.7567850     1.4508530
  H        0.9047070     0.4438290     1.6934890
  H        0.9853290     2.1340670     1.1581470
  H        0.5274540     1.5132540    -1.1249130
  H        3.4174920    -0.3642830    -1.0666260
  H        1.9596044    -1.7657689     1.2260327
  H        3.7460890    -1.6095150     1.0882890
  H        3.1038510     2.7463240     0.1779830
  H       -0.3107400    -1.7892010    -0.5436980
  H        2.9100300    -3.5650720     0.1192120
  H       -2.7034680    -2.5490840    -0.1532500
  H       -5.0287110    -1.6377420    -0.0567190
  H       -5.2994710    -0.0137980     0.3861010
units angstrom
no_reorient  #important for SAPT in psi4, default
symmetry c1  #important for SAPT in psi4, default
}

set PROPERTIES_ORIGIN ["COM"]
properties('MP2/aug-cc-pvtz', properties = ['dipole'])
--------------------------------------------------------------------------

    Molecular point group: c1
  Charge       = 0
  Multiplicity = 1
  Basis Set: AUG-CC-PVTZ
    Blend: AUG-CC-PVTZ
  Basis Set: (AUG-CC-PVTZ AUX)
    Blend: AUG-CC-PVTZ-JKFIT

    Orbital Energies [Eh]
    ---------------------

    Doubly Occupied:

       1A    -20.574720     2A    -20.573647     3A    -20.573032
       4A    -20.502924     5A    -15.621578     6A    -15.588188
       7A    -15.540622     8A    -11.369756     9A    -11.344846
      10A    -11.330762    11A    -11.317992    12A    -11.301442
      13A    -11.297168    14A    -11.294134    15A    -11.236803
      16A    -11.236761    17A     -1.416852    18A     -1.382671
      19A     -1.375850    20A     -1.366638    21A     -1.292071
      22A     -1.261286    23A     -1.168952    24A     -1.078994
      25A     -1.069210    26A     -1.028438    27A     -0.927607
      28A     -0.897484    29A     -0.869222    30A     -0.830825
      31A     -0.806442    32A     -0.754108    33A     -0.738664
      34A     -0.721704    35A     -0.707487    36A     -0.696473
      37A     -0.689471    38A     -0.675631    39A     -0.656300
      40A     -0.636804    41A     -0.627571    42A     -0.618946
      43A     -0.605523    44A     -0.596226    45A     -0.588221
      46A     -0.572834    47A     -0.569136    48A     -0.543175
      49A     -0.532444    50A     -0.523808    51A     -0.510912
      52A     -0.486419    53A     -0.482054    54A     -0.467839
      55A     -0.460841    56A     -0.444557    57A     -0.438077
      58A     -0.416212    59A     -0.383602    60A     -0.334748

  @DF-RHF Final Energy:  -811.48042379768344

   => Energetics <=

    Nuclear Repulsion Energy =           1170.1177375478646354
    One-Electron Energy =               -3435.2829178565557413
    Two-Electron Energy =                1453.6847565110076630
    Total Energy =                       -811.4804237976834429
  Basis Set: (AUG-CC-PVTZ AUX)
    Blend: AUG-CC-PVTZ-RI
    Molecular point group: c1

    Geometry (in Angstrom), charge = 0, multiplicity = 1:

       Center              X                  Y                   Z               Mass
    ------------   -----------------  -----------------  -----------------  -----------------
         O            1.364970635610    -0.378594837261    -0.933371437998    15.994914619570
         O            3.204956635610     1.902629162739    -0.301040437998    15.994914619570
         O            2.761840535610    -2.765584437261    -0.378958737998    15.994914619570
         O           -1.359286364390     2.375421162739     0.153255562002    15.994914619570
         N           -0.795344364390     0.200834162739    -0.230783437998    14.003074004430
         N           -3.051272364390     0.806655162739     0.238484562002    14.003074004430
         N           -4.670510364390    -0.811018837261     0.411109562002    14.003074004430
         C            2.704494635610     0.876970162739     0.557946562002    12.000000000000
         C            1.239743635610     1.108642162739     0.886324562002    12.000000000000
         C            2.654718635610    -0.390874837261    -0.286997437998    12.000000000000
         C            0.576857635610     0.684420162739    -0.416443437998    12.000000000000
         C            2.804997635610    -1.658599837261     0.520942562002    12.000000000000
         C           -1.124437364390    -1.114402837261    -0.309803437998    12.000000000000
         C           -1.741788364390     1.205308162739     0.080517562002    12.000000000000
         C           -2.414407364390    -1.503144837261    -0.106069437998    12.000000000000
         C           -3.359092364390    -0.471743837261     0.166983562002    12.000000000000
         H            3.337280635610     0.758201162739     1.449325562002     1.007825032230
         H            0.907606635610     0.445245162739     1.691961562002     1.007825032230
         H            0.988228635610     2.135483162739     1.156619562002     1.007825032230
         H            0.530353635610     1.514670162739    -1.126440437998     1.007825032230
         H            3.420391635610    -0.362866837261    -1.068153437998     1.007825032230
         H            1.962504035610    -1.764352737261     1.224505262002     1.007825032230
         H            3.748988635610    -1.608098837261     1.086761562002     1.007825032230
         H            3.106750635610     2.747740162739     0.176455562002     1.007825032230
         H           -0.307840364390    -1.787784837261    -0.545225437998     1.007825032230
         H            2.912929635610    -3.563655837261     0.117684562002     1.007825032230
         H           -2.700568364390    -2.547667837261    -0.154777437998     1.007825032230
         H           -5.025811364390    -1.636325837261    -0.058246437998     1.007825032230
         H           -5.296571364390    -0.012381837261     0.384573562002     1.007825032230

  Basis Set: AUG-CC-PVTZ
    Blend: AUG-CC-PVTZ
  Basis Set: (AUG-CC-PVTZ AUX)
    Blend: AUG-CC-PVTZ-JKFIT
	 Reference Energy          =    -811.4804237976834429 [Eh]
	 Singles Energy            =      -0.0000000000000000 [Eh]
	 Same-Spin Energy          =      -0.8292777354519821 [Eh]
	 Opposite-Spin Energy      =      -2.5242705599169186 [Eh]
	 Correlation Energy        =      -3.3535482953689009 [Eh]
	 Total Energy              =    -814.8339720930523526 [Eh]

	 ================> DF-SCS-MP2 Energies <==================
	-----------------------------------------------------------
	 SCS Same-Spin Scale       =       0.3333333333333333 [-]
	 SCS Opposite-Spin Scale   =       1.2000000000000000 [-]
	 SCS Same-Spin Energy      =      -0.2764259118173273 [Eh]
	 SCS Opposite-Spin Energy  =      -3.0291246719003024 [Eh]
	 SCS Correlation Energy    =      -3.3055505837176300 [Eh]
	 SCS Total Energy          =    -814.7859743814010471 [Eh]
	-----------------------------------------------------------

  Dipole Moment: [D]
     X:     1.1675      Y:    -4.6364      Z:     2.4624     Total:     5.3780

*** Psi4 exiting successfully. Buy a developer a beer!
