                               Psi4 1.3.2 release

  ==> Input File <==

--------------------------------------------------------------------------
#psi4
#
memory 32 gb

molecule  {
0 1
  O        1.3620710    -0.3800110    -0.9318440
  O        3.2020570     1.9012130    -0.2995130
  O        2.7994070    -2.7489470    -0.4002010
  O       -1.3621860     2.3740050     0.1547830
  N       -0.7982440     0.1994180    -0.2292560
  N       -3.0541720     0.8052390     0.2400120
  N       -4.6734100    -0.8124350     0.4126370
  C        2.7015950     0.8755540     0.5594740
  C        1.2368440     1.1072260     0.8878520
  C        2.6518190    -0.3922910    -0.2854700
  C        0.5482423     0.7543951    -0.4031484
  C        2.8020980    -1.6600160     0.5224700
  C       -1.1947992    -1.0978240    -0.2948452
  C       -1.7446880     1.2038920     0.0820450
  C       -2.4173070    -1.5045610    -0.1045420
  C       -3.3619920    -0.4731600     0.1685110
  H        3.3343810     0.7567850     1.4508530
  H        0.9047070     0.4438290     1.6934890
  H        0.9853290     2.1340670     1.1581470
  H        0.5274540     1.5132540    -1.1249130
  H        3.4174920    -0.3642830    -1.0666260
  H        1.9707490    -1.7331840     1.2432230
  H        3.7460890    -1.6095150     1.0882890
  H        3.1038510     2.7463240     0.1779830
  H       -0.3107400    -1.7892010    -0.5436980
  H        2.9100300    -3.5650720     0.1192120
  H       -2.7034680    -2.5490840    -0.1532500
  H       -5.0287110    -1.6377420    -0.0567190
  H       -5.2994710    -0.0137980     0.3861010
units angstrom
no_reorient  #important for SAPT in psi4, default
symmetry c1  #important for SAPT in psi4, default
}

set PROPERTIES_ORIGIN ["COM"]
properties('MP2/aug-cc-pvtz', properties = ['dipole'])
--------------------------------------------------------------------------

    Molecular point group: c1
  Charge       = 0
  Multiplicity = 1
  Basis Set: AUG-CC-PVTZ
    Blend: AUG-CC-PVTZ
  Basis Set: (AUG-CC-PVTZ AUX)
    Blend: AUG-CC-PVTZ-JKFIT

    Orbital Energies [Eh]
    ---------------------

    Doubly Occupied:

       1A    -20.574325     2A    -20.573769     3A    -20.563638
       4A    -20.504238     5A    -15.619642     6A    -15.591137
       7A    -15.541982     8A    -11.368642     9A    -11.347657
      10A    -11.333128    11A    -11.313177    12A    -11.299801
      13A    -11.292922    14A    -11.287039    15A    -11.237643
      16A    -11.233488    17A     -1.401343    18A     -1.382483
      19A     -1.370962    20A     -1.355811    21A     -1.295126
      22A     -1.260648    23A     -1.170895    24A     -1.089453
      25A     -1.068915    26A     -1.030068    27A     -0.928018
      28A     -0.889469    29A     -0.868990    30A     -0.834518
      31A     -0.802034    32A     -0.757359    33A     -0.738012
      34A     -0.718205    35A     -0.705028    36A     -0.693361
      37A     -0.685636    38A     -0.670621    39A     -0.651914
      40A     -0.640472    41A     -0.628792    42A     -0.616766
      43A     -0.598902    44A     -0.594210    45A     -0.579824
      46A     -0.576119    47A     -0.562481    48A     -0.539707
      49A     -0.532989    50A     -0.520998    51A     -0.513333
      52A     -0.485006    53A     -0.479589    54A     -0.465319
      55A     -0.460529    56A     -0.445288    57A     -0.438342
      58A     -0.415055    59A     -0.386738    60A     -0.344801

  @DF-RHF Final Energy:  -811.46544753866351

   => Energetics <=

    Nuclear Repulsion Energy =           1169.6579946585850394
    One-Electron Energy =               -3434.4941677867818726
    Two-Electron Energy =                1453.3707255895330945
    Total Energy =                       -811.4654475386635113
  Basis Set: (AUG-CC-PVTZ AUX)
    Blend: AUG-CC-PVTZ-RI
    Molecular point group: c1

    Geometry (in Angstrom), charge = 0, multiplicity = 1:

       Center              X                  Y                   Z               Mass
    ------------   -----------------  -----------------  -----------------  -----------------
         O            1.366994722766    -0.384734408129    -0.933175508304    15.994914619570
         O            3.206980722766     1.896489591871    -0.300844508304    15.994914619570
         O            2.804330722766    -2.753670408129    -0.401532508304    15.994914619570
         O           -1.357262277234     2.369281591871     0.153451491696    15.994914619570
         N           -0.793320277234     0.194694591871    -0.230587508304    14.003074004430
         N           -3.049248277234     0.800515591871     0.238680491696    14.003074004430
         N           -4.668486277234    -0.817158408129     0.411305491696    14.003074004430
         C            2.706518722766     0.870830591871     0.558142491696    12.000000000000
         C            1.241767722766     1.102502591871     0.886520491696    12.000000000000
         C            2.656742722766    -0.397014408129    -0.286801508304    12.000000000000
         C            0.553166022766     0.749671691871    -0.404479908304    12.000000000000
         C            2.807021722766    -1.664739408129     0.521138491696    12.000000000000
         C           -1.189875477234    -1.102547408129    -0.296176708304    12.000000000000
         C           -1.739764277234     1.199168591871     0.080713491696    12.000000000000
         C           -2.412383277234    -1.509284408129    -0.105873508304    12.000000000000
         C           -3.357068277234    -0.477883408129     0.167179491696    12.000000000000
         H            3.339304722766     0.752061591871     1.449521491696     1.007825032230
         H            0.909630722766     0.439105591871     1.692157491696     1.007825032230
         H            0.990252722766     2.129343591871     1.156815491696     1.007825032230
         H            0.532377722766     1.508530591871    -1.126244508304     1.007825032230
         H            3.422415722766    -0.369006408129    -1.067957508304     1.007825032230
         H            1.975672722766    -1.737907408129     1.241891491696     1.007825032230
         H            3.751012722766    -1.614238408129     1.086957491696     1.007825032230
         H            3.108774722766     2.741600591871     0.176651491696     1.007825032230
         H           -0.305816277234    -1.793924408129    -0.545029508304     1.007825032230
         H            2.914953722766    -3.569795408129     0.117880491696     1.007825032230
         H           -2.698544277234    -2.553807408129    -0.154581508304     1.007825032230
         H           -5.023787277234    -1.642465408129    -0.058050508304     1.007825032230
         H           -5.294547277234    -0.018521408129     0.384769491696     1.007825032230

  Basis Set: AUG-CC-PVTZ
    Blend: AUG-CC-PVTZ
  Basis Set: (AUG-CC-PVTZ AUX)
    Blend: AUG-CC-PVTZ-JKFIT
	 Reference Energy          =    -811.4654475386635113 [Eh]
	 Singles Energy            =      -0.0000000000000000 [Eh]
	 Same-Spin Energy          =      -0.8295327220701936 [Eh]
	 Opposite-Spin Energy      =      -2.5259074813838636 [Eh]
	 Correlation Energy        =      -3.3554402034540569 [Eh]
	 Total Energy              =    -814.8208877421175202 [Eh]

	 ================> DF-SCS-MP2 Energies <==================
	-----------------------------------------------------------
	 SCS Same-Spin Scale       =       0.3333333333333333 [-]
	 SCS Opposite-Spin Scale   =       1.2000000000000000 [-]
	 SCS Same-Spin Energy      =      -0.2765109073567312 [Eh]
	 SCS Opposite-Spin Energy  =      -3.0310889776606360 [Eh]
	 SCS Correlation Energy    =      -3.3075998850173671 [Eh]
	 SCS Total Energy          =    -814.7730474236808504 [Eh]
	-----------------------------------------------------------

  Dipole Moment: [D]
     X:     0.6962      Y:    -4.5243      Z:     2.5485     Total:     5.2391

*** Psi4 exiting successfully. Buy a developer a beer!
