                               Psi4 1.3.2 release

  ==> Input File <==

--------------------------------------------------------------------------
#psi4
#
memory 32 gb

molecule  {
0 1
  O        1.3620710    -0.3800110    -0.9318440
  O        3.2020570     1.9012130    -0.2995130
  O        2.7994070    -2.7489470    -0.4002010
  O       -1.3621860     2.3740050     0.1547830
  N       -0.8024273     0.2083084    -0.2374589
  N       -3.0541720     0.8052390     0.2400120
  N       -4.6734100    -0.8124350     0.4126370
  C        2.7015950     0.8755540     0.5594740
  C        1.2368440     1.1072260     0.8878520
  C        2.6518190    -0.3922910    -0.2854700
  C        0.5739580     0.6830040    -0.4149160
  C        2.8020980    -1.6600160     0.5224700
  C       -1.1273370    -1.1158190    -0.3082760
  C       -1.7446880     1.2038920     0.0820450
  C       -2.4173070    -1.5045610    -0.1045420
  C       -3.3619920    -0.4731600     0.1685110
  H        3.3343810     0.7567850     1.4508530
  H        0.9047070     0.4438290     1.6934890
  H        0.9853290     2.1340670     1.1581470
  H        0.5179956     1.5121505    -1.1255198
  H        3.4174920    -0.3642830    -1.0666260
  H        1.9707490    -1.7331840     1.2432230
  H        3.7460890    -1.6095150     1.0882890
  H        3.1038510     2.7463240     0.1779830
  H       -0.3107400    -1.7892010    -0.5436980
  H        2.9100300    -3.5650720     0.1192120
  H       -2.7034680    -2.5490840    -0.1532500
  H       -5.0287110    -1.6377420    -0.0567190
  H       -5.2994710    -0.0137980     0.3861010
units angstrom
no_reorient  #important for SAPT in psi4, default
symmetry c1  #important for SAPT in psi4, default
}

set PROPERTIES_ORIGIN ["COM"]
properties('MP2/aug-cc-pvtz', properties = ['dipole'])
--------------------------------------------------------------------------

    Molecular point group: c1
  Charge       = 0
  Multiplicity = 1
  Basis Set: AUG-CC-PVTZ
    Blend: AUG-CC-PVTZ
  Basis Set: (AUG-CC-PVTZ AUX)
    Blend: AUG-CC-PVTZ-JKFIT

    Orbital Energies [Eh]
    ---------------------

    Doubly Occupied:

       1A    -20.577817     2A    -20.574221     3A    -20.573095
       4A    -20.501791     5A    -15.621287     6A    -15.588590
       7A    -15.540823     8A    -11.368783     9A    -11.345248
      10A    -11.330437    11A    -11.318865    12A    -11.300839
      13A    -11.296924    14A    -11.293150    15A    -11.238000
      16A    -11.236827    17A     -1.416578    18A     -1.382461
      19A     -1.373569    20A     -1.365644    21A     -1.291683
      22A     -1.260674    23A     -1.169075    24A     -1.078889
      25A     -1.069054    26A     -1.028347    27A     -0.926687
      28A     -0.897928    29A     -0.869093    30A     -0.830550
      31A     -0.806451    32A     -0.754380    33A     -0.738070
      34A     -0.720846    35A     -0.706962    36A     -0.692727
      37A     -0.689016    38A     -0.675974    39A     -0.657160
      40A     -0.637296    41A     -0.627701    42A     -0.618350
      43A     -0.604720    44A     -0.595216    45A     -0.588501
      46A     -0.572103    47A     -0.568923    48A     -0.544791
      49A     -0.532715    50A     -0.523417    51A     -0.510339
      52A     -0.485792    53A     -0.480892    54A     -0.468513
      55A     -0.460923    56A     -0.444079    57A     -0.437778
      58A     -0.416384    59A     -0.383632    60A     -0.335575

  @DF-RHF Final Energy:  -811.47927034455597

   => Energetics <=

    Nuclear Repulsion Energy =           1169.9025796357889249
    One-Electron Energy =               -3434.8713996746641897
    Two-Electron Energy =                1453.4895496943195212
    Total Energy =                       -811.4792703445559710
  Basis Set: (AUG-CC-PVTZ AUX)
    Blend: AUG-CC-PVTZ-RI
    Molecular point group: c1

    Geometry (in Angstrom), charge = 0, multiplicity = 1:

       Center              X                  Y                   Z               Mass
    ------------   -----------------  -----------------  -----------------  -----------------
         O            1.362370914907    -0.380554347919    -0.931335457888    15.994914619570
         O            3.202356914907     1.900669652081    -0.299004457888    15.994914619570
         O            2.799706914907    -2.749490347919    -0.399692457888    15.994914619570
         O           -1.361886085093     2.373461652081     0.155291542112    15.994914619570
         N           -0.802127385093     0.207765052081    -0.236950357888    14.003074004430
         N           -3.053872085093     0.804695652081     0.240520542112    14.003074004430
         N           -4.673110085093    -0.812978347919     0.413145542112    14.003074004430
         C            2.701894914907     0.875010652081     0.559982542112    12.000000000000
         C            1.237143914907     1.106682652081     0.888360542112    12.000000000000
         C            2.652118914907    -0.392834347919    -0.284961457888    12.000000000000
         C            0.574257914907     0.682460652081    -0.414407457888    12.000000000000
         C            2.802397914907    -1.660559347919     0.522978542112    12.000000000000
         C           -1.127037085093    -1.116362347919    -0.307767457888    12.000000000000
         C           -1.744388085093     1.203348652081     0.082553542112    12.000000000000
         C           -2.417007085093    -1.505104347919    -0.104033457888    12.000000000000
         C           -3.361692085093    -0.473703347919     0.169019542112    12.000000000000
         H            3.334680914907     0.756241652081     1.451361542112     1.007825032230
         H            0.905006914907     0.443285652081     1.693997542112     1.007825032230
         H            0.985628914907     2.133523652081     1.158655542112     1.007825032230
         H            0.518295514907     1.511607152081    -1.125011257888     1.007825032230
         H            3.417791914907    -0.364826347919    -1.066117457888     1.007825032230
         H            1.971048914907    -1.733727347919     1.243731542112     1.007825032230
         H            3.746388914907    -1.610058347919     1.088797542112     1.007825032230
         H            3.104150914907     2.745780652081     0.178491542112     1.007825032230
         H           -0.310440085093    -1.789744347919    -0.543189457888     1.007825032230
         H            2.910329914907    -3.565615347919     0.119720542112     1.007825032230
         H           -2.703168085093    -2.549627347919    -0.152741457888     1.007825032230
         H           -5.028411085093    -1.638285347919    -0.056210457888     1.007825032230
         H           -5.299171085093    -0.014341347919     0.386609542112     1.007825032230

  Basis Set: AUG-CC-PVTZ
    Blend: AUG-CC-PVTZ
  Basis Set: (AUG-CC-PVTZ AUX)
    Blend: AUG-CC-PVTZ-JKFIT
	 Reference Energy          =    -811.4792703445559710 [Eh]
	 Singles Energy            =      -0.0000000000000000 [Eh]
	 Same-Spin Energy          =      -0.8296001717763011 [Eh]
	 Opposite-Spin Energy      =      -2.5251082586228462 [Eh]
	 Correlation Energy        =      -3.3547084303991470 [Eh]
	 Total Energy              =    -814.8339787749550851 [Eh]

	 ================> DF-SCS-MP2 Energies <==================
	-----------------------------------------------------------
	 SCS Same-Spin Scale       =       0.3333333333333333 [-]
	 SCS Opposite-Spin Scale   =       1.2000000000000000 [-]
	 SCS Same-Spin Energy      =      -0.2765333905921004 [Eh]
	 SCS Opposite-Spin Energy  =      -3.0301299103474153 [Eh]
	 SCS Correlation Energy    =      -3.3066633009395154 [Eh]
	 SCS Total Energy          =    -814.7859336454954473 [Eh]
	-----------------------------------------------------------

  Dipole Moment: [D]
     X:     1.0603      Y:    -4.7226      Z:     2.4919     Total:     5.4440

*** Psi4 exiting successfully. Buy a developer a beer!
