                               Psi4 1.3.2 release

  ==> Input File <==

--------------------------------------------------------------------------
#psi4
#
memory 32 gb

molecule  {
0 1
  O        1.3620710    -0.3800110    -0.9318440
  O        3.2020570     1.9012130    -0.2995130
  O        2.7994070    -2.7489470    -0.4002010
  O       -1.3621860     2.3740050     0.1547830
  N       -0.7982440     0.1994180    -0.2292560
  N       -3.0541720     0.8052390     0.2400120
  N       -4.6734100    -0.8124350     0.4126370
  C        2.7015950     0.8755540     0.5594740
  C        1.2368440     1.1072260     0.8878520
  C        2.6518190    -0.3922910    -0.2854700
  C        0.5739580     0.6830040    -0.4149160
  C        2.8020980    -1.6600160     0.5224700
  C       -1.1385660    -1.1131155    -0.3056192
  C       -1.7534771     1.1952649     0.0829159
  C       -2.4173070    -1.5045610    -0.1045420
  C       -3.3619920    -0.4731600     0.1685110
  H        3.3343810     0.7567850     1.4508530
  H        0.9047070     0.4438290     1.6934890
  H        0.9853290     2.1340670     1.1581470
  H        0.5274540     1.5132540    -1.1249130
  H        3.4174920    -0.3642830    -1.0666260
  H        1.9707490    -1.7331840     1.2432230
  H        3.7460890    -1.6095150     1.0882890
  H        3.1038510     2.7463240     0.1779830
  H       -0.3107400    -1.7892010    -0.5436980
  H        2.9100300    -3.5650720     0.1192120
  H       -2.7034680    -2.5490840    -0.1532500
  H       -5.0287110    -1.6377420    -0.0567190
  H       -5.2994710    -0.0137980     0.3861010
units angstrom
no_reorient  #important for SAPT in psi4, default
symmetry c1  #important for SAPT in psi4, default
}

set PROPERTIES_ORIGIN ["COM"]
properties('MP2/aug-cc-pvtz', properties = ['dipole'])
--------------------------------------------------------------------------

    Molecular point group: c1
  Charge       = 0
  Multiplicity = 1
  Basis Set: AUG-CC-PVTZ
    Blend: AUG-CC-PVTZ
  Basis Set: (AUG-CC-PVTZ AUX)
    Blend: AUG-CC-PVTZ-JKFIT

    Orbital Energies [Eh]
    ---------------------

    Doubly Occupied:

       1A    -20.577584     2A    -20.573986     3A    -20.572655
       4A    -20.499742     5A    -15.621699     6A    -15.589870
       7A    -15.541896     8A    -11.369158     9A    -11.346888
      10A    -11.330800    11A    -11.317758    12A    -11.300495
      13A    -11.296662    14A    -11.292824    15A    -11.236998
      16A    -11.236308    17A     -1.416090    18A     -1.378913
      19A     -1.373332    20A     -1.364443    21A     -1.290978
      22A     -1.261387    23A     -1.172346    24A     -1.079720
      25A     -1.070019    26A     -1.028537    27A     -0.927051
      28A     -0.896153    29A     -0.870141    30A     -0.831916
      31A     -0.806293    32A     -0.755864    33A     -0.738629
      34A     -0.720729    35A     -0.706702    36A     -0.692592
      37A     -0.689091    38A     -0.675481    39A     -0.656318
      40A     -0.637700    41A     -0.627652    42A     -0.616850
      43A     -0.603254    44A     -0.595299    45A     -0.587005
      46A     -0.573005    47A     -0.568616    48A     -0.544615
      49A     -0.532399    50A     -0.523386    51A     -0.509369
      52A     -0.485498    53A     -0.480751    54A     -0.468292
      55A     -0.460707    56A     -0.442894    57A     -0.437489
      58A     -0.416923    59A     -0.384594    60A     -0.336416

  @DF-RHF Final Energy:  -811.47886158395397

   => Energetics <=

    Nuclear Repulsion Energy =           1169.9934780429348393
    One-Electron Energy =               -3435.0631602863145417
    Two-Electron Energy =                1453.5908206594256171
    Total Energy =                       -811.4788615839540853
  Basis Set: (AUG-CC-PVTZ AUX)
    Blend: AUG-CC-PVTZ-RI
    Molecular point group: c1

    Geometry (in Angstrom), charge = 0, multiplicity = 1:

       Center              X                  Y                   Z               Mass
    ------------   -----------------  -----------------  -----------------  -----------------
         O            1.363128787420    -0.379698020140    -0.932030377712    15.994914619570
         O            3.203114787420     1.901525979860    -0.299699377712    15.994914619570
         O            2.800464787420    -2.748634020140    -0.400387377712    15.994914619570
         O           -1.361128212580     2.374317979860     0.154596622288    15.994914619570
         N           -0.797186212580     0.199730979860    -0.229442377712    14.003074004430
         N           -3.053114212580     0.805551979860     0.239825622288    14.003074004430
         N           -4.672352212580    -0.812122020140     0.412450622288    14.003074004430
         C            2.702652787420     0.875866979860     0.559287622288    12.000000000000
         C            1.237901787420     1.107538979860     0.887665622288    12.000000000000
         C            2.652876787420    -0.391978020140    -0.285656377712    12.000000000000
         C            0.575015787420     0.683316979860    -0.415102377712    12.000000000000
         C            2.803155787420    -1.659703020140     0.522283622288    12.000000000000
         C           -1.137508212580    -1.112802520140    -0.305805577712    12.000000000000
         C           -1.752419312580     1.195577879860     0.082729522288    12.000000000000
         C           -2.416249212580    -1.504248020140    -0.104728377712    12.000000000000
         C           -3.360934212580    -0.472847020140     0.168324622288    12.000000000000
         H            3.335438787420     0.757097979860     1.450666622288     1.007825032230
         H            0.905764787420     0.444141979860     1.693302622288     1.007825032230
         H            0.986386787420     2.134379979860     1.157960622288     1.007825032230
         H            0.528511787420     1.513566979860    -1.125099377712     1.007825032230
         H            3.418549787420    -0.363970020140    -1.066812377712     1.007825032230
         H            1.971806787420    -1.732871020140     1.243036622288     1.007825032230
         H            3.747146787420    -1.609202020140     1.088102622288     1.007825032230
         H            3.104908787420     2.746636979860     0.177796622288     1.007825032230
         H           -0.309682212580    -1.788888020140    -0.543884377712     1.007825032230
         H            2.911087787420    -3.564759020140     0.119025622288     1.007825032230
         H           -2.702410212580    -2.548771020140    -0.153436377712     1.007825032230
         H           -5.027653212580    -1.637429020140    -0.056905377712     1.007825032230
         H           -5.298413212580    -0.013485020140     0.385914622288     1.007825032230

  Basis Set: AUG-CC-PVTZ
    Blend: AUG-CC-PVTZ
  Basis Set: (AUG-CC-PVTZ AUX)
    Blend: AUG-CC-PVTZ-JKFIT
	 Reference Energy          =    -811.4788615839539716 [Eh]
	 Singles Energy            =      -0.0000000000000000 [Eh]
	 Same-Spin Energy          =      -0.8297380363099940 [Eh]
	 Opposite-Spin Energy      =      -2.5251613851671006 [Eh]
	 Correlation Energy        =      -3.3548994214770946 [Eh]
	 Total Energy              =    -814.8337610054310289 [Eh]

	 ================> DF-SCS-MP2 Energies <==================
	-----------------------------------------------------------
	 SCS Same-Spin Scale       =       0.3333333333333333 [-]
	 SCS Opposite-Spin Scale   =       1.2000000000000000 [-]
	 SCS Same-Spin Energy      =      -0.2765793454366646 [Eh]
	 SCS Opposite-Spin Energy  =      -3.0301936622005208 [Eh]
	 SCS Correlation Energy    =      -3.3067730076371853 [Eh]
	 SCS Total Energy          =    -814.7856345915911334 [Eh]
	-----------------------------------------------------------

  Dipole Moment: [D]
     X:     0.9874      Y:    -4.7828      Z:     2.4920     Total:     5.4827

*** Psi4 exiting successfully. Buy a developer a beer!
