                               Psi4 1.3.2 release

  ==> Input File <==

--------------------------------------------------------------------------
#psi4
#
memory 32 gb

molecule  {
0 1
  O        1.3620710    -0.3800110    -0.9318440
  O        3.2020570     1.9012130    -0.2995130
  O        2.7994070    -2.7489470    -0.4002010
  O       -1.3621860     2.3740050     0.1547830
  N       -0.7982440     0.1994180    -0.2292560
  N       -3.0541720     0.8052390     0.2400120
  N       -4.6734100    -0.8124350     0.4126370
  C        2.7015950     0.8755540     0.5594740
  C        1.2368440     1.1072260     0.8878520
  C        2.6518190    -0.3922910    -0.2854700
  C        0.5739580     0.6830040    -0.4149160
  C        2.8020980    -1.6600160     0.5224700
  C       -1.1273370    -1.1158190    -0.3082760
  C       -1.7446880     1.2038920     0.0820450
  C       -2.4173070    -1.5045610    -0.1045420
  C       -3.5525474    -0.5224583     0.2039837
  H        3.3343810     0.7567850     1.4508530
  H        0.9047070     0.4438290     1.6934890
  H        0.9853290     2.1340670     1.1581470
  H        0.5274540     1.5132540    -1.1249130
  H        3.4174920    -0.3642830    -1.0666260
  H        1.9707490    -1.7331840     1.2432230
  H        3.7460890    -1.6095150     1.0882890
  H        3.1038510     2.7463240     0.1779830
  H       -0.3107400    -1.7892010    -0.5436980
  H        2.9100300    -3.5650720     0.1192120
  H       -2.7034680    -2.5490840    -0.1532500
  H       -5.0287110    -1.6377420    -0.0567190
  H       -5.2994710    -0.0137980     0.3861010
units angstrom
no_reorient  #important for SAPT in psi4, default
symmetry c1  #important for SAPT in psi4, default
}

set PROPERTIES_ORIGIN ["COM"]
properties('MP2/aug-cc-pvtz', properties = ['dipole'])
--------------------------------------------------------------------------

    Molecular point group: c1
  Charge       = 0
  Multiplicity = 1
  Basis Set: AUG-CC-PVTZ
    Blend: AUG-CC-PVTZ
  Basis Set: (AUG-CC-PVTZ AUX)
    Blend: AUG-CC-PVTZ-JKFIT

    Orbital Energies [Eh]
    ---------------------

    Doubly Occupied:

       1A    -20.573326     2A    -20.568721     3A    -20.565146
       4A    -20.488669     5A    -15.627201     6A    -15.604222
       7A    -15.523390     8A    -11.357832     9A    -11.354543
      10A    -11.320581    11A    -11.308002    12A    -11.294535
      13A    -11.291813    14A    -11.287005    15A    -11.238762
      16A    -11.228719    17A     -1.408160    18A     -1.375917
      19A     -1.368700    20A     -1.364983    21A     -1.355064
      22A     -1.261029    23A     -1.146960    24A     -1.069199
      25A     -1.053217    26A     -1.015609    27A     -0.920619
      28A     -0.888746    29A     -0.871548    30A     -0.832487
      31A     -0.805653    32A     -0.779607    33A     -0.752103
      34A     -0.727059    35A     -0.714244    36A     -0.688743
      37A     -0.685771    38A     -0.674063    39A     -0.648387
      40A     -0.631307    41A     -0.625224    42A     -0.606871
      43A     -0.599568    44A     -0.595610    45A     -0.581846
      46A     -0.570731    47A     -0.562438    48A     -0.550057
      49A     -0.536268    50A     -0.514902    51A     -0.506557
      52A     -0.479182    53A     -0.471555    54A     -0.463375
      55A     -0.454409    56A     -0.435175    57A     -0.417065
      58A     -0.385859    59A     -0.361624    60A     -0.323719

  @DF-RHF Final Energy:  -811.41192383143016

   => Energetics <=

    Nuclear Repulsion Energy =           1167.6130644073080020
    One-Electron Energy =               -3430.6226167120012178
    Two-Electron Energy =                1451.5976284732628301
    Total Energy =                       -811.4119238314301583
  Basis Set: (AUG-CC-PVTZ AUX)
    Blend: AUG-CC-PVTZ-RI
    Molecular point group: c1

    Geometry (in Angstrom), charge = 0, multiplicity = 1:

       Center              X                  Y                   Z               Mass
    ------------   -----------------  -----------------  -----------------  -----------------
         O            1.372140378154    -0.377405999306    -0.933718426403    15.994914619570
         O            3.212126378154     1.903818000694    -0.301387426403    15.994914619570
         O            2.809476378154    -2.746341999306    -0.402075426403    15.994914619570
         O           -1.352116621846     2.376610000694     0.152908573597    15.994914619570
         N           -0.788174621846     0.202023000694    -0.231130426403    14.003074004430
         N           -3.044102621846     0.807844000694     0.238137573597    14.003074004430
         N           -4.663340621846    -0.809829999306     0.410762573597    14.003074004430
         C            2.711664378154     0.878159000694     0.557599573597    12.000000000000
         C            1.246913378154     1.109831000694     0.885977573597    12.000000000000
         C            2.661888378154    -0.389685999306    -0.287344426403    12.000000000000
         C            0.584027378154     0.685609000694    -0.416790426403    12.000000000000
         C            2.812167378154    -1.657410999306     0.520595573597    12.000000000000
         C           -1.117267621846    -1.113213999306    -0.310150426403    12.000000000000
         C           -1.734618621846     1.206497000694     0.080170573597    12.000000000000
         C           -2.407237621846    -1.501955999306    -0.106416426403    12.000000000000
         C           -3.542478021846    -0.519853299306     0.202109273597    12.000000000000
         H            3.344450378154     0.759390000694     1.448978573597     1.007825032230
         H            0.914776378154     0.446434000694     1.691614573597     1.007825032230
         H            0.995398378154     2.136672000694     1.156272573597     1.007825032230
         H            0.537523378154     1.515859000694    -1.126787426403     1.007825032230
         H            3.427561378154    -0.361677999306    -1.068500426403     1.007825032230
         H            1.980818378154    -1.730578999306     1.241348573597     1.007825032230
         H            3.756158378154    -1.606909999306     1.086414573597     1.007825032230
         H            3.113920378154     2.748929000694     0.176108573597     1.007825032230
         H           -0.300670621846    -1.786595999306    -0.545572426403     1.007825032230
         H            2.920099378154    -3.562466999306     0.117337573597     1.007825032230
         H           -2.693398621846    -2.546478999306    -0.155124426403     1.007825032230
         H           -5.018641621846    -1.635136999306    -0.058593426403     1.007825032230
         H           -5.289401621846    -0.011192999306     0.384226573597     1.007825032230

  Basis Set: AUG-CC-PVTZ
    Blend: AUG-CC-PVTZ
  Basis Set: (AUG-CC-PVTZ AUX)
    Blend: AUG-CC-PVTZ-JKFIT
	 Reference Energy          =    -811.4119238314301583 [Eh]
	 Singles Energy            =      -0.0000000000000000 [Eh]
	 Same-Spin Energy          =      -0.8303830002167646 [Eh]
	 Opposite-Spin Energy      =      -2.5262077833681085 [Eh]
	 Correlation Energy        =      -3.3565907835848732 [Eh]
	 Total Energy              =    -814.7685146150150786 [Eh]

	 ================> DF-SCS-MP2 Energies <==================
	-----------------------------------------------------------
	 SCS Same-Spin Scale       =       0.3333333333333333 [-]
	 SCS Opposite-Spin Scale   =       1.2000000000000000 [-]
	 SCS Same-Spin Energy      =      -0.2767943334055882 [Eh]
	 SCS Opposite-Spin Energy  =      -3.0314493400417302 [Eh]
	 SCS Correlation Energy    =      -3.3082436734473184 [Eh]
	 SCS Total Energy          =    -814.7201675048775087 [Eh]
	-----------------------------------------------------------

  Dipole Moment: [D]
     X:    -0.9967      Y:    -5.3702      Z:     2.7713     Total:     6.1247

*** Psi4 exiting successfully. Buy a developer a beer!
