                               Psi4 1.3.2 release

  ==> Input File <==

--------------------------------------------------------------------------
#psi4
#
memory 32 gb

molecule  {
0 1
  O        1.3620710    -0.3800110    -0.9318440
  O        3.2020570     1.9012130    -0.2995130
  O        2.7994070    -2.7489470    -0.4002010
  O       -1.3621860     2.3740050     0.1547830
  N       -0.7982440     0.1994180    -0.2292560
  N       -3.0541720     0.8052390     0.2400120
  N       -4.6734100    -0.8124350     0.4126370
  C        2.6917443     0.9179927     0.4926055
  C        1.2368440     1.1072260     0.8878520
  C        2.6518190    -0.3922910    -0.2854700
  C        0.5739580     0.6830040    -0.4149160
  C        2.7956630    -1.7011654     0.4552284
  C       -1.1273370    -1.1158190    -0.3082760
  C       -1.7446880     1.2038920     0.0820450
  C       -2.4173070    -1.5045610    -0.1045420
  C       -3.3619920    -0.4731600     0.1685110
  H        3.3343810     0.7567850     1.4508530
  H        0.9047070     0.4438290     1.6934890
  H        0.9853290     2.1340670     1.1581470
  H        0.5274540     1.5132540    -1.1249130
  H        3.4174920    -0.3642830    -1.0666260
  H        1.9707490    -1.7331840     1.2432230
  H        3.7460890    -1.6095150     1.0882890
  H        3.1038510     2.7463240     0.1779830
  H       -0.3107400    -1.7892010    -0.5436980
  H        2.9100300    -3.5650720     0.1192120
  H       -2.7034680    -2.5490840    -0.1532500
  H       -5.0287110    -1.6377420    -0.0567190
  H       -5.2994710    -0.0137980     0.3861010
units angstrom
no_reorient  #important for SAPT in psi4, default
symmetry c1  #important for SAPT in psi4, default
}

set PROPERTIES_ORIGIN ["COM"]
properties('MP2/aug-cc-pvtz', properties = ['dipole'])
--------------------------------------------------------------------------

    Molecular point group: c1
  Charge       = 0
  Multiplicity = 1
  Basis Set: AUG-CC-PVTZ
    Blend: AUG-CC-PVTZ
  Basis Set: (AUG-CC-PVTZ AUX)
    Blend: AUG-CC-PVTZ-JKFIT

    Orbital Energies [Eh]
    ---------------------

    Doubly Occupied:

       1A    -20.584926     2A    -20.581501     3A    -20.569639
       4A    -20.502216     5A    -15.620657     6A    -15.587755
       7A    -15.540077     8A    -11.369036     9A    -11.344297
      10A    -11.328878    11A    -11.317517    12A    -11.303660
      13A    -11.300620    14A    -11.290120    15A    -11.236220
      16A    -11.234144    17A     -1.423356    18A     -1.405193
      19A     -1.394315    20A     -1.374850    21A     -1.291460
      22A     -1.260583    23A     -1.168389    24A     -1.076928
      25A     -1.063951    26A     -1.026376    27A     -0.924043
      28A     -0.896364    29A     -0.869405    30A     -0.831056
      31A     -0.798848    32A     -0.753691    33A     -0.738771
      34A     -0.735897    35A     -0.710092    36A     -0.698820
      37A     -0.696447    38A     -0.675854    39A     -0.657672
      40A     -0.640721    41A     -0.629497    42A     -0.621568
      43A     -0.614639    44A     -0.599290    45A     -0.591152
      46A     -0.574249    47A     -0.571672    48A     -0.546013
      49A     -0.534931    50A     -0.522554    51A     -0.510527
      52A     -0.480859    53A     -0.478743    54A     -0.455998
      55A     -0.449981    56A     -0.441108    57A     -0.432153
      58A     -0.415164    59A     -0.382451    60A     -0.333885

  @DF-RHF Final Energy:  -811.46771906983724

   => Energetics <=

    Nuclear Repulsion Energy =           1171.4319826026448936
    One-Electron Energy =               -3437.7778417276731489
    Two-Electron Energy =                1454.8781400551911247
    Total Energy =                       -811.4677190698371305
  Basis Set: (AUG-CC-PVTZ AUX)
    Blend: AUG-CC-PVTZ-RI
    Molecular point group: c1

    Geometry (in Angstrom), charge = 0, multiplicity = 1:

       Center              X                  Y                   Z               Mass
    ------------   -----------------  -----------------  -----------------  -----------------
         O            1.362931558654    -0.380079166686    -0.924757273687    15.994914619570
         O            3.202917558654     1.901144833314    -0.292426273687    15.994914619570
         O            2.800267558654    -2.749015166686    -0.393114273687    15.994914619570
         O           -1.361325441346     2.373936833314     0.161869726313    15.994914619570
         N           -0.797383441346     0.199349833314    -0.222169273687    14.003074004430
         N           -3.053311441346     0.805170833314     0.247098726313    14.003074004430
         N           -4.672549441346    -0.812503166686     0.419723726313    14.003074004430
         C            2.692604858654     0.917924533314     0.499692226313    12.000000000000
         C            1.237704558654     1.107157833314     0.894938726313    12.000000000000
         C            2.652679558654    -0.392359166686    -0.278383273687    12.000000000000
         C            0.574818558654     0.682935833314    -0.407829273687    12.000000000000
         C            2.796523558654    -1.701233566686     0.462315126313    12.000000000000
         C           -1.126476441346    -1.115887166686    -0.301189273687    12.000000000000
         C           -1.743827441346     1.203823833314     0.089131726313    12.000000000000
         C           -2.416446441346    -1.504629166686    -0.097455273687    12.000000000000
         C           -3.361131441346    -0.473228166686     0.175597726313    12.000000000000
         H            3.335241558654     0.756716833314     1.457939726313     1.007825032230
         H            0.905567558654     0.443760833314     1.700575726313     1.007825032230
         H            0.986189558654     2.133998833314     1.165233726313     1.007825032230
         H            0.528314558654     1.513185833314    -1.117826273687     1.007825032230
         H            3.418352558654    -0.364351166686    -1.059539273687     1.007825032230
         H            1.971609558654    -1.733252166686     1.250309726313     1.007825032230
         H            3.746949558654    -1.609583166686     1.095375726313     1.007825032230
         H            3.104711558654     2.746255833314     0.185069726313     1.007825032230
         H           -0.309879441346    -1.789269166686    -0.536611273687     1.007825032230
         H            2.910890558654    -3.565140166686     0.126298726313     1.007825032230
         H           -2.702607441346    -2.549152166686    -0.146163273687     1.007825032230
         H           -5.027850441346    -1.637810166686    -0.049632273687     1.007825032230
         H           -5.298610441346    -0.013866166686     0.393187726313     1.007825032230

  Basis Set: AUG-CC-PVTZ
    Blend: AUG-CC-PVTZ
  Basis Set: (AUG-CC-PVTZ AUX)
    Blend: AUG-CC-PVTZ-JKFIT
	 Reference Energy          =    -811.4677190698372442 [Eh]
	 Singles Energy            =      -0.0000000000000000 [Eh]
	 Same-Spin Energy          =      -0.8299419480519380 [Eh]
	 Opposite-Spin Energy      =      -2.5235945958123622 [Eh]
	 Correlation Energy        =      -3.3535365438643003 [Eh]
	 Total Energy              =    -814.8212556137015099 [Eh]

	 ================> DF-SCS-MP2 Energies <==================
	-----------------------------------------------------------
	 SCS Same-Spin Scale       =       0.3333333333333333 [-]
	 SCS Opposite-Spin Scale   =       1.2000000000000000 [-]
	 SCS Same-Spin Energy      =      -0.2766473160173126 [Eh]
	 SCS Opposite-Spin Energy  =      -3.0283135149748346 [Eh]
	 SCS Correlation Energy    =      -3.3049608309921474 [Eh]
	 SCS Total Energy          =    -814.7726799008294165 [Eh]
	-----------------------------------------------------------

  Dipole Moment: [D]
     X:     1.1677      Y:    -4.7175      Z:     2.1410     Total:     5.3106

*** Psi4 exiting successfully. Buy a developer a beer!
