                               Psi4 1.3.2 release

  ==> Input File <==

--------------------------------------------------------------------------
#psi4
#
memory 32 gb

molecule  {
0 1
  O        1.3620710    -0.3800110    -0.9318440
  O        3.2020570     1.9012130    -0.2995130
  O        2.7994070    -2.7489470    -0.4002010
  O       -1.3621860     2.3740050     0.1547830
  N       -0.7982440     0.1994180    -0.2292560
  N       -3.0541720     0.8052390     0.2400120
  N       -4.6734100    -0.8124350     0.4126370
  C        2.7015950     0.8755540     0.5594740
  C        1.2368440     1.1072260     0.8878520
  C        2.6518190    -0.3922910    -0.2854700
  C        0.5739580     0.6830040    -0.4149160
  C        2.8020980    -1.6600160     0.5224700
  C       -1.1273370    -1.1158190    -0.3082760
  C       -1.7446880     1.2038920     0.0820450
  C       -2.4173070    -1.5045610    -0.1045420
  C       -3.3572755    -0.5303791     0.1249624
  H        3.3343810     0.7567850     1.4508530
  H        0.9047070     0.4438290     1.6934890
  H        0.9853290     2.1340670     1.1581470
  H        0.5274540     1.5132540    -1.1249130
  H        3.4174920    -0.3642830    -1.0666260
  H        1.9707490    -1.7331840     1.2432230
  H        3.7460890    -1.6095150     1.0882890
  H        3.1038510     2.7463240     0.1779830
  H       -0.3107400    -1.7892010    -0.5436980
  H        2.9100300    -3.5650720     0.1192120
  H       -2.7034680    -2.5490840    -0.1532500
  H       -4.9809748    -1.6438628    -0.0790919
  H       -5.2994710    -0.0137980     0.3861010
units angstrom
no_reorient  #important for SAPT in psi4, default
symmetry c1  #important for SAPT in psi4, default
}

set PROPERTIES_ORIGIN ["COM"]
properties('MP2/aug-cc-pvtz', properties = ['dipole'])
--------------------------------------------------------------------------

    Molecular point group: c1
  Charge       = 0
  Multiplicity = 1
  Basis Set: AUG-CC-PVTZ
    Blend: AUG-CC-PVTZ
  Basis Set: (AUG-CC-PVTZ AUX)
    Blend: AUG-CC-PVTZ-JKFIT

    Orbital Energies [Eh]
    ---------------------

    Doubly Occupied:

       1A    -20.578836     2A    -20.574840     3A    -20.574198
       4A    -20.497148     5A    -15.625986     6A    -15.590174
       7A    -15.538465     8A    -11.363869     9A    -11.344290
      10A    -11.331936    11A    -11.326416    12A    -11.301551
      13A    -11.297899    14A    -11.294034    15A    -11.237527
      16A    -11.236115    17A     -1.417678    18A     -1.379576
      19A     -1.374447    20A     -1.365485    21A     -1.288919
      22A     -1.260500    23A     -1.156723    24A     -1.082845
      25A     -1.072622    26A     -1.031801    27A     -0.930640
      28A     -0.902709    29A     -0.862847    30A     -0.829126
      31A     -0.807865    32A     -0.756136    33A     -0.740942
      34A     -0.721828    35A     -0.707102    36A     -0.694449
      37A     -0.688920    38A     -0.671896    39A     -0.657464
      40A     -0.635664    41A     -0.627355    42A     -0.623662
      43A     -0.604372    44A     -0.598186    45A     -0.585667
      46A     -0.571372    47A     -0.569118    48A     -0.545275
      49A     -0.532000    50A     -0.524597    51A     -0.511069
      52A     -0.486677    53A     -0.481476    54A     -0.469504
      55A     -0.461768    56A     -0.442668    57A     -0.436505
      58A     -0.413241    59A     -0.377892    60A     -0.336441

  @DF-RHF Final Energy:  -811.47005321618963

   => Energetics <=

    Nuclear Repulsion Energy =           1169.7691142070862043
    One-Electron Energy =               -3434.5777130763885907
    Two-Electron Energy =                1453.3385456531127602
    Total Energy =                       -811.4700532161896263
  Basis Set: (AUG-CC-PVTZ AUX)
    Blend: AUG-CC-PVTZ-RI
    Molecular point group: c1

    Geometry (in Angstrom), charge = 0, multiplicity = 1:

       Center              X                  Y                   Z               Mass
    ------------   -----------------  -----------------  -----------------  -----------------
         O            1.361609900560    -0.376960281637    -0.929443465029    15.994914619570
         O            3.201595900560     1.904263718363    -0.297112465029    15.994914619570
         O            2.798945900560    -2.745896281637    -0.397800465029    15.994914619570
         O           -1.362647099440     2.377055718363     0.157183534971    15.994914619570
         N           -0.798705099440     0.202468718363    -0.226855465029    14.003074004430
         N           -3.054633099440     0.808289718363     0.242412534971    14.003074004430
         N           -4.673871099440    -0.809384281637     0.415037534971    14.003074004430
         C            2.701133900560     0.878604718363     0.561874534971    12.000000000000
         C            1.236382900560     1.110276718363     0.890252534971    12.000000000000
         C            2.651357900560    -0.389240281637    -0.283069465029    12.000000000000
         C            0.573496900560     0.686054718363    -0.412515465029    12.000000000000
         C            2.801636900560    -1.656965281637     0.524870534971    12.000000000000
         C           -1.127798099440    -1.112768281637    -0.305875465029    12.000000000000
         C           -1.745149099440     1.206942718363     0.084445534971    12.000000000000
         C           -2.417768099440    -1.501510281637    -0.102141465029    12.000000000000
         C           -3.357736599440    -0.527328381637     0.127362934971    12.000000000000
         H            3.333919900560     0.759835718363     1.453253534971     1.007825032230
         H            0.904245900560     0.446879718363     1.695889534971     1.007825032230
         H            0.984867900560     2.137117718363     1.160547534971     1.007825032230
         H            0.526992900560     1.516304718363    -1.122512465029     1.007825032230
         H            3.417030900560    -0.361232281637    -1.064225465029     1.007825032230
         H            1.970287900560    -1.730133281637     1.245623534971     1.007825032230
         H            3.745627900560    -1.606464281637     1.090689534971     1.007825032230
         H            3.103389900560     2.749374718363     0.180383534971     1.007825032230
         H           -0.311201099440    -1.786150281637    -0.541297465029     1.007825032230
         H            2.909568900560    -3.562021281637     0.121612534971     1.007825032230
         H           -2.703929099440    -2.546033281637    -0.150849465029     1.007825032230
         H           -4.981435899440    -1.640812081637    -0.076691365029     1.007825032230
         H           -5.299932099440    -0.010747281637     0.388501534971     1.007825032230

  Basis Set: AUG-CC-PVTZ
    Blend: AUG-CC-PVTZ
  Basis Set: (AUG-CC-PVTZ AUX)
    Blend: AUG-CC-PVTZ-JKFIT
	 Reference Energy          =    -811.4700532161896263 [Eh]
	 Singles Energy            =      -0.0000000000000000 [Eh]
	 Same-Spin Energy          =      -0.8310070701663816 [Eh]
	 Opposite-Spin Energy      =      -2.5269802996955706 [Eh]
	 Correlation Energy        =      -3.3579873698619522 [Eh]
	 Total Energy              =    -814.8280405860515430 [Eh]

	 ================> DF-SCS-MP2 Energies <==================
	-----------------------------------------------------------
	 SCS Same-Spin Scale       =       0.3333333333333333 [-]
	 SCS Opposite-Spin Scale   =       1.2000000000000000 [-]
	 SCS Same-Spin Energy      =      -0.2770023567221272 [Eh]
	 SCS Opposite-Spin Energy  =      -3.0323763596346844 [Eh]
	 SCS Correlation Energy    =      -3.3093787163568118 [Eh]
	 SCS Total Energy          =    -814.7794319325464585 [Eh]
	-----------------------------------------------------------

  Dipole Moment: [D]
     X:     1.2504      Y:    -4.8965      Z:     2.4149     Total:     5.6010

*** Psi4 exiting successfully. Buy a developer a beer!
