                               Psi4 1.3.2 release

  ==> Input File <==

--------------------------------------------------------------------------
#psi4
#
memory 32 gb

molecule  {
0 1
  O        1.3620710    -0.3800110    -0.9318440
  O        3.2020570     1.9012130    -0.2995130
  O        2.7994070    -2.7489470    -0.4002010
  O       -1.3621860     2.3740050     0.1547830
  N       -0.7982440     0.1994180    -0.2292560
  N       -3.0541720     0.8052390     0.2400120
  N       -4.6734100    -0.8124350     0.4126370
  C        2.7015950     0.8755540     0.5594740
  C        1.2368440     1.1072260     0.8878520
  C        2.6518190    -0.3922910    -0.2854700
  C        0.5739580     0.6830040    -0.4149160
  C        2.8020980    -1.6600160     0.5224700
  C       -1.1305431    -1.1044901    -0.3066126
  C       -1.7446880     1.2038920     0.0820450
  C       -2.4173070    -1.5045610    -0.1045420
  C       -3.3529258    -0.4646948     0.1676186
  H        3.3343810     0.7567850     1.4508530
  H        0.9047070     0.4438290     1.6934890
  H        0.9853290     2.1340670     1.1581470
  H        0.5274540     1.5132540    -1.1249130
  H        3.4174920    -0.3642830    -1.0666260
  H        1.9707490    -1.7331840     1.2432230
  H        3.7460890    -1.6095150     1.0882890
  H        3.1038510     2.7463240     0.1779830
  H       -0.3107400    -1.7892010    -0.5436980
  H        2.9100300    -3.5650720     0.1192120
  H       -2.7034680    -2.5490840    -0.1532500
  H       -5.0287110    -1.6377420    -0.0567190
  H       -5.2994710    -0.0137980     0.3861010
units angstrom
no_reorient  #important for SAPT in psi4, default
symmetry c1  #important for SAPT in psi4, default
}

set PROPERTIES_ORIGIN ["COM"]
properties('MP2/aug-cc-pvtz', properties = ['dipole'])
--------------------------------------------------------------------------

    Molecular point group: c1
  Charge       = 0
  Multiplicity = 1
  Basis Set: AUG-CC-PVTZ
    Blend: AUG-CC-PVTZ
  Basis Set: (AUG-CC-PVTZ AUX)
    Blend: AUG-CC-PVTZ-JKFIT

    Orbital Energies [Eh]
    ---------------------

    Doubly Occupied:

       1A    -20.577942     2A    -20.574869     3A    -20.573498
       4A    -20.504588     5A    -15.623047     6A    -15.585676
       7A    -15.541445     8A    -11.371228     9A    -11.343658
      10A    -11.331912    11A    -11.317702    12A    -11.301443
      13A    -11.297155    14A    -11.293548    15A    -11.237634
      16A    -11.236010    17A     -1.417641    18A     -1.384221
      19A     -1.373899    20A     -1.366318    21A     -1.293669
      22A     -1.261867    23A     -1.169613    24A     -1.079612
      25A     -1.069304    26A     -1.028490    27A     -0.927411
      28A     -0.897627    29A     -0.870076    30A     -0.831585
      31A     -0.806672    32A     -0.754030    33A     -0.739939
      34A     -0.721405    35A     -0.704374    36A     -0.692837
      37A     -0.689162    38A     -0.675054    39A     -0.656697
      40A     -0.638145    41A     -0.629069    42A     -0.618375
      43A     -0.604696    44A     -0.593681    45A     -0.588844
      46A     -0.573735    47A     -0.569227    48A     -0.545141
      49A     -0.531847    50A     -0.524607    51A     -0.510373
      52A     -0.486506    53A     -0.483617    54A     -0.468839
      55A     -0.461770    56A     -0.445977    57A     -0.438540
      58A     -0.417393    59A     -0.385268    60A     -0.334760

  @DF-RHF Final Energy:  -811.47947969981453

   => Energetics <=

    Nuclear Repulsion Energy =           1170.3518564548164704
    One-Electron Energy =               -3435.7161323668992736
    Two-Electron Energy =                1453.8847962122683839
    Total Energy =                       -811.4794796998146467
  Basis Set: (AUG-CC-PVTZ AUX)
    Blend: AUG-CC-PVTZ-RI
    Molecular point group: c1

    Geometry (in Angstrom), charge = 0, multiplicity = 1:

       Center              X                  Y                   Z               Mass
    ------------   -----------------  -----------------  -----------------  -----------------
         O            1.361761322664    -0.381057003700    -0.931884707222    15.994914619570
         O            3.201747322664     1.900166996300    -0.299553707222    15.994914619570
         O            2.799097322664    -2.749993003700    -0.400241707222    15.994914619570
         O           -1.362495677336     2.372958996300     0.154742292778    15.994914619570
         N           -0.798553677336     0.198371996300    -0.229296707222    14.003074004430
         N           -3.054481677336     0.804192996300     0.239971292778    14.003074004430
         N           -4.673719677336    -0.813481003700     0.412596292778    14.003074004430
         C            2.701285322664     0.874507996300     0.559433292778    12.000000000000
         C            1.236534322664     1.106179996300     0.887811292778    12.000000000000
         C            2.651509322664    -0.393337003700    -0.285510707222    12.000000000000
         C            0.573648322664     0.681957996300    -0.414956707222    12.000000000000
         C            2.801788322664    -1.661062003700     0.522429292778    12.000000000000
         C           -1.130852777336    -1.105536103700    -0.306653307222    12.000000000000
         C           -1.744997677336     1.202845996300     0.082004292778    12.000000000000
         C           -2.417616677336    -1.505607003700    -0.104582707222    12.000000000000
         C           -3.353235477336    -0.465740803700     0.167577892778    12.000000000000
         H            3.334071322664     0.755738996300     1.450812292778     1.007825032230
         H            0.904397322664     0.442782996300     1.693448292778     1.007825032230
         H            0.985019322664     2.133020996300     1.158106292778     1.007825032230
         H            0.527144322664     1.512207996300    -1.124953707222     1.007825032230
         H            3.417182322664    -0.365329003700    -1.066666707222     1.007825032230
         H            1.970439322664    -1.734230003700     1.243182292778     1.007825032230
         H            3.745779322664    -1.610561003700     1.088248292778     1.007825032230
         H            3.103541322664     2.745277996300     0.177942292778     1.007825032230
         H           -0.311049677336    -1.790247003700    -0.543738707222     1.007825032230
         H            2.909720322664    -3.566118003700     0.119171292778     1.007825032230
         H           -2.703777677336    -2.550130003700    -0.153290707222     1.007825032230
         H           -5.029020677336    -1.638788003700    -0.056759707222     1.007825032230
         H           -5.299780677336    -0.014844003700     0.386060292778     1.007825032230

  Basis Set: AUG-CC-PVTZ
    Blend: AUG-CC-PVTZ
  Basis Set: (AUG-CC-PVTZ AUX)
    Blend: AUG-CC-PVTZ-JKFIT
	 Reference Energy          =    -811.4794796998145330 [Eh]
	 Singles Energy            =      -0.0000000000000000 [Eh]
	 Same-Spin Energy          =      -0.8295653780457619 [Eh]
	 Opposite-Spin Energy      =      -2.5248918863457139 [Eh]
	 Correlation Energy        =      -3.3544572643914758 [Eh]
	 Total Energy              =    -814.8339369642060319 [Eh]

	 ================> DF-SCS-MP2 Energies <==================
	-----------------------------------------------------------
	 SCS Same-Spin Scale       =       0.3333333333333333 [-]
	 SCS Opposite-Spin Scale   =       1.2000000000000000 [-]
	 SCS Same-Spin Energy      =      -0.2765217926819206 [Eh]
	 SCS Opposite-Spin Energy  =      -3.0298702636148565 [Eh]
	 SCS Correlation Energy    =      -3.3063920562967772 [Eh]
	 SCS Total Energy          =    -814.7858717561113053 [Eh]
	-----------------------------------------------------------

  Dipole Moment: [D]
     X:     1.2110      Y:    -4.5963      Z:     2.4772     Total:     5.3599

*** Psi4 exiting successfully. Buy a developer a beer!
