                               Psi4 1.4a3.dev225

  ==> Input File <==

--------------------------------------------------------------------------
#psi4
#
memory 32 gb

molecule  {
0 1
  O       -1.4695130     0.3030610    -1.0874480
  O       -3.6436400    -1.4204040    -0.2669360
  O       -1.6911330     2.8536240     0.0000030
  O        1.1857770    -2.4961310     0.0874550
  N        0.6842480    -0.3150290    -0.3399290
  N        2.9133760    -0.9647370     0.2108410
  N        4.5636770     0.6178870     0.3785230
  C       -2.7686820    -0.6858470     0.5863090
  C       -1.3787780    -1.3118450     0.6568060
  C       -2.4925280     0.6283540    -0.1295840
  C       -0.6939390    -0.7805590    -0.6115670
  C       -2.0414120     1.7324860     0.8087370
  C        1.0545030     0.9838330    -0.4888120
  C        1.6080830    -1.3384950     0.0010630
  C        2.3487550     1.3478080    -0.2622830
  C        3.2578570     0.3046130     0.0876290
  H       -3.2188600    -0.5381750     1.5798200
  H       -0.8341690    -0.9801840     1.5464130
  H       -1.3950130    -2.4033150     0.6754970
  H       -0.6263030    -1.5384450    -1.3968420
  H       -3.3591510     0.9641520    -0.7058050
  H       -1.1849610     1.3939850     1.4098140
  H       -2.8667900     1.9743150     1.4948250
  H       -3.6905400    -2.3294490     0.0774600
  H        0.2668220     1.6750250    -0.7707300
  H       -1.4321050     3.5760960     0.5972330
  H        2.6765685     2.4286303    -0.3641337
  H        4.9550500     1.4416620    -0.0591730
  H        5.1797170    -0.1867780     0.4106900
units angstrom
no_reorient  #important for SAPT in psi4, default
symmetry c1  #important for SAPT in psi4, default
}

set PROPERTIES_ORIGIN ["COM"]
properties('MP2/aug-cc-pvtz', properties = ['dipole'])
--------------------------------------------------------------------------

    Molecular point group: c1
  Charge       = 0
  Multiplicity = 1
  Basis Set: AUG-CC-PVTZ
    Blend: AUG-CC-PVTZ
  Basis Set: (AUG-CC-PVTZ AUX)
    Blend: AUG-CC-PVTZ-JKFIT

    Orbital Energies [Eh]
    ---------------------

    Doubly Occupied:

       1A    -20.583569     2A    -20.574491     3A    -20.572693
       4A    -20.502025     5A    -15.619304     6A    -15.588849
       7A    -15.540183     8A    -11.368954     9A    -11.346308
      10A    -11.333284    11A    -11.314921    12A    -11.300262
      13A    -11.299562    14A    -11.294799    15A    -11.240878
      16A    -11.237324    17A     -1.418940    18A     -1.381778
      19A     -1.377612    20A     -1.366165    21A     -1.290379
      22A     -1.258761    23A     -1.168628    24A     -1.076007
      25A     -1.067185    26A     -1.024238    27A     -0.930022
      28A     -0.894705    29A     -0.867545    30A     -0.829731
      31A     -0.805056    32A     -0.753781    33A     -0.736228
      34A     -0.725060    35A     -0.707391    36A     -0.702018
      37A     -0.690198    38A     -0.672606    39A     -0.650087
      40A     -0.639823    41A     -0.622630    42A     -0.614336
      43A     -0.606548    44A     -0.595381    45A     -0.587345
      46A     -0.570921    47A     -0.565829    48A     -0.551284
      49A     -0.526798    50A     -0.520408    51A     -0.510911
      52A     -0.485153    53A     -0.480897    54A     -0.472428
      55A     -0.459516    56A     -0.448309    57A     -0.440735
      58A     -0.413720    59A     -0.382555    60A     -0.334091

  @DF-RHF Final Energy:  -811.47672068462134

   => Energetics <=

    Nuclear Repulsion Energy =           1184.8609074703451824
    One-Electron Energy =               -3464.7929658491634655
    Two-Electron Energy =                1468.4553376941971692
    Total Energy =                       -811.4767206846213412
  Basis Set: (AUG-CC-PVTZ AUX)
    Blend: AUG-CC-PVTZ-RI
    Molecular point group: c1

    Geometry (in Angstrom), charge = 0, multiplicity = 1:

       Center              X                  Y                   Z               Mass
    ------------   -----------------  -----------------  -----------------  -----------------
         O           -1.494036397866     0.326564919971    -1.067800784463    15.994914619570
         O           -3.668163397866    -1.396900080029    -0.247288784463    15.994914619570
         O           -1.715656397866     2.877127919971     0.019650215537    15.994914619570
         O            1.161253602134    -2.472627080029     0.107102215537    15.994914619570
         N            0.659724602134    -0.291525080029    -0.320281784463    14.003074004430
         N            2.888852602134    -0.941233080029     0.230488215537    14.003074004430
         N            4.539153602134     0.641390919971     0.398170215537    14.003074004430
         C           -2.793205397866    -0.662343080029     0.605956215537    12.000000000000
         C           -1.403301397866    -1.288341080029     0.676453215537    12.000000000000
         C           -2.517051397866     0.651857919971    -0.109936784463    12.000000000000
         C           -0.718462397866    -0.757055080029    -0.591919784463    12.000000000000
         C           -2.065935397866     1.755989919971     0.828384215537    12.000000000000
         C            1.029979602134     1.007336919971    -0.469164784463    12.000000000000
         C            1.583559602134    -1.314991080029     0.020710215537    12.000000000000
         C            2.324231602134     1.371311919971    -0.242635784463    12.000000000000
         C            3.233333602134     0.328116919971     0.107276215537    12.000000000000
         H           -3.243383397866    -0.514671080029     1.599467215537     1.007825032230
         H           -0.858692397866    -0.956680080029     1.566060215537     1.007825032230
         H           -1.419536397866    -2.379811080029     0.695144215537     1.007825032230
         H           -0.650826397866    -1.514941080029    -1.377194784463     1.007825032230
         H           -3.383674397866     0.987655919971    -0.686157784463     1.007825032230
         H           -1.209484397866     1.417488919971     1.429461215537     1.007825032230
         H           -2.891313397866     1.997818919971     1.514472215537     1.007825032230
         H           -3.715063397866    -2.305945080029     0.097107215537     1.007825032230
         H            0.242298602134     1.698528919971    -0.751082784463     1.007825032230
         H           -1.456628397866     3.599599919971     0.616880215537     1.007825032230
         H            2.652045102134     2.452134219971    -0.344486484463     1.007825032230
         H            4.930526602134     1.465165919971    -0.039525784463     1.007825032230
         H            5.155193602134    -0.163274080029     0.430337215537     1.007825032230

  Basis Set: AUG-CC-PVTZ
    Blend: AUG-CC-PVTZ
  Basis Set: (AUG-CC-PVTZ AUX)
    Blend: AUG-CC-PVTZ-JKFIT
	 Reference Energy          =    -811.4767206846213412 [Eh]
	 Singles Energy            =      -0.0000000000000000 [Eh]
	 Same-Spin Energy          =      -0.8309066668592437 [Eh]
	 Opposite-Spin Energy      =      -2.5274191347639330 [Eh]
	 Correlation Energy        =      -3.3583258016231765 [Eh]
	 Total Energy              =    -814.8350464862445506 [Eh]

	 ================> DF-SCS-MP2 Energies <==================
	-----------------------------------------------------------
	 SCS Same-Spin Scale       =       0.3333333333333333 [-]
	 SCS Opposite-Spin Scale   =       1.2000000000000000 [-]
	 SCS Same-Spin Energy      =      -0.2769688889530812 [Eh]
	 SCS Opposite-Spin Energy  =      -3.0329029617167196 [Eh]
	 SCS Correlation Energy    =      -3.3098718506698006 [Eh]
	 SCS Total Energy          =    -814.7865925352911063 [Eh]
	-----------------------------------------------------------

  Dipole Moment: [D]
     X:    -0.3323      Y:     4.5898      Z:     2.4099     Total:     5.1946

*** Psi4 exiting successfully. Buy a developer a beer!
