                               Psi4 1.3.2 release

  ==> Input File <==

--------------------------------------------------------------------------
#psi4
#
memory 32 gb

molecule  {
0 1
  O        1.3620710    -0.3800110    -0.9318440
  O        3.2020570     1.9012130    -0.2995130
  O        2.7994070    -2.7489470    -0.4002010
  O       -1.3621860     2.3740050     0.1547830
  N       -0.7982440     0.1994180    -0.2292560
  N       -3.0541720     0.8052390     0.2400120
  N       -4.6734100    -0.8124350     0.4126370
  C        2.7015950     0.8755540     0.5594740
  C        1.2368440     1.1072260     0.8878520
  C        2.6518190    -0.3922910    -0.2854700
  C        0.5739580     0.6830040    -0.4149160
  C        2.8020980    -1.6600160     0.5224700
  C       -1.1273370    -1.1158190    -0.3082760
  C       -1.7446880     1.2038920     0.0820450
  C       -2.2279661    -1.4475017    -0.1344459
  C       -3.3619920    -0.4731600     0.1685110
  H        3.3343810     0.7567850     1.4508530
  H        0.9047070     0.4438290     1.6934890
  H        0.9853290     2.1340670     1.1581470
  H        0.5274540     1.5132540    -1.1249130
  H        3.4174920    -0.3642830    -1.0666260
  H        1.9707490    -1.7331840     1.2432230
  H        3.7460890    -1.6095150     1.0882890
  H        3.1038510     2.7463240     0.1779830
  H       -0.3107400    -1.7892010    -0.5436980
  H        2.9100300    -3.5650720     0.1192120
  H       -2.7034680    -2.5490840    -0.1532500
  H       -5.0287110    -1.6377420    -0.0567190
  H       -5.2994710    -0.0137980     0.3861010
units angstrom
no_reorient  #important for SAPT in psi4, default
symmetry c1  #important for SAPT in psi4, default
}

set PROPERTIES_ORIGIN ["COM"]
properties('MP2/aug-cc-pvtz', properties = ['dipole'])
--------------------------------------------------------------------------

    Molecular point group: c1
  Charge       = 0
  Multiplicity = 1
  Basis Set: AUG-CC-PVTZ
    Blend: AUG-CC-PVTZ
  Basis Set: (AUG-CC-PVTZ AUX)
    Blend: AUG-CC-PVTZ-JKFIT

    Orbital Energies [Eh]
    ---------------------

    Doubly Occupied:

       1A    -20.574397     2A    -20.570509     3A    -20.566601
       4A    -20.502677     5A    -15.604116     6A    -15.600972
       7A    -15.545961     8A    -11.368414     9A    -11.359881
      10A    -11.322591    11A    -11.296311    12A    -11.293140
      13A    -11.288508    14A    -11.272158    15A    -11.236344
      16A    -11.230877    17A     -1.410587    18A     -1.380199
      19A     -1.369976    20A     -1.361764    21A     -1.296143
      22A     -1.262351    23A     -1.174562    24A     -1.105415
      25A     -1.068938    26A     -1.024649    27A     -0.919451
      28A     -0.882049    29A     -0.868159    30A     -0.829676
      31A     -0.803521    32A     -0.760353    33A     -0.735333
      34A     -0.717973    35A     -0.708429    36A     -0.688801
      37A     -0.687204    38A     -0.676102    39A     -0.655192
      40A     -0.637332    41A     -0.627368    42A     -0.610608
      43A     -0.603223    44A     -0.597497    45A     -0.580351
      46A     -0.564973    47A     -0.555969    48A     -0.540612
      49A     -0.531976    50A     -0.515396    51A     -0.507322
      52A     -0.496428    53A     -0.480837    54A     -0.465246
      55A     -0.459189    56A     -0.443061    57A     -0.432310
      58A     -0.409628    59A     -0.385371    60A     -0.352126

  @DF-RHF Final Energy:  -811.41177464238149

   => Energetics <=

    Nuclear Repulsion Energy =           1173.2986471411629736
    One-Electron Energy =               -3441.7866278319338562
    Two-Electron Energy =                1457.0762060483896221
    Total Energy =                       -811.4117746423814879
  Basis Set: (AUG-CC-PVTZ AUX)
    Blend: AUG-CC-PVTZ-RI
    Molecular point group: c1

    Geometry (in Angstrom), charge = 0, multiplicity = 1:

       Center              X                  Y                   Z               Mass
    ------------   -----------------  -----------------  -----------------  -----------------
         O            1.352065767046    -0.383026184231    -0.930263773592    15.994914619570
         O            3.192051767046     1.898197815769    -0.297932773592    15.994914619570
         O            2.789401767046    -2.751962184231    -0.398620773592    15.994914619570
         O           -1.372191232954     2.370989815769     0.156363226408    15.994914619570
         N           -0.808249232954     0.196402815769    -0.227675773592    14.003074004430
         N           -3.064177232954     0.802223815769     0.241592226408    14.003074004430
         N           -4.683415232954    -0.815450184231     0.414217226408    14.003074004430
         C            2.691589767046     0.872538815769     0.561054226408    12.000000000000
         C            1.226838767046     1.104210815769     0.889432226408    12.000000000000
         C            2.641813767046    -0.395306184231    -0.283889773592    12.000000000000
         C            0.563952767046     0.679988815769    -0.413335773592    12.000000000000
         C            2.792092767046    -1.663031184231     0.524050226408    12.000000000000
         C           -1.137342232954    -1.118834184231    -0.306695773592    12.000000000000
         C           -1.754693232954     1.200876815769     0.083625226408    12.000000000000
         C           -2.237971332954    -1.450516884231    -0.132865673592    12.000000000000
         C           -3.371997232954    -0.476175184231     0.170091226408    12.000000000000
         H            3.324375767046     0.753769815769     1.452433226408     1.007825032230
         H            0.894701767046     0.440813815769     1.695069226408     1.007825032230
         H            0.975323767046     2.131051815769     1.159727226408     1.007825032230
         H            0.517448767046     1.510238815769    -1.123332773592     1.007825032230
         H            3.407486767046    -0.367298184231    -1.065045773592     1.007825032230
         H            1.960743767046    -1.736199184231     1.244803226408     1.007825032230
         H            3.736083767046    -1.612530184231     1.089869226408     1.007825032230
         H            3.093845767046     2.743308815769     0.179563226408     1.007825032230
         H           -0.320745232954    -1.792216184231    -0.542117773592     1.007825032230
         H            2.900024767046    -3.568087184231     0.120792226408     1.007825032230
         H           -2.713473232954    -2.552099184231    -0.151669773592     1.007825032230
         H           -5.038716232954    -1.640757184231    -0.055138773592     1.007825032230
         H           -5.309476232954    -0.016813184231     0.387681226408     1.007825032230

  Basis Set: AUG-CC-PVTZ
    Blend: AUG-CC-PVTZ
  Basis Set: (AUG-CC-PVTZ AUX)
    Blend: AUG-CC-PVTZ-JKFIT
	 Reference Energy          =    -811.4117746423814879 [Eh]
	 Singles Energy            =      -0.0000000000000000 [Eh]
	 Same-Spin Energy          =      -0.8279580377567399 [Eh]
	 Opposite-Spin Energy      =      -2.5238135564798196 [Eh]
	 Correlation Energy        =      -3.3517715942365598 [Eh]
	 Total Energy              =    -814.7635462366180263 [Eh]

	 ================> DF-SCS-MP2 Energies <==================
	-----------------------------------------------------------
	 SCS Same-Spin Scale       =       0.3333333333333333 [-]
	 SCS Opposite-Spin Scale   =       1.2000000000000000 [-]
	 SCS Same-Spin Energy      =      -0.2759860125855800 [Eh]
	 SCS Opposite-Spin Energy  =      -3.0285762677757835 [Eh]
	 SCS Correlation Energy    =      -3.3045622803613632 [Eh]
	 SCS Total Energy          =    -814.7163369227428120 [Eh]
	-----------------------------------------------------------

  Dipole Moment: [D]
     X:     0.2651      Y:    -4.7180      Z:     2.5805     Total:     5.3842

*** Psi4 exiting successfully. Buy a developer a beer!
