                               Psi4 1.3.2 release

  ==> Input File <==

--------------------------------------------------------------------------
#psi4
#
memory 32 gb

molecule  {
0 1
  O        1.3620710    -0.3800110    -0.9318440
  O        3.2020570     1.9012130    -0.2995130
  O        2.7994070    -2.7489470    -0.4002010
  O       -1.3621860     2.3740050     0.1547830
  N       -0.7982440     0.1994180    -0.2292560
  N       -3.0541720     0.8052390     0.2400120
  N       -4.6734100    -0.8124350     0.4126370
  C        2.7015950     0.8755540     0.5594740
  C        1.2368440     1.1072260     0.8878520
  C        2.6079627    -0.3812911    -0.2583319
  C        0.5739580     0.6830040    -0.4149160
  C        2.8020980    -1.6600160     0.5224700
  C       -1.1273370    -1.1158190    -0.3082760
  C       -1.7446880     1.2038920     0.0820450
  C       -2.4173070    -1.5045610    -0.1045420
  C       -3.3619920    -0.4731600     0.1685110
  H        3.3343810     0.7567850     1.4508530
  H        0.9047070     0.4438290     1.6934890
  H        0.9853290     2.1340670     1.1581470
  H        0.5274540     1.5132540    -1.1249130
  H        3.4174920    -0.3642830    -1.0666260
  H        1.9570493    -1.6998209     1.2297804
  H        3.7460890    -1.6095150     1.0882890
  H        3.1038510     2.7463240     0.1779830
  H       -0.3107400    -1.7892010    -0.5436980
  H        2.9100300    -3.5650720     0.1192120
  H       -2.7034680    -2.5490840    -0.1532500
  H       -5.0287110    -1.6377420    -0.0567190
  H       -5.2994710    -0.0137980     0.3861010
units angstrom
no_reorient  #important for SAPT in psi4, default
symmetry c1  #important for SAPT in psi4, default
}

set PROPERTIES_ORIGIN ["COM"]
properties('MP2/aug-cc-pvtz', properties = ['dipole'])
--------------------------------------------------------------------------

    Molecular point group: c1
  Charge       = 0
  Multiplicity = 1
  Basis Set: AUG-CC-PVTZ
    Blend: AUG-CC-PVTZ
  Basis Set: (AUG-CC-PVTZ AUX)
    Blend: AUG-CC-PVTZ-JKFIT

    Orbital Energies [Eh]
    ---------------------

    Doubly Occupied:

       1A    -20.578408     2A    -20.576928     3A    -20.574687
       4A    -20.503742     5A    -15.622616     6A    -15.588889
       7A    -15.541443     8A    -11.370595     9A    -11.345690
      10A    -11.332300    11A    -11.319169    12A    -11.300030
      13A    -11.296363    14A    -11.293133    15A    -11.237812
      16A    -11.237542    17A     -1.425172    18A     -1.383441
      19A     -1.373591    20A     -1.367786    21A     -1.293130
      22A     -1.262751    23A     -1.169868    24A     -1.082499
      25A     -1.070809    26A     -1.027939    27A     -0.928291
      28A     -0.898384    29A     -0.869976    30A     -0.833469
      31A     -0.801871    32A     -0.754694    33A     -0.740656
      34A     -0.723105    35A     -0.707591    36A     -0.692182
      37A     -0.689945    38A     -0.676089    39A     -0.657817
      40A     -0.639689    41A     -0.629508    42A     -0.619338
      43A     -0.606162    44A     -0.595760    45A     -0.591228
      46A     -0.574233    47A     -0.564088    48A     -0.545266
      49A     -0.534652    50A     -0.525497    51A     -0.509996
      52A     -0.488239    53A     -0.481078    54A     -0.469142
      55A     -0.459204    56A     -0.443438    57A     -0.436747
      58A     -0.416759    59A     -0.384377    60A     -0.335712

  @DF-RHF Final Energy:  -811.47517050088436

   => Energetics <=

    Nuclear Repulsion Energy =           1171.0834481849813073
    One-Electron Energy =               -3437.1161982646221986
    Two-Electron Energy =                1454.5575795787567586
    Total Energy =                       -811.4751705008843601
  Basis Set: (AUG-CC-PVTZ AUX)
    Blend: AUG-CC-PVTZ-RI
    Molecular point group: c1

    Geometry (in Angstrom), charge = 0, multiplicity = 1:

       Center              X                  Y                   Z               Mass
    ------------   -----------------  -----------------  -----------------  -----------------
         O            1.364449252877    -0.380740362541    -0.933218348523    15.994914619570
         O            3.204435252877     1.900483637459    -0.300887348523    15.994914619570
         O            2.801785252877    -2.749676362541    -0.401575348523    15.994914619570
         O           -1.359807747123     2.373275637459     0.153408651477    15.994914619570
         N           -0.795865747123     0.198688637459    -0.230630348523    14.003074004430
         N           -3.051793747123     0.804509637459     0.238637651477    14.003074004430
         N           -4.671031747123    -0.813164362541     0.411262651477    14.003074004430
         C            2.703973252877     0.874824637459     0.558099651477    12.000000000000
         C            1.239222252877     1.106496637459     0.886477651477    12.000000000000
         C            2.610340952877    -0.382020462541    -0.259706248523    12.000000000000
         C            0.576336252877     0.682274637459    -0.416290348523    12.000000000000
         C            2.804476252877    -1.660745362541     0.521095651477    12.000000000000
         C           -1.124958747123    -1.116548362541    -0.309650348523    12.000000000000
         C           -1.742309747123     1.203162637459     0.080670651477    12.000000000000
         C           -2.414928747123    -1.505290362541    -0.105916348523    12.000000000000
         C           -3.359613747123    -0.473889362541     0.167136651477    12.000000000000
         H            3.336759252877     0.756055637459     1.449478651477     1.007825032230
         H            0.907085252877     0.443099637459     1.692114651477     1.007825032230
         H            0.987707252877     2.133337637459     1.156772651477     1.007825032230
         H            0.529832252877     1.512524637459    -1.126287348523     1.007825032230
         H            3.419870252877    -0.365012362541    -1.068000348523     1.007825032230
         H            1.959427552877    -1.700550262541     1.228406051477     1.007825032230
         H            3.748467252877    -1.610244362541     1.086914651477     1.007825032230
         H            3.106229252877     2.745594637459     0.176608651477     1.007825032230
         H           -0.308361747123    -1.789930362541    -0.545072348523     1.007825032230
         H            2.912408252877    -3.565801362541     0.117837651477     1.007825032230
         H           -2.701089747123    -2.549813362541    -0.154624348523     1.007825032230
         H           -5.026332747123    -1.638471362541    -0.058093348523     1.007825032230
         H           -5.297092747123    -0.014527362541     0.384726651477     1.007825032230

  Basis Set: AUG-CC-PVTZ
    Blend: AUG-CC-PVTZ
  Basis Set: (AUG-CC-PVTZ AUX)
    Blend: AUG-CC-PVTZ-JKFIT
	 Reference Energy          =    -811.4751705008843601 [Eh]
	 Singles Energy            =      -0.0000000000000000 [Eh]
	 Same-Spin Energy          =      -0.8302160742272773 [Eh]
	 Opposite-Spin Energy      =      -2.5256343522810507 [Eh]
	 Correlation Energy        =      -3.3558504265083280 [Eh]
	 Total Energy              =    -814.8310209273927285 [Eh]

	 ================> DF-SCS-MP2 Energies <==================
	-----------------------------------------------------------
	 SCS Same-Spin Scale       =       0.3333333333333333 [-]
	 SCS Opposite-Spin Scale   =       1.2000000000000000 [-]
	 SCS Same-Spin Energy      =      -0.2767386914090924 [Eh]
	 SCS Opposite-Spin Energy  =      -3.0307612227372607 [Eh]
	 SCS Correlation Energy    =      -3.3074999141463532 [Eh]
	 SCS Total Energy          =    -814.7826704150306796 [Eh]
	-----------------------------------------------------------

  Dipole Moment: [D]
     X:     0.9365      Y:    -4.6409      Z:     2.4955     Total:     5.3519

*** Psi4 exiting successfully. Buy a developer a beer!
