                               Psi4 1.3.2 release

  ==> Input File <==

--------------------------------------------------------------------------
#psi4
#
memory 32 gb

molecule  {
0 1
  O        1.3620710    -0.3800110    -0.9318440
  O        3.2020570     1.9012130    -0.2995130
  O        2.7994070    -2.7489470    -0.4002010
  O       -1.3621860     2.3740050     0.1547830
  N       -0.7982440     0.1994180    -0.2292560
  N       -3.0541720     0.8052390     0.2400120
  N       -4.6734100    -0.8124350     0.4126370
  C        2.7015950     0.8755540     0.5594740
  C        1.2368440     1.1072260     0.8878520
  C        2.6518190    -0.3922910    -0.2854700
  C        0.5778030     0.6710233    -0.4172626
  C        2.8020980    -1.6600160     0.5224700
  C       -1.1273370    -1.1158190    -0.3082760
  C       -1.7535590     1.1953169     0.0824990
  C       -2.4173070    -1.5045610    -0.1045420
  C       -3.3619920    -0.4731600     0.1685110
  H        3.3343810     0.7567850     1.4508530
  H        0.9047070     0.4438290     1.6934890
  H        0.9853290     2.1340670     1.1581470
  H        0.5274540     1.5132540    -1.1249130
  H        3.4174920    -0.3642830    -1.0666260
  H        1.9707490    -1.7331840     1.2432230
  H        3.7460890    -1.6095150     1.0882890
  H        3.1038510     2.7463240     0.1779830
  H       -0.3107400    -1.7892010    -0.5436980
  H        2.9100300    -3.5650720     0.1192120
  H       -2.7034680    -2.5490840    -0.1532500
  H       -5.0287110    -1.6377420    -0.0567190
  H       -5.2994710    -0.0137980     0.3861010
units angstrom
no_reorient  #important for SAPT in psi4, default
symmetry c1  #important for SAPT in psi4, default
}

set PROPERTIES_ORIGIN ["COM"]
properties('MP2/aug-cc-pvtz', properties = ['dipole'])
--------------------------------------------------------------------------

    Molecular point group: c1
  Charge       = 0
  Multiplicity = 1
  Basis Set: AUG-CC-PVTZ
    Blend: AUG-CC-PVTZ
  Basis Set: (AUG-CC-PVTZ AUX)
    Blend: AUG-CC-PVTZ-JKFIT

    Orbital Energies [Eh]
    ---------------------

    Doubly Occupied:

       1A    -20.578161     2A    -20.574135     3A    -20.574072
       4A    -20.499597     5A    -15.622178     6A    -15.589394
       7A    -15.541715     8A    -11.369411     9A    -11.346447
      10A    -11.330636    11A    -11.318660    12A    -11.300672
      13A    -11.297335    14A    -11.293859    15A    -11.237576
      16A    -11.236236    17A     -1.419671    18A     -1.378823
      19A     -1.373742    20A     -1.365649    21A     -1.290525
      22A     -1.261593    23A     -1.172078    24A     -1.078574
      25A     -1.069709    26A     -1.028013    27A     -0.926915
      28A     -0.897701    29A     -0.870081    30A     -0.831649
      31A     -0.806892    32A     -0.755363    33A     -0.739176
      34A     -0.721247    35A     -0.707153    36A     -0.693256
      37A     -0.689178    38A     -0.676296    39A     -0.657571
      40A     -0.637121    41A     -0.627549    42A     -0.617574
      43A     -0.603759    44A     -0.595900    45A     -0.588295
      46A     -0.571854    47A     -0.569610    48A     -0.545308
      49A     -0.532410    50A     -0.523658    51A     -0.508744
      52A     -0.486384    53A     -0.480356    54A     -0.468847
      55A     -0.460856    56A     -0.442471    57A     -0.436992
      58A     -0.417077    59A     -0.384052    60A     -0.334794

  @DF-RHF Final Energy:  -811.47882295654506

   => Energetics <=

    Nuclear Repulsion Energy =           1170.0480905918186636
    One-Electron Energy =               -3435.1447334585400313
    Two-Electron Energy =                1453.6178199101766495
    Total Energy =                       -811.4788229565449456
  Basis Set: (AUG-CC-PVTZ AUX)
    Blend: AUG-CC-PVTZ-RI
    Molecular point group: c1

    Geometry (in Angstrom), charge = 0, multiplicity = 1:

       Center              X                  Y                   Z               Mass
    ------------   -----------------  -----------------  -----------------  -----------------
         O            1.362336569709    -0.378924820389    -0.931743956353    15.994914619570
         O            3.202322569709     1.902299179611    -0.299412956353    15.994914619570
         O            2.799672569709    -2.747860820389    -0.400100956353    15.994914619570
         O           -1.361920430291     2.375091179611     0.154883043647    15.994914619570
         N           -0.797978430291     0.200504179611    -0.229155956353    14.003074004430
         N           -3.053906430291     0.806325179611     0.240112043647    14.003074004430
         N           -4.673144430291    -0.811348820389     0.412737043647    14.003074004430
         C            2.701860569709     0.876640179611     0.559574043647    12.000000000000
         C            1.237109569709     1.108312179611     0.887952043647    12.000000000000
         C            2.652084569709    -0.391204820389    -0.285369956353    12.000000000000
         C            0.578068569709     0.672109479611    -0.417162556353    12.000000000000
         C            2.802363569709    -1.658929820389     0.522570043647    12.000000000000
         C           -1.127071430291    -1.114732820389    -0.308175956353    12.000000000000
         C           -1.753293430291     1.196403079611     0.082599043647    12.000000000000
         C           -2.417041430291    -1.503474820389    -0.104441956353    12.000000000000
         C           -3.361726430291    -0.472073820389     0.168611043647    12.000000000000
         H            3.334646569709     0.757871179611     1.450953043647     1.007825032230
         H            0.904972569709     0.444915179611     1.693589043647     1.007825032230
         H            0.985594569709     2.135153179611     1.158247043647     1.007825032230
         H            0.527719569709     1.514340179611    -1.124812956353     1.007825032230
         H            3.417757569709    -0.363196820389    -1.066525956353     1.007825032230
         H            1.971014569709    -1.732097820389     1.243323043647     1.007825032230
         H            3.746354569709    -1.608428820389     1.088389043647     1.007825032230
         H            3.104116569709     2.747410179611     0.178083043647     1.007825032230
         H           -0.310474430291    -1.788114820389    -0.543597956353     1.007825032230
         H            2.910295569709    -3.563985820389     0.119312043647     1.007825032230
         H           -2.703202430291    -2.547997820389    -0.153149956353     1.007825032230
         H           -5.028445430291    -1.636655820389    -0.056618956353     1.007825032230
         H           -5.299205430291    -0.012711820389     0.386201043647     1.007825032230

  Basis Set: AUG-CC-PVTZ
    Blend: AUG-CC-PVTZ
  Basis Set: (AUG-CC-PVTZ AUX)
    Blend: AUG-CC-PVTZ-JKFIT
	 Reference Energy          =    -811.4788229565450592 [Eh]
	 Singles Energy            =      -0.0000000000000000 [Eh]
	 Same-Spin Energy          =      -0.8298391474135232 [Eh]
	 Opposite-Spin Energy      =      -2.5251965443606670 [Eh]
	 Correlation Energy        =      -3.3550356917741899 [Eh]
	 Total Energy              =    -814.8338586483192785 [Eh]

	 ================> DF-SCS-MP2 Energies <==================
	-----------------------------------------------------------
	 SCS Same-Spin Scale       =       0.3333333333333333 [-]
	 SCS Opposite-Spin Scale   =       1.2000000000000000 [-]
	 SCS Same-Spin Energy      =      -0.2766130491378410 [Eh]
	 SCS Opposite-Spin Energy  =      -3.0302358532328002 [Eh]
	 SCS Correlation Energy    =      -3.3068489023706413 [Eh]
	 SCS Total Energy          =    -814.7856718589157481 [Eh]
	-----------------------------------------------------------

  Dipole Moment: [D]
     X:     1.0508      Y:    -4.8092      Z:     2.4821     Total:     5.5130

*** Psi4 exiting successfully. Buy a developer a beer!
