                               Psi4 1.3.2 release

  ==> Input File <==

--------------------------------------------------------------------------
#psi4
#
memory 32 gb

molecule  {
0 1
  O        1.3620710    -0.3800110    -0.9318440
  O        3.2020570     1.9012130    -0.2995130
  O        2.7994070    -2.7489470    -0.4002010
  O       -1.3621860     2.3740050     0.1547830
  N       -0.7982440     0.1994180    -0.2292560
  N       -3.0541720     0.8052390     0.2400120
  N       -4.6734100    -0.8124350     0.4126370
  C        2.7015950     0.8755540     0.5594740
  C        1.2368440     1.1072260     0.8878520
  C        2.6518190    -0.3922910    -0.2854700
  C        0.5739580     0.6830040    -0.4149160
  C        2.8020980    -1.6600160     0.5224700
  C       -1.1273370    -1.1158190    -0.3082760
  C       -1.7446880     1.2038920     0.0820450
  C       -2.4173070    -1.5045610    -0.1045420
  C       -3.1714366    -0.4238617     0.1330383
  H        3.3343810     0.7567850     1.4508530
  H        0.9047070     0.4438290     1.6934890
  H        0.9853290     2.1340670     1.1581470
  H        0.5274540     1.5132540    -1.1249130
  H        3.4174920    -0.3642830    -1.0666260
  H        1.9707490    -1.7331840     1.2432230
  H        3.7460890    -1.6095150     1.0882890
  H        3.1038510     2.7463240     0.1779830
  H       -0.3107400    -1.7892010    -0.5436980
  H        2.9100300    -3.5650720     0.1192120
  H       -2.7034680    -2.5490840    -0.1532500
  H       -5.0287110    -1.6377420    -0.0567190
  H       -5.2994710    -0.0137980     0.3861010
units angstrom
no_reorient  #important for SAPT in psi4, default
symmetry c1  #important for SAPT in psi4, default
}

set PROPERTIES_ORIGIN ["COM"]
properties('MP2/aug-cc-pvtz', properties = ['dipole'])
--------------------------------------------------------------------------

    Molecular point group: c1
  Charge       = 0
  Multiplicity = 1
  Basis Set: AUG-CC-PVTZ
    Blend: AUG-CC-PVTZ
  Basis Set: (AUG-CC-PVTZ AUX)
    Blend: AUG-CC-PVTZ-JKFIT

    Orbital Energies [Eh]
    ---------------------

    Doubly Occupied:

       1A    -20.581725     2A    -20.579626     3A    -20.579131
       4A    -20.514173     5A    -15.636089     6A    -15.555634
       7A    -15.551844     8A    -11.380024     9A    -11.339516
      10A    -11.337367    11A    -11.329365    12A    -11.306259
      13A    -11.301349    14A    -11.298356    15A    -11.243586
      16A    -11.239557    17A     -1.425157    18A     -1.397108
      19A     -1.377936    20A     -1.371614    21A     -1.308848
      22A     -1.261083    23A     -1.135904    24A     -1.096296
      25A     -1.078929    26A     -1.037094    27A     -0.932994
      28A     -0.913474    29A     -0.872350    30A     -0.835011
      31A     -0.812372    32A     -0.756773    33A     -0.749993
      34A     -0.726541    35A     -0.702616    36A     -0.695853
      37A     -0.678408    38A     -0.662838    39A     -0.656682
      40A     -0.645343    41A     -0.639820    42A     -0.619759
      43A     -0.609825    44A     -0.597918    45A     -0.589117
      46A     -0.575508    47A     -0.555096    48A     -0.549205
      49A     -0.531079    50A     -0.529792    51A     -0.506849
      52A     -0.491832    53A     -0.491104    54A     -0.472955
      55A     -0.467658    56A     -0.465854    57A     -0.440770
      58A     -0.425419    59A     -0.383954    60A     -0.347260

  @DF-RHF Final Energy:  -811.43211681328671

   => Energetics <=

    Nuclear Repulsion Energy =           1173.0944872152003882
    One-Electron Energy =               -3440.6620255965681281
    Two-Electron Energy =                1456.1354215680810285
    Total Energy =                       -811.4321168132867115
  Basis Set: (AUG-CC-PVTZ AUX)
    Blend: AUG-CC-PVTZ-RI
    Molecular point group: c1

    Geometry (in Angstrom), charge = 0, multiplicity = 1:

       Center              X                  Y                   Z               Mass
    ------------   -----------------  -----------------  -----------------  -----------------
         O            1.352001590019    -0.382616074796    -0.929969505145    15.994914619570
         O            3.191987590019     1.898607925204    -0.297638505145    15.994914619570
         O            2.789337590019    -2.751552074796    -0.398326505145    15.994914619570
         O           -1.372255409981     2.371399925204     0.156657494855    15.994914619570
         N           -0.808313409981     0.196812925204    -0.227381505145    14.003074004430
         N           -3.064241409981     0.802633925204     0.241886494855    14.003074004430
         N           -4.683479409981    -0.815040074796     0.414511494855    14.003074004430
         C            2.691525590019     0.872948925204     0.561348494855    12.000000000000
         C            1.226774590019     1.104620925204     0.889726494855    12.000000000000
         C            2.641749590019    -0.394896074796    -0.283595505145    12.000000000000
         C            0.563888590019     0.680398925204    -0.413041505145    12.000000000000
         C            2.792028590019    -1.662621074796     0.524344494855    12.000000000000
         C           -1.137406409981    -1.118424074796    -0.306401505145    12.000000000000
         C           -1.754757409981     1.201286925204     0.083919494855    12.000000000000
         C           -2.427376409981    -1.507166074796    -0.102667505145    12.000000000000
         C           -3.181506009981    -0.426466774796     0.134912794855    12.000000000000
         H            3.324311590019     0.754179925204     1.452727494855     1.007825032230
         H            0.894637590019     0.441223925204     1.695363494855     1.007825032230
         H            0.975259590019     2.131461925204     1.160021494855     1.007825032230
         H            0.517384590019     1.510648925204    -1.123038505145     1.007825032230
         H            3.407422590019    -0.366888074796    -1.064751505145     1.007825032230
         H            1.960679590019    -1.735789074796     1.245097494855     1.007825032230
         H            3.736019590019    -1.612120074796     1.090163494855     1.007825032230
         H            3.093781590019     2.743718925204     0.179857494855     1.007825032230
         H           -0.320809409981    -1.791806074796    -0.541823505145     1.007825032230
         H            2.899960590019    -3.567677074796     0.121086494855     1.007825032230
         H           -2.713537409981    -2.551689074796    -0.151375505145     1.007825032230
         H           -5.038780409981    -1.640347074796    -0.054844505145     1.007825032230
         H           -5.309540409981    -0.016403074796     0.387975494855     1.007825032230

  Basis Set: AUG-CC-PVTZ
    Blend: AUG-CC-PVTZ
  Basis Set: (AUG-CC-PVTZ AUX)
    Blend: AUG-CC-PVTZ-JKFIT
	 Reference Energy          =    -811.4321168132867115 [Eh]
	 Singles Energy            =      -0.0000000000000000 [Eh]
	 Same-Spin Energy          =      -0.8308012104181119 [Eh]
	 Opposite-Spin Energy      =      -2.5280498926718420 [Eh]
	 Correlation Energy        =      -3.3588511030899539 [Eh]
	 Total Energy              =    -814.7909679163766441 [Eh]

	 ================> DF-SCS-MP2 Energies <==================
	-----------------------------------------------------------
	 SCS Same-Spin Scale       =       0.3333333333333333 [-]
	 SCS Opposite-Spin Scale   =       1.2000000000000000 [-]
	 SCS Same-Spin Energy      =      -0.2769337368060373 [Eh]
	 SCS Opposite-Spin Energy  =      -3.0336598712062104 [Eh]
	 SCS Correlation Energy    =      -3.3105936080122476 [Eh]
	 SCS Total Energy          =    -814.7427104212989661 [Eh]
	-----------------------------------------------------------

  Dipole Moment: [D]
     X:     2.9617      Y:    -4.1292      Z:     2.2358     Total:     5.5517

*** Psi4 exiting successfully. Buy a developer a beer!
