                               Psi4 1.3.2 release

  ==> Input File <==

--------------------------------------------------------------------------
#psi4
#
memory 32 gb

molecule  {
0 1
  O        1.3620710    -0.3800110    -0.9318440
  O        3.2020570     1.9012130    -0.2995130
  O        2.7994070    -2.7489470    -0.4002010
  O       -1.3621860     2.3740050     0.1547830
  N       -0.7982440     0.1994180    -0.2292560
  N       -3.0541720     0.8052390     0.2400120
  N       -4.6734100    -0.8124350     0.4126370
  C        2.7015950     0.8755540     0.5594740
  C        1.2368440     1.1072260     0.8878520
  C        2.6518190    -0.3922910    -0.2854700
  C        0.5739580     0.6830040    -0.4149160
  C        2.8020980    -1.6600160     0.5224700
  C       -1.1212367    -1.1385560    -0.3116476
  C       -1.7446880     1.2038920     0.0820450
  C       -2.4173070    -1.5045610    -0.1045420
  C       -3.3619920    -0.4731600     0.1685110
  H        3.3343810     0.7567850     1.4508530
  H        0.9047070     0.4438290     1.6934890
  H        0.9853290     2.1340670     1.1581470
  H        0.5274540     1.5132540    -1.1249130
  H        3.4174920    -0.3642830    -1.0666260
  H        1.9707490    -1.7331840     1.2432230
  H        3.7460890    -1.6095150     1.0882890
  H        3.1038510     2.7463240     0.1779830
  H       -0.3107400    -1.7892010    -0.5436980
  H        2.9100300    -3.5650720     0.1192120
  H       -2.6855081    -2.5536551    -0.1570648
  H       -5.0287110    -1.6377420    -0.0567190
  H       -5.2994710    -0.0137980     0.3861010
units angstrom
no_reorient  #important for SAPT in psi4, default
symmetry c1  #important for SAPT in psi4, default
}

set PROPERTIES_ORIGIN ["COM"]
properties('MP2/aug-cc-pvtz', properties = ['dipole'])
--------------------------------------------------------------------------

    Molecular point group: c1
  Charge       = 0
  Multiplicity = 1
  Basis Set: AUG-CC-PVTZ
    Blend: AUG-CC-PVTZ
  Basis Set: (AUG-CC-PVTZ AUX)
    Blend: AUG-CC-PVTZ-JKFIT

    Orbital Energies [Eh]
    ---------------------

    Doubly Occupied:

       1A    -20.577633     2A    -20.573761     3A    -20.572183
       4A    -20.502527     5A    -15.619895     6A    -15.589383
       7A    -15.541709     8A    -11.369575     9A    -11.346754
      10A    -11.329161    11A    -11.318826    12A    -11.300191
      13A    -11.296611    14A    -11.292566    15A    -11.239196
      16A    -11.235759    17A     -1.415489    18A     -1.381089
      19A     -1.373275    20A     -1.365211    21A     -1.290931
      22A     -1.257825    23A     -1.169282    24A     -1.078679
      25A     -1.068962    26A     -1.027261    27A     -0.925737
      28A     -0.897797    29A     -0.868284    30A     -0.829763
      31A     -0.806040    32A     -0.753404    33A     -0.737425
      34A     -0.720463    35A     -0.708366    36A     -0.692520
      37A     -0.688632    38A     -0.676793    39A     -0.656169
      40A     -0.636621    41A     -0.626047    42A     -0.619608
      43A     -0.605658    44A     -0.596959    45A     -0.588879
      46A     -0.570284    47A     -0.568166    48A     -0.544501
      49A     -0.532322    50A     -0.522586    51A     -0.509995
      52A     -0.485186    53A     -0.480149    54A     -0.468176
      55A     -0.460235    56A     -0.444299    57A     -0.437705
      58A     -0.416614    59A     -0.383639    60A     -0.336071

  @DF-RHF Final Energy:  -811.47796744180437

   => Energetics <=

    Nuclear Repulsion Energy =           1169.4730874186141136
    One-Electron Energy =               -3434.0444522873790447
    Two-Electron Energy =                1453.0933974269607916
    Total Energy =                       -811.4779674418043669
  Basis Set: (AUG-CC-PVTZ AUX)
    Blend: AUG-CC-PVTZ-RI
    Molecular point group: c1

    Geometry (in Angstrom), charge = 0, multiplicity = 1:

       Center              X                  Y                   Z               Mass
    ------------   -----------------  -----------------  -----------------  -----------------
         O            1.361668924140    -0.378789274187    -0.931648872495    15.994914619570
         O            3.201654924140     1.902434725813    -0.299317872495    15.994914619570
         O            2.799004924140    -2.747725274187    -0.400005872495    15.994914619570
         O           -1.362588075860     2.375226725813     0.154978127505    15.994914619570
         N           -0.798646075860     0.200639725813    -0.229060872495    14.003074004430
         N           -3.054574075860     0.806460725813     0.240207127505    14.003074004430
         N           -4.673812075860    -0.811213274187     0.412832127505    14.003074004430
         C            2.701192924140     0.876775725813     0.559669127505    12.000000000000
         C            1.236441924140     1.108447725813     0.888047127505    12.000000000000
         C            2.651416924140    -0.391069274187    -0.285274872495    12.000000000000
         C            0.573555924140     0.684225725813    -0.414720872495    12.000000000000
         C            2.801695924140    -1.658794274187     0.522665127505    12.000000000000
         C           -1.121638775860    -1.137334274187    -0.311452472495    12.000000000000
         C           -1.745090075860     1.205113725813     0.082240127505    12.000000000000
         C           -2.417709075860    -1.503339274187    -0.104346872495    12.000000000000
         C           -3.362394075860    -0.471938274187     0.168706127505    12.000000000000
         H            3.333978924140     0.758006725813     1.451048127505     1.007825032230
         H            0.904304924140     0.445050725813     1.693684127505     1.007825032230
         H            0.984926924140     2.135288725813     1.158342127505     1.007825032230
         H            0.527051924140     1.514475725813    -1.124717872495     1.007825032230
         H            3.417089924140    -0.363061274187    -1.066430872495     1.007825032230
         H            1.970346924140    -1.731962274187     1.243418127505     1.007825032230
         H            3.745686924140    -1.608293274187     1.088484127505     1.007825032230
         H            3.103448924140     2.747545725813     0.178178127505     1.007825032230
         H           -0.311142075860    -1.787979274187    -0.543502872495     1.007825032230
         H            2.909627924140    -3.563850274187     0.119407127505     1.007825032230
         H           -2.685910175860    -2.552433374187    -0.156869672495     1.007825032230
         H           -5.029113075860    -1.636520274187    -0.056523872495     1.007825032230
         H           -5.299873075860    -0.012576274187     0.386296127505     1.007825032230

  Basis Set: AUG-CC-PVTZ
    Blend: AUG-CC-PVTZ
  Basis Set: (AUG-CC-PVTZ AUX)
    Blend: AUG-CC-PVTZ-JKFIT
	 Reference Energy          =    -811.4779674418043669 [Eh]
	 Singles Energy            =      -0.0000000000000000 [Eh]
	 Same-Spin Energy          =      -0.8296450532547962 [Eh]
	 Opposite-Spin Energy      =      -2.5255481070209895 [Eh]
	 Correlation Energy        =      -3.3551931602757858 [Eh]
	 Total Energy              =    -814.8331606020801701 [Eh]

	 ================> DF-SCS-MP2 Energies <==================
	-----------------------------------------------------------
	 SCS Same-Spin Scale       =       0.3333333333333333 [-]
	 SCS Opposite-Spin Scale   =       1.2000000000000000 [-]
	 SCS Same-Spin Energy      =      -0.2765483510849320 [Eh]
	 SCS Opposite-Spin Energy  =      -3.0306577284251874 [Eh]
	 SCS Correlation Energy    =      -3.3072060795101192 [Eh]
	 SCS Total Energy          =    -814.7851735213145048 [Eh]
	-----------------------------------------------------------

  Dipole Moment: [D]
     X:     0.9954      Y:    -4.7290      Z:     2.4910     Total:     5.4369

*** Psi4 exiting successfully. Buy a developer a beer!
