                               Psi4 1.3.2 release

  ==> Input File <==

--------------------------------------------------------------------------
#psi4
#
memory 32 gb

molecule  {
0 1
  O        1.3620710    -0.3800110    -0.9318440
  O        3.2020570     1.9012130    -0.2995130
  O        2.7994070    -2.7489470    -0.4002010
  O       -1.3621860     2.3740050     0.1547830
  N       -0.7982440     0.1994180    -0.2292560
  N       -3.0541720     0.8052390     0.2400120
  N       -4.6734100    -0.8124350     0.4126370
  C        2.7015950     0.8755540     0.5594740
  C        1.2368440     1.1072260     0.8878520
  C        2.6518190    -0.3922910    -0.2854700
  C        0.5739580     0.6830040    -0.4149160
  C        2.8020980    -1.6600160     0.5224700
  C       -1.1031049    -1.0189740    -0.3024575
  C       -1.7446880     1.2038920     0.0820450
  C       -2.4173070    -1.5045610    -0.1045420
  C       -3.3619920    -0.4731600     0.1685110
  H        3.3343810     0.7567850     1.4508530
  H        0.9047070     0.4438290     1.6934890
  H        0.9853290     2.1340670     1.1581470
  H        0.5274540     1.5132540    -1.1249130
  H        3.4174920    -0.3642830    -1.0666260
  H        1.9707490    -1.7331840     1.2432230
  H        3.7460890    -1.6095150     1.0882890
  H        3.1038510     2.7463240     0.1779830
  H       -0.3107400    -1.7892010    -0.5436980
  H        2.9100300    -3.5650720     0.1192120
  H       -2.7034680    -2.5490840    -0.1532500
  H       -5.0287110    -1.6377420    -0.0567190
  H       -5.2994710    -0.0137980     0.3861010
units angstrom
no_reorient  #important for SAPT in psi4, default
symmetry c1  #important for SAPT in psi4, default
}

set PROPERTIES_ORIGIN ["COM"]
properties('MP2/aug-cc-pvtz', properties = ['dipole'])
--------------------------------------------------------------------------

    Molecular point group: c1
  Charge       = 0
  Multiplicity = 1
  Basis Set: AUG-CC-PVTZ
    Blend: AUG-CC-PVTZ
  Basis Set: (AUG-CC-PVTZ AUX)
    Blend: AUG-CC-PVTZ-JKFIT

    Orbital Energies [Eh]
    ---------------------

    Doubly Occupied:

       1A    -20.579320     2A    -20.577812     3A    -20.577493
       4A    -20.507124     5A    -15.633305     6A    -15.581253
       7A    -15.536650     8A    -11.373455     9A    -11.338198
      10A    -11.336803    11A    -11.319453    12A    -11.304880
      13A    -11.299090    14A    -11.296558    15A    -11.242681
      16A    -11.229803    17A     -1.425735    18A     -1.391566
      19A     -1.375985    20A     -1.368980    21A     -1.309079
      22A     -1.270166    23A     -1.167313    24A     -1.081677
      25A     -1.064890    26A     -1.025716    27A     -0.933599
      28A     -0.906778    29A     -0.871754    30A     -0.833911
      31A     -0.808308    32A     -0.755113    33A     -0.748667
      34A     -0.725110    35A     -0.703395    36A     -0.694782
      37A     -0.691660    38A     -0.675393    39A     -0.658621
      40A     -0.638203    41A     -0.636453    42A     -0.619384
      43A     -0.606288    44A     -0.594344    45A     -0.586962
      46A     -0.572164    47A     -0.563584    48A     -0.547071
      49A     -0.533655    50A     -0.529013    51A     -0.512585
      52A     -0.492988    53A     -0.489023    54A     -0.471179
      55A     -0.465367    56A     -0.446756    57A     -0.439597
      58A     -0.415629    59A     -0.383324    60A     -0.322682

  @DF-RHF Final Energy:  -811.46648334698614

   => Energetics <=

    Nuclear Repulsion Energy =           1171.9938015533070939
    One-Electron Energy =               -3438.7439097940568900
    Two-Electron Energy =                1455.2836248937637720
    Total Energy =                       -811.4664833469860241
  Basis Set: (AUG-CC-PVTZ AUX)
    Blend: AUG-CC-PVTZ-RI
    Molecular point group: c1

    Geometry (in Angstrom), charge = 0, multiplicity = 1:

       Center              X                  Y                   Z               Mass
    ------------   -----------------  -----------------  -----------------  -----------------
         O            1.360790503113    -0.385128553891    -0.932151428955    15.994914619570
         O            3.200776503113     1.896095446109    -0.299820428955    15.994914619570
         O            2.798126503113    -2.754064553891    -0.400508428955    15.994914619570
         O           -1.363466496887     2.368887446109     0.154475571045    15.994914619570
         N           -0.799524496887     0.194300446109    -0.229563428955    14.003074004430
         N           -3.055452496887     0.800121446109     0.239704571045    14.003074004430
         N           -4.674690496887    -0.817552553891     0.412329571045    14.003074004430
         C            2.700314503113     0.870436446109     0.559166571045    12.000000000000
         C            1.235563503113     1.102108446109     0.887544571045    12.000000000000
         C            2.650538503113    -0.397408553891    -0.285777428955    12.000000000000
         C            0.572677503113     0.677886446109    -0.415223428955    12.000000000000
         C            2.800817503113    -1.665133553891     0.522162571045    12.000000000000
         C           -1.104385396887    -1.024091553891    -0.302764928955    12.000000000000
         C           -1.745968496887     1.198774446109     0.081737571045    12.000000000000
         C           -2.418587496887    -1.509678553891    -0.104849428955    12.000000000000
         C           -3.363272496887    -0.478277553891     0.168203571045    12.000000000000
         H            3.333100503113     0.751667446109     1.450545571045     1.007825032230
         H            0.903426503113     0.438711446109     1.693181571045     1.007825032230
         H            0.984048503113     2.128949446109     1.157839571045     1.007825032230
         H            0.526173503113     1.508136446109    -1.125220428955     1.007825032230
         H            3.416211503113    -0.369400553891    -1.066933428955     1.007825032230
         H            1.969468503113    -1.738301553891     1.242915571045     1.007825032230
         H            3.744808503113    -1.614632553891     1.087981571045     1.007825032230
         H            3.102570503113     2.741206446109     0.177675571045     1.007825032230
         H           -0.312020496887    -1.794318553891    -0.544005428955     1.007825032230
         H            2.908749503113    -3.570189553891     0.118904571045     1.007825032230
         H           -2.704748496887    -2.554201553891    -0.153557428955     1.007825032230
         H           -5.029991496887    -1.642859553891    -0.057026428955     1.007825032230
         H           -5.300751496887    -0.018915553891     0.385793571045     1.007825032230

  Basis Set: AUG-CC-PVTZ
    Blend: AUG-CC-PVTZ
  Basis Set: (AUG-CC-PVTZ AUX)
    Blend: AUG-CC-PVTZ-JKFIT
	 Reference Energy          =    -811.4664833469861378 [Eh]
	 Singles Energy            =      -0.0000000000000000 [Eh]
	 Same-Spin Energy          =      -0.8304003658076244 [Eh]
	 Opposite-Spin Energy      =      -2.5248115123648711 [Eh]
	 Correlation Energy        =      -3.3552118781724953 [Eh]
	 Total Energy              =    -814.8216952251585781 [Eh]

	 ================> DF-SCS-MP2 Energies <==================
	-----------------------------------------------------------
	 SCS Same-Spin Scale       =       0.3333333333333333 [-]
	 SCS Opposite-Spin Scale   =       1.2000000000000000 [-]
	 SCS Same-Spin Energy      =      -0.2768001219358748 [Eh]
	 SCS Opposite-Spin Energy  =      -3.0297738148378452 [Eh]
	 SCS Correlation Energy    =      -3.3065739367737201 [Eh]
	 SCS Total Energy          =    -814.7730572837598402 [Eh]
	-----------------------------------------------------------

  Dipole Moment: [D]
     X:     1.6152      Y:    -4.4095      Z:     2.4557     Total:     5.2993

*** Psi4 exiting successfully. Buy a developer a beer!
