                               Psi4 1.3.2 release

  ==> Input File <==

--------------------------------------------------------------------------
#psi4
#
memory 32 gb

molecule  {
0 1
  O        1.3620710    -0.3800110    -0.9318440
  O        3.2020570     1.9012130    -0.2995130
  O        2.7994070    -2.7489470    -0.4002010
  O       -1.3621860     2.3740050     0.1547830
  N       -0.7982440     0.1994180    -0.2292560
  N       -3.0541720     0.8052390     0.2400120
  N       -4.6734100    -0.8124350     0.4126370
  C        2.7015950     0.8755540     0.5594740
  C        1.2368440     1.1072260     0.8878520
  C        2.6298646    -0.3865971    -0.2720220
  C        0.5739580     0.6830040    -0.4149160
  C        2.8020980    -1.6600160     0.5224700
  C       -1.1273370    -1.1158190    -0.3082760
  C       -1.7446880     1.2038920     0.0820450
  C       -2.4173070    -1.5045610    -0.1045420
  C       -3.3619920    -0.4731600     0.1685110
  H        3.3343810     0.7567850     1.4508530
  H        0.9047070     0.4438290     1.6934890
  H        0.9853290     2.1340670     1.1581470
  H        0.5274540     1.5132540    -1.1249130
  H        3.4174920    -0.3642830    -1.0666260
  H        1.9637715    -1.7165110     1.2366104
  H        3.7460890    -1.6095150     1.0882890
  H        3.1038510     2.7463240     0.1779830
  H       -0.3107400    -1.7892010    -0.5436980
  H        2.9100300    -3.5650720     0.1192120
  H       -2.7034680    -2.5490840    -0.1532500
  H       -5.0287110    -1.6377420    -0.0567190
  H       -5.2994710    -0.0137980     0.3861010
units angstrom
no_reorient  #important for SAPT in psi4, default
symmetry c1  #important for SAPT in psi4, default
}

set PROPERTIES_ORIGIN ["COM"]
properties('MP2/aug-cc-pvtz', properties = ['dipole'])
--------------------------------------------------------------------------

    Molecular point group: c1
  Charge       = 0
  Multiplicity = 1
  Basis Set: AUG-CC-PVTZ
    Blend: AUG-CC-PVTZ
  Basis Set: (AUG-CC-PVTZ AUX)
    Blend: AUG-CC-PVTZ-JKFIT

    Orbital Energies [Eh]
    ---------------------

    Doubly Occupied:

       1A    -20.578070     2A    -20.574898     3A    -20.574511
       4A    -20.503387     5A    -15.622164     6A    -15.588616
       7A    -15.541113     8A    -11.370237     9A    -11.345355
      10A    -11.331509    11A    -11.318719    12A    -11.300388
      13A    -11.296546    14A    -11.292984    15A    -11.237408
      16A    -11.237143    17A     -1.420793    18A     -1.382925
      19A     -1.373567    20A     -1.366825    21A     -1.292672
      22A     -1.262088    23A     -1.169482    24A     -1.080636
      25A     -1.069892    26A     -1.027911    27A     -0.927518
      28A     -0.897905    29A     -0.869453    30A     -0.832134
      31A     -0.803932    32A     -0.754429    33A     -0.739682
      34A     -0.722018    35A     -0.707196    36A     -0.692436
      37A     -0.689616    38A     -0.675971    39A     -0.657206
      40A     -0.638349    41A     -0.628516    42A     -0.618913
      43A     -0.605270    44A     -0.595328    45A     -0.590008
      46A     -0.573414    47A     -0.566391    48A     -0.545031
      49A     -0.533522    50A     -0.524693    51A     -0.510038
      52A     -0.487184    53A     -0.481619    54A     -0.468806
      55A     -0.460195    56A     -0.444046    57A     -0.437726
      58A     -0.416574    59A     -0.384054    60A     -0.335314

  @DF-RHF Final Energy:  -811.47819815947958

   => Energetics <=

    Nuclear Repulsion Energy =           1170.5131845767648429
    One-Electron Energy =               -3436.0341090587044164
    Two-Electron Energy =                1454.0427263224603394
    Total Energy =                       -811.4781981594794615
  Basis Set: (AUG-CC-PVTZ AUX)
    Blend: AUG-CC-PVTZ-RI
    Molecular point group: c1

    Geometry (in Angstrom), charge = 0, multiplicity = 1:

       Center              X                  Y                   Z               Mass
    ------------   -----------------  -----------------  -----------------  -----------------
         O            1.363262072102    -0.380385910624    -0.932525242992    15.994914619570
         O            3.203248072102     1.900838089376    -0.300194242992    15.994914619570
         O            2.800598072102    -2.749321910624    -0.400882242992    15.994914619570
         O           -1.360994927898     2.373630089376     0.154101757008    15.994914619570
         N           -0.797052927898     0.199043089376    -0.229937242992    14.003074004430
         N           -3.052980927898     0.804864089376     0.239330757008    14.003074004430
         N           -4.672218927898    -0.812809910624     0.411955757008    14.003074004430
         C            2.702786072102     0.875179089376     0.558792757008    12.000000000000
         C            1.238035072102     1.106851089376     0.887170757008    12.000000000000
         C            2.631055672102    -0.386972010624    -0.272703242992    12.000000000000
         C            0.575149072102     0.682629089376    -0.415597242992    12.000000000000
         C            2.803289072102    -1.660390910624     0.521788757008    12.000000000000
         C           -1.126145927898    -1.116193910624    -0.308957242992    12.000000000000
         C           -1.743496927898     1.203517089376     0.081363757008    12.000000000000
         C           -2.416115927898    -1.504935910624    -0.105223242992    12.000000000000
         C           -3.360800927898    -0.473534910624     0.167829757008    12.000000000000
         H            3.335572072102     0.756410089376     1.450171757008     1.007825032230
         H            0.905898072102     0.443454089376     1.692807757008     1.007825032230
         H            0.986520072102     2.133692089376     1.157465757008     1.007825032230
         H            0.528645072102     1.512879089376    -1.125594242992     1.007825032230
         H            3.418683072102    -0.364657910624    -1.067307242992     1.007825032230
         H            1.964962572102    -1.716885910624     1.235929157008     1.007825032230
         H            3.747280072102    -1.609889910624     1.087607757008     1.007825032230
         H            3.105042072102     2.745949089376     0.177301757008     1.007825032230
         H           -0.309548927898    -1.789575910624    -0.544379242992     1.007825032230
         H            2.911221072102    -3.565446910624     0.118530757008     1.007825032230
         H           -2.702276927898    -2.549458910624    -0.153931242992     1.007825032230
         H           -5.027519927898    -1.638116910624    -0.057400242992     1.007825032230
         H           -5.298279927898    -0.014172910624     0.385419757008     1.007825032230

  Basis Set: AUG-CC-PVTZ
    Blend: AUG-CC-PVTZ
  Basis Set: (AUG-CC-PVTZ AUX)
    Blend: AUG-CC-PVTZ-JKFIT
	 Reference Energy          =    -811.4781981594795752 [Eh]
	 Singles Energy            =      -0.0000000000000000 [Eh]
	 Same-Spin Energy          =      -0.8299068276009283 [Eh]
	 Opposite-Spin Energy      =      -2.5253272378636908 [Eh]
	 Correlation Energy        =      -3.3552340654646189 [Eh]
	 Total Energy              =    -814.8334322249442039 [Eh]

	 ================> DF-SCS-MP2 Energies <==================
	-----------------------------------------------------------
	 SCS Same-Spin Scale       =       0.3333333333333333 [-]
	 SCS Opposite-Spin Scale   =       1.2000000000000000 [-]
	 SCS Same-Spin Energy      =      -0.2766356092003094 [Eh]
	 SCS Opposite-Spin Energy  =      -3.0303926854364289 [Eh]
	 SCS Correlation Energy    =      -3.3070282946367384 [Eh]
	 SCS Total Energy          =    -814.7852264541163549 [Eh]
	-----------------------------------------------------------

  Dipole Moment: [D]
     X:     1.0070      Y:    -4.6595      Z:     2.4916     Total:     5.3789

*** Psi4 exiting successfully. Buy a developer a beer!
