                               Psi4 1.3.2 release

  ==> Input File <==

--------------------------------------------------------------------------
#psi4
#
memory 32 gb

molecule  {
0 1
  O        1.3620710    -0.3800110    -0.9318440
  O        3.2020570     1.9012130    -0.2995130
  O        2.7994070    -2.7489470    -0.4002010
  O       -1.3621860     2.3740050     0.1547830
  N       -0.7982440     0.1994180    -0.2292560
  N       -3.0541720     0.8052390     0.2400120
  N       -4.6734100    -0.8124350     0.4126370
  C        2.7015950     0.8755540     0.5594740
  C        1.2368440     1.1072260     0.8878520
  C        2.6518190    -0.3922910    -0.2854700
  C        0.5739580     0.6830040    -0.4149160
  C        2.8020980    -1.6600160     0.5224700
  C       -1.1273370    -1.1158190    -0.3082760
  C       -1.7446880     1.2038920     0.0820450
  C       -2.4173070    -1.5045610    -0.1045420
  C       -3.2957008    -0.5455363     0.1493501
  H        3.3343810     0.7567850     1.4508530
  H        0.9047070     0.4438290     1.6934890
  H        0.9853290     2.1340670     1.1581470
  H        0.5274540     1.5132540    -1.1249130
  H        3.4174920    -0.3642830    -1.0666260
  H        1.9707490    -1.7331840     1.2432230
  H        3.7460890    -1.6095150     1.0882890
  H        3.1038510     2.7463240     0.1779830
  H       -0.3107400    -1.7892010    -0.5436980
  H        2.9100300    -3.5650720     0.1192120
  H       -2.7034680    -2.5490840    -0.1532500
  H       -5.0287110    -1.6377420    -0.0567190
  H       -5.2994710    -0.0137980     0.3861010
units angstrom
no_reorient  #important for SAPT in psi4, default
symmetry c1  #important for SAPT in psi4, default
}

set PROPERTIES_ORIGIN ["COM"]
properties('MP2/aug-cc-pvtz', properties = ['dipole'])
--------------------------------------------------------------------------

    Molecular point group: c1
  Charge       = 0
  Multiplicity = 1
  Basis Set: AUG-CC-PVTZ
    Blend: AUG-CC-PVTZ
  Basis Set: (AUG-CC-PVTZ AUX)
    Blend: AUG-CC-PVTZ-JKFIT

    Orbital Energies [Eh]
    ---------------------

    Doubly Occupied:

       1A    -20.580386     2A    -20.576589     3A    -20.576372
       4A    -20.497544     5A    -15.632056     6A    -15.580088
       7A    -15.541031     8A    -11.363954     9A    -11.341160
      10A    -11.334855    11A    -11.332707    12A    -11.303349
      13A    -11.299586    14A    -11.295890    15A    -11.239767
      16A    -11.234459    17A     -1.420217    18A     -1.381704
      19A     -1.376014    20A     -1.367192    21A     -1.289553
      22A     -1.248193    23A     -1.149847    24A     -1.091159
      25A     -1.076112    26A     -1.035872    27A     -0.935490
      28A     -0.907789    29A     -0.862597    30A     -0.829515
      31A     -0.809916    32A     -0.752317    33A     -0.745241
      34A     -0.723635    35A     -0.704154    36A     -0.695084
      37A     -0.687827    38A     -0.668398    39A     -0.656455
      40A     -0.638862    41A     -0.628999    42A     -0.624938
      43A     -0.605755    44A     -0.598629    45A     -0.586925
      46A     -0.570798    47A     -0.569566    48A     -0.546525
      49A     -0.528031    50A     -0.526509    51A     -0.509442
      52A     -0.488435    53A     -0.483483    54A     -0.471092
      55A     -0.463392    56A     -0.444483    57A     -0.441030
      58A     -0.415537    59A     -0.378462    60A     -0.339634

  @DF-RHF Final Energy:  -811.46129329137875

   => Energetics <=

    Nuclear Repulsion Energy =           1170.3975218262305589
    One-Electron Energy =               -3435.7084289758649902
    Two-Electron Energy =                1453.8496138582559070
    Total Energy =                       -811.4612932913787517
  Basis Set: (AUG-CC-PVTZ AUX)
    Blend: AUG-CC-PVTZ-RI
    Molecular point group: c1

    Geometry (in Angstrom), charge = 0, multiplicity = 1:

       Center              X                  Y                   Z               Mass
    ------------   -----------------  -----------------  -----------------  -----------------
         O            1.358568001667    -0.376186503682    -0.930831458898    15.994914619570
         O            3.198554001667     1.905037496318    -0.298500458898    15.994914619570
         O            2.795904001667    -2.745122503682    -0.399188458898    15.994914619570
         O           -1.365688998333     2.377829496318     0.155795541102    15.994914619570
         N           -0.801746998333     0.203242496318    -0.228243458898    14.003074004430
         N           -3.057674998333     0.809063496318     0.241024541102    14.003074004430
         N           -4.676912998333    -0.808610503682     0.413649541102    14.003074004430
         C            2.698092001667     0.879378496318     0.560486541102    12.000000000000
         C            1.233341001667     1.111050496318     0.888864541102    12.000000000000
         C            2.648316001667    -0.388466503682    -0.284457458898    12.000000000000
         C            0.570455001667     0.686828496318    -0.413903458898    12.000000000000
         C            2.798595001667    -1.656191503682     0.523482541102    12.000000000000
         C           -1.130839998333    -1.111994503682    -0.307263458898    12.000000000000
         C           -1.748190998333     1.207716496318     0.083057541102    12.000000000000
         C           -2.420809998333    -1.500736503682    -0.103529458898    12.000000000000
         C           -3.299203798333    -0.541711803682     0.150362641102    12.000000000000
         H            3.330878001667     0.760609496318     1.451865541102     1.007825032230
         H            0.901204001667     0.447653496318     1.694501541102     1.007825032230
         H            0.981826001667     2.137891496318     1.159159541102     1.007825032230
         H            0.523951001667     1.517078496318    -1.123900458898     1.007825032230
         H            3.413989001667    -0.360458503682    -1.065613458898     1.007825032230
         H            1.967246001667    -1.729359503682     1.244235541102     1.007825032230
         H            3.742586001667    -1.605690503682     1.089301541102     1.007825032230
         H            3.100348001667     2.750148496318     0.178995541102     1.007825032230
         H           -0.314242998333    -1.785376503682    -0.542685458898     1.007825032230
         H            2.906527001667    -3.561247503682     0.120224541102     1.007825032230
         H           -2.706970998333    -2.545259503682    -0.152237458898     1.007825032230
         H           -5.032213998333    -1.633917503682    -0.055706458898     1.007825032230
         H           -5.302973998333    -0.009973503682     0.387113541102     1.007825032230

  Basis Set: AUG-CC-PVTZ
    Blend: AUG-CC-PVTZ
  Basis Set: (AUG-CC-PVTZ AUX)
    Blend: AUG-CC-PVTZ-JKFIT
	 Reference Energy          =    -811.4612932913787517 [Eh]
	 Singles Energy            =      -0.0000000000000000 [Eh]
	 Same-Spin Energy          =      -0.8314718515557357 [Eh]
	 Opposite-Spin Energy      =      -2.5278168656475857 [Eh]
	 Correlation Energy        =      -3.3592887172033215 [Eh]
	 Total Energy              =    -814.8205820085820505 [Eh]

	 ================> DF-SCS-MP2 Energies <==================
	-----------------------------------------------------------
	 SCS Same-Spin Scale       =       0.3333333333333333 [-]
	 SCS Opposite-Spin Scale   =       1.2000000000000000 [-]
	 SCS Same-Spin Energy      =      -0.2771572838519119 [Eh]
	 SCS Opposite-Spin Energy  =      -3.0333802387771027 [Eh]
	 SCS Correlation Energy    =      -3.3105375226290148 [Eh]
	 SCS Total Energy          =    -814.7718308140077852 [Eh]
	-----------------------------------------------------------

  Dipole Moment: [D]
     X:     1.7824      Y:    -4.8700      Z:     2.3691     Total:     5.7014

*** Psi4 exiting successfully. Buy a developer a beer!
