                               Psi4 1.3.2 release

  ==> Input File <==

--------------------------------------------------------------------------
#psi4
#
memory 32 gb

molecule  {
0 1
  O        1.3620710    -0.3800110    -0.9318440
  O        3.2020570     1.9012130    -0.2995130
  O        2.7994070    -2.7489470    -0.4002010
  O       -1.3621860     2.3740050     0.1547830
  N       -0.7982440     0.1994180    -0.2292560
  N       -3.0541720     0.8052390     0.2400120
  N       -4.6734100    -0.8124350     0.4126370
  C        2.7015950     0.8755540     0.5594740
  C        1.2368440     1.1072260     0.8878520
  C        2.6518190    -0.3922910    -0.2854700
  C        0.5739580     0.6830040    -0.4149160
  C        2.8006100    -1.6520612     0.5130021
  C       -1.1273370    -1.1158190    -0.3082760
  C       -1.7446880     1.2038920     0.0820450
  C       -2.4173070    -1.5045610    -0.1045420
  C       -3.3619920    -0.4731600     0.1685110
  H        3.3343810     0.7567850     1.4508530
  H        0.9047070     0.4438290     1.6934890
  H        0.9853290     2.1340670     1.1581470
  H        0.5274540     1.5132540    -1.1249130
  H        3.4174920    -0.3642830    -1.0666260
  H        1.9707490    -1.7331840     1.2432230
  H        3.7460890    -1.6095150     1.0882890
  H        3.1038510     2.7463240     0.1779830
  H       -0.3107400    -1.7892010    -0.5436980
  H        2.9097116    -3.5696303     0.1120481
  H       -2.7034680    -2.5490840    -0.1532500
  H       -5.0287110    -1.6377420    -0.0567190
  H       -5.2994710    -0.0137980     0.3861010
units angstrom
no_reorient  #important for SAPT in psi4, default
symmetry c1  #important for SAPT in psi4, default
}

set PROPERTIES_ORIGIN ["COM"]
properties('MP2/aug-cc-pvtz', properties = ['dipole'])
--------------------------------------------------------------------------

    Molecular point group: c1
  Charge       = 0
  Multiplicity = 1
  Basis Set: AUG-CC-PVTZ
    Blend: AUG-CC-PVTZ
  Basis Set: (AUG-CC-PVTZ AUX)
    Blend: AUG-CC-PVTZ-JKFIT

    Orbital Energies [Eh]
    ---------------------

    Doubly Occupied:

       1A    -20.577175     2A    -20.574526     3A    -20.572892
       4A    -20.503053     5A    -15.621736     6A    -15.588346
       7A    -15.540789     8A    -11.369898     9A    -11.345025
      10A    -11.330797    11A    -11.318269    12A    -11.301198
      13A    -11.297404    14A    -11.292765    15A    -11.237002
      16A    -11.236853    17A     -1.416897    18A     -1.382444
      19A     -1.373257    20A     -1.365580    21A     -1.292228
      22A     -1.261445    23A     -1.169115    24A     -1.079178
      25A     -1.069873    26A     -1.029033    27A     -0.926850
      28A     -0.897331    29A     -0.868981    30A     -0.830924
      31A     -0.806353    32A     -0.754232    33A     -0.738713
      34A     -0.721557    35A     -0.707075    36A     -0.692994
      37A     -0.689231    38A     -0.675674    39A     -0.656378
      40A     -0.636775    41A     -0.627629    42A     -0.618426
      43A     -0.605311    44A     -0.595263    45A     -0.588713
      46A     -0.572811    47A     -0.568470    48A     -0.543895
      49A     -0.532565    50A     -0.524104    51A     -0.510687
      52A     -0.486233    53A     -0.482090    54A     -0.467165
      55A     -0.461250    56A     -0.444579    57A     -0.438322
      58A     -0.416377    59A     -0.383741    60A     -0.334929

  @DF-RHF Final Energy:  -811.47925009006258

   => Energetics <=

    Nuclear Repulsion Energy =           1170.1551601471983304
    One-Electron Energy =               -3435.3640045387141981
    Two-Electron Energy =                1453.7295943014532895
    Total Energy =                       -811.4792500900625782
  Basis Set: (AUG-CC-PVTZ AUX)
    Blend: AUG-CC-PVTZ-RI
    Molecular point group: c1

    Geometry (in Angstrom), charge = 0, multiplicity = 1:

       Center              X                  Y                   Z               Mass
    ------------   -----------------  -----------------  -----------------  -----------------
         O            1.362151026550    -0.380411157658    -0.931311866451    15.994914619570
         O            3.202137026550     1.900812842342    -0.298980866451    15.994914619570
         O            2.799487026550    -2.749347157658    -0.399668866451    15.994914619570
         O           -1.362105973450     2.373604842342     0.155315133549    15.994914619570
         N           -0.798163973450     0.199017842342    -0.228723866451    14.003074004430
         N           -3.054091973450     0.804838842342     0.240544133549    14.003074004430
         N           -4.673329973450    -0.812835157658     0.413169133549    14.003074004430
         C            2.701675026550     0.875153842342     0.560006133549    12.000000000000
         C            1.236924026550     1.106825842342     0.888384133549    12.000000000000
         C            2.651899026550    -0.392691157658    -0.284937866451    12.000000000000
         C            0.574038026550     0.682603842342    -0.414383866451    12.000000000000
         C            2.800690026550    -1.652461357658     0.513534233549    12.000000000000
         C           -1.127256973450    -1.116219157658    -0.307743866451    12.000000000000
         C           -1.744607973450     1.203491842342     0.082577133549    12.000000000000
         C           -2.417226973450    -1.504961157658    -0.104009866451    12.000000000000
         C           -3.361911973450    -0.473560157658     0.169043133549    12.000000000000
         H            3.334461026550     0.756384842342     1.451385133549     1.007825032230
         H            0.904787026550     0.443428842342     1.694021133549     1.007825032230
         H            0.985409026550     2.133666842342     1.158679133549     1.007825032230
         H            0.527534026550     1.512853842342    -1.124380866451     1.007825032230
         H            3.417572026550    -0.364683157658    -1.066093866451     1.007825032230
         H            1.970829026550    -1.733584157658     1.243755133549     1.007825032230
         H            3.746169026550    -1.609915157658     1.088821133549     1.007825032230
         H            3.103931026550     2.745923842342     0.178515133549     1.007825032230
         H           -0.310659973450    -1.789601157658    -0.543165866451     1.007825032230
         H            2.909791626550    -3.570030457658     0.112580233549     1.007825032230
         H           -2.703387973450    -2.549484157658    -0.152717866451     1.007825032230
         H           -5.028630973450    -1.638142157658    -0.056186866451     1.007825032230
         H           -5.299390973450    -0.014198157658     0.386633133549     1.007825032230

  Basis Set: AUG-CC-PVTZ
    Blend: AUG-CC-PVTZ
  Basis Set: (AUG-CC-PVTZ AUX)
    Blend: AUG-CC-PVTZ-JKFIT
	 Reference Energy          =    -811.4792500900625782 [Eh]
	 Singles Energy            =      -0.0000000000000000 [Eh]
	 Same-Spin Energy          =      -0.8296891875640083 [Eh]
	 Opposite-Spin Energy      =      -2.5251006512578718 [Eh]
	 Correlation Energy        =      -3.3547898388218802 [Eh]
	 Total Energy              =    -814.8340399288844083 [Eh]

	 ================> DF-SCS-MP2 Energies <==================
	-----------------------------------------------------------
	 SCS Same-Spin Scale       =       0.3333333333333333 [-]
	 SCS Opposite-Spin Scale   =       1.2000000000000000 [-]
	 SCS Same-Spin Energy      =      -0.2765630625213361 [Eh]
	 SCS Opposite-Spin Energy  =      -3.0301207815094462 [Eh]
	 SCS Correlation Energy    =      -3.3066838440307822 [Eh]
	 SCS Total Energy          =    -814.7859339340933502 [Eh]
	-----------------------------------------------------------

  Dipole Moment: [D]
     X:     1.0742      Y:    -4.6756      Z:     2.4790     Total:     5.4000

*** Psi4 exiting successfully. Buy a developer a beer!
