                               Psi4 1.3.2 release

  ==> Input File <==

--------------------------------------------------------------------------
#psi4
#
memory 32 gb

molecule  {
0 1
  O        1.3620710    -0.3800110    -0.9318440
  O        3.2020570     1.9012130    -0.2995130
  O        2.7994070    -2.7489470    -0.4002010
  O       -1.3621860     2.3740050     0.1547830
  N       -0.7458430     0.2517618    -0.2300275
  N       -3.0714974     0.8739768     0.2533892
  N       -4.6734100    -0.8124350     0.4126370
  C        2.7015950     0.8755540     0.5594740
  C        1.2368440     1.1072260     0.8878520
  C        2.6518190    -0.3922910    -0.2854700
  C        0.5739580     0.6830040    -0.4149160
  C        2.8020980    -1.6600160     0.5224700
  C       -1.1273370    -1.1158190    -0.3082760
  C       -1.7446880     1.2038920     0.0820450
  C       -2.4173070    -1.5045610    -0.1045420
  C       -3.3619920    -0.4731600     0.1685110
  H        3.3343810     0.7567850     1.4508530
  H        0.9047070     0.4438290     1.6934890
  H        0.9853290     2.1340670     1.1581470
  H        0.5274540     1.5132540    -1.1249130
  H        3.4174920    -0.3642830    -1.0666260
  H        1.9707490    -1.7331840     1.2432230
  H        3.7460890    -1.6095150     1.0882890
  H        3.1038510     2.7463240     0.1779830
  H       -0.3107400    -1.7892010    -0.5436980
  H        2.9100300    -3.5650720     0.1192120
  H       -2.7034680    -2.5490840    -0.1532500
  H       -5.0287110    -1.6377420    -0.0567190
  H       -5.2994710    -0.0137980     0.3861010
units angstrom
no_reorient  #important for SAPT in psi4, default
symmetry c1  #important for SAPT in psi4, default
}

set PROPERTIES_ORIGIN ["COM"]
properties('MP2/aug-cc-pvtz', properties = ['dipole'])
--------------------------------------------------------------------------

    Molecular point group: c1
  Charge       = 0
  Multiplicity = 1
  Basis Set: AUG-CC-PVTZ
    Blend: AUG-CC-PVTZ
  Basis Set: (AUG-CC-PVTZ AUX)
    Blend: AUG-CC-PVTZ-JKFIT

    Orbital Energies [Eh]
    ---------------------

    Doubly Occupied:

       1A    -20.577152     2A    -20.571646     3A    -20.570902
       4A    -20.491531     5A    -15.620687     6A    -15.597722
       7A    -15.550444     8A    -11.362794     9A    -11.358649
      10A    -11.329265    11A    -11.322872    12A    -11.297842
      13A    -11.295828    14A    -11.291286    15A    -11.248515
      16A    -11.232079    17A     -1.416125    18A     -1.377949
      19A     -1.372147    20A     -1.363075    21A     -1.282215
      22A     -1.257955    23A     -1.164771    24A     -1.081195
      25A     -1.069746    26A     -1.026171    27A     -0.928207
      28A     -0.896905    29A     -0.861939    30A     -0.828496
      31A     -0.806028    32A     -0.756137    33A     -0.735673
      34A     -0.719237    35A     -0.709044    36A     -0.692651
      37A     -0.687960    38A     -0.675419    39A     -0.655901
      40A     -0.638247    41A     -0.624506    42A     -0.617190
      43A     -0.604607    44A     -0.595707    45A     -0.583052
      46A     -0.571117    47A     -0.563633    48A     -0.543681
      49A     -0.532100    50A     -0.521463    51A     -0.508372
      52A     -0.482937    53A     -0.475232    54A     -0.467212
      55A     -0.456926    56A     -0.444029    57A     -0.438135
      58A     -0.416626    59A     -0.378337    60A     -0.338843

  @DF-RHF Final Energy:  -811.46317010520499

   => Energetics <=

    Nuclear Repulsion Energy =           1168.5518873726789479
    One-Electron Energy =               -3432.2578899449654273
    Two-Electron Energy =                1452.2428324670818256
    Total Energy =                       -811.4631701052048811
  Basis Set: (AUG-CC-PVTZ AUX)
    Blend: AUG-CC-PVTZ-RI
    Molecular point group: c1

    Geometry (in Angstrom), charge = 0, multiplicity = 1:

       Center              X                  Y                   Z               Mass
    ------------   -----------------  -----------------  -----------------  -----------------
         O            1.359908119530    -0.387477284272    -0.932621270275    15.994914619570
         O            3.199894119530     1.893746715728    -0.300290270275    15.994914619570
         O            2.797244119530    -2.756413284272    -0.400978270275    15.994914619570
         O           -1.364348880470     2.366538715728     0.154005729725    15.994914619570
         N           -0.748005880470     0.244295515728    -0.230804770275    14.003074004430
         N           -3.073660280470     0.866510515728     0.252611929725    14.003074004430
         N           -4.675572880470    -0.819901284272     0.411859729725    14.003074004430
         C            2.699432119530     0.868087715728     0.558696729725    12.000000000000
         C            1.234681119530     1.099759715728     0.887074729725    12.000000000000
         C            2.649656119530    -0.399757284272    -0.286247270275    12.000000000000
         C            0.571795119530     0.675537715728    -0.415693270275    12.000000000000
         C            2.799935119530    -1.667482284272     0.521692729725    12.000000000000
         C           -1.129499880470    -1.123285284272    -0.309053270275    12.000000000000
         C           -1.746850880470     1.196425715728     0.081267729725    12.000000000000
         C           -2.419469880470    -1.512027284272    -0.105319270275    12.000000000000
         C           -3.364154880470    -0.480626284272     0.167733729725    12.000000000000
         H            3.332218119530     0.749318715728     1.450075729725     1.007825032230
         H            0.902544119530     0.436362715728     1.692711729725     1.007825032230
         H            0.983166119530     2.126600715728     1.157369729725     1.007825032230
         H            0.525291119530     1.505787715728    -1.125690270275     1.007825032230
         H            3.415329119530    -0.371749284272    -1.067403270275     1.007825032230
         H            1.968586119530    -1.740650284272     1.242445729725     1.007825032230
         H            3.743926119530    -1.616981284272     1.087511729725     1.007825032230
         H            3.101688119530     2.738857715728     0.177205729725     1.007825032230
         H           -0.312902880470    -1.796667284272    -0.544475270275     1.007825032230
         H            2.907867119530    -3.572538284272     0.118434729725     1.007825032230
         H           -2.705630880470    -2.556550284272    -0.154027270275     1.007825032230
         H           -5.030873880470    -1.645208284272    -0.057496270275     1.007825032230
         H           -5.301633880470    -0.021264284272     0.385323729725     1.007825032230

  Basis Set: AUG-CC-PVTZ
    Blend: AUG-CC-PVTZ
  Basis Set: (AUG-CC-PVTZ AUX)
    Blend: AUG-CC-PVTZ-JKFIT
	 Reference Energy          =    -811.4631701052049948 [Eh]
	 Singles Energy            =      -0.0000000000000000 [Eh]
	 Same-Spin Energy          =      -0.8301633835387681 [Eh]
	 Opposite-Spin Energy      =      -2.5274234392814527 [Eh]
	 Correlation Energy        =      -3.3575868228202208 [Eh]
	 Total Energy              =    -814.8207569280251619 [Eh]

	 ================> DF-SCS-MP2 Energies <==================
	-----------------------------------------------------------
	 SCS Same-Spin Scale       =       0.3333333333333333 [-]
	 SCS Opposite-Spin Scale   =       1.2000000000000000 [-]
	 SCS Same-Spin Energy      =      -0.2767211278462560 [Eh]
	 SCS Opposite-Spin Energy  =      -3.0329081271377434 [Eh]
	 SCS Correlation Energy    =      -3.3096292549839994 [Eh]
	 SCS Total Energy          =    -814.7727993601889693 [Eh]
	-----------------------------------------------------------

  Dipole Moment: [D]
     X:     0.6074      Y:    -5.1308      Z:     2.4940     Total:     5.7371

*** Psi4 exiting successfully. Buy a developer a beer!
