                               Psi4 1.3.2 release

  ==> Input File <==

--------------------------------------------------------------------------
#psi4
#
memory 32 gb

molecule  {
0 1
  O        1.3620710    -0.3800110    -0.9318440
  O        3.2028653     1.8929535    -0.3088137
  O        2.7994070    -2.7489470    -0.4002010
  O       -1.3621860     2.3740050     0.1547830
  N       -0.7982440     0.1994180    -0.2292560
  N       -3.0541720     0.8052390     0.2400120
  N       -4.6734100    -0.8124350     0.4126370
  C        2.7015950     0.8755540     0.5594740
  C        1.2368440     1.1072260     0.8878520
  C        2.6565448    -0.3854751    -0.2958710
  C        0.5739580     0.6830040    -0.4149160
  C        2.8020980    -1.6600160     0.5224700
  C       -1.1273370    -1.1158190    -0.3082760
  C       -1.7446880     1.2038920     0.0820450
  C       -2.4173070    -1.5045610    -0.1045420
  C       -3.3619920    -0.4731600     0.1685110
  H        3.3343810     0.7567850     1.4508530
  H        0.9047070     0.4438290     1.6934890
  H        0.9853290     2.1340670     1.1581470
  H        0.5274540     1.5132540    -1.1249130
  H        3.4174920    -0.3642830    -1.0666260
  H        1.9707490    -1.7331840     1.2432230
  H        3.7460890    -1.6095150     1.0882890
  H        3.1038510     2.7463240     0.1779830
  H       -0.3107400    -1.7892010    -0.5436980
  H        2.9100300    -3.5650720     0.1192120
  H       -2.7034680    -2.5490840    -0.1532500
  H       -5.0287110    -1.6377420    -0.0567190
  H       -5.2994710    -0.0137980     0.3861010
units angstrom
no_reorient  #important for SAPT in psi4, default
symmetry c1  #important for SAPT in psi4, default
}

set PROPERTIES_ORIGIN ["COM"]
properties('MP2/aug-cc-pvtz', properties = ['dipole'])
--------------------------------------------------------------------------

    Molecular point group: c1
  Charge       = 0
  Multiplicity = 1
  Basis Set: AUG-CC-PVTZ
    Blend: AUG-CC-PVTZ
  Basis Set: (AUG-CC-PVTZ AUX)
    Blend: AUG-CC-PVTZ-JKFIT

    Orbital Energies [Eh]
    ---------------------

    Doubly Occupied:

       1A    -20.577236     2A    -20.575652     3A    -20.572728
       4A    -20.503064     5A    -15.621772     6A    -15.588350
       7A    -15.540801     8A    -11.369918     9A    -11.345032
      10A    -11.330776    11A    -11.318268    12A    -11.300503
      13A    -11.296609    14A    -11.292411    15A    -11.237001
      16A    -11.236910    17A     -1.416466    18A     -1.382205
      19A     -1.372507    20A     -1.364628    21A     -1.292226
      22A     -1.261419    23A     -1.169108    24A     -1.078553
      25A     -1.067787    26A     -1.027131    27A     -0.925612
      28A     -0.897400    29A     -0.868812    30A     -0.830527
      31A     -0.807420    32A     -0.754231    33A     -0.738722
      34A     -0.720218    35A     -0.706023    36A     -0.692682
      37A     -0.687578    38A     -0.675696    39A     -0.656401
      40A     -0.636672    41A     -0.627659    42A     -0.618461
      43A     -0.603839    44A     -0.594766    45A     -0.588108
      46A     -0.572820    47A     -0.569914    48A     -0.544768
      49A     -0.532414    50A     -0.523417    51A     -0.510289
      52A     -0.486283    53A     -0.482329    54A     -0.468218
      55A     -0.460798    56A     -0.444434    57A     -0.437018
      58A     -0.416356    59A     -0.383728    60A     -0.334932

  @DF-RHF Final Energy:  -811.47820733951016

   => Energetics <=

    Nuclear Repulsion Energy =           1169.8720535775498774
    One-Electron Energy =               -3434.8253083042277467
    Two-Electron Energy =                1453.4750473871679333
    Total Energy =                       -811.4782073395101634
  Basis Set: (AUG-CC-PVTZ AUX)
    Blend: AUG-CC-PVTZ-RI
    Molecular point group: c1

    Geometry (in Angstrom), charge = 0, multiplicity = 1:

       Center              X                  Y                   Z               Mass
    ------------   -----------------  -----------------  -----------------  -----------------
         O            1.361764329880    -0.379789455022    -0.930639266437    15.994914619570
         O            3.202558629880     1.893175044978    -0.307608966437    15.994914619570
         O            2.799100329880    -2.748725455022    -0.398996266437    15.994914619570
         O           -1.362492670120     2.374226544978     0.155987733563    15.994914619570
         N           -0.798550670120     0.199639544978    -0.228051266437    14.003074004430
         N           -3.054478670120     0.805460544978     0.241216733563    14.003074004430
         N           -4.673716670120    -0.812213455022     0.413841733563    14.003074004430
         C            2.701288329880     0.875775544978     0.560678733563    12.000000000000
         C            1.236537329880     1.107447544978     0.889056733563    12.000000000000
         C            2.656238129880    -0.385253555022    -0.294666266437    12.000000000000
         C            0.573651329880     0.683225544978    -0.413711266437    12.000000000000
         C            2.801791329880    -1.659794455022     0.523674733563    12.000000000000
         C           -1.127643670120    -1.115597455022    -0.307071266437    12.000000000000
         C           -1.744994670120     1.204113544978     0.083249733563    12.000000000000
         C           -2.417613670120    -1.504339455022    -0.103337266437    12.000000000000
         C           -3.362298670120    -0.472938455022     0.169715733563    12.000000000000
         H            3.334074329880     0.757006544978     1.452057733563     1.007825032230
         H            0.904400329880     0.444050544978     1.694693733563     1.007825032230
         H            0.985022329880     2.134288544978     1.159351733563     1.007825032230
         H            0.527147329880     1.513475544978    -1.123708266437     1.007825032230
         H            3.417185329880    -0.364061455022    -1.065421266437     1.007825032230
         H            1.970442329880    -1.732962455022     1.244427733563     1.007825032230
         H            3.745782329880    -1.609293455022     1.089493733563     1.007825032230
         H            3.103544329880     2.746545544978     0.179187733563     1.007825032230
         H           -0.311046670120    -1.788979455022    -0.542493266437     1.007825032230
         H            2.909723329880    -3.564850455022     0.120416733563     1.007825032230
         H           -2.703774670120    -2.548862455022    -0.152045266437     1.007825032230
         H           -5.029017670120    -1.637520455022    -0.055514266437     1.007825032230
         H           -5.299777670120    -0.013576455022     0.387305733563     1.007825032230

  Basis Set: AUG-CC-PVTZ
    Blend: AUG-CC-PVTZ
  Basis Set: (AUG-CC-PVTZ AUX)
    Blend: AUG-CC-PVTZ-JKFIT
	 Reference Energy          =    -811.4782073395101634 [Eh]
	 Singles Energy            =      -0.0000000000000000 [Eh]
	 Same-Spin Energy          =      -0.8297477210520444 [Eh]
	 Opposite-Spin Energy      =      -2.5255337108454130 [Eh]
	 Correlation Energy        =      -3.3552814318974575 [Eh]
	 Total Energy              =    -814.8334887714075876 [Eh]

	 ================> DF-SCS-MP2 Energies <==================
	-----------------------------------------------------------
	 SCS Same-Spin Scale       =       0.3333333333333333 [-]
	 SCS Opposite-Spin Scale   =       1.2000000000000000 [-]
	 SCS Same-Spin Energy      =      -0.2765825736840148 [Eh]
	 SCS Opposite-Spin Energy  =      -3.0306404530144957 [Eh]
	 SCS Correlation Energy    =      -3.3072230266985105 [Eh]
	 SCS Total Energy          =    -814.7854303662086295 [Eh]
	-----------------------------------------------------------

  Dipole Moment: [D]
     X:     1.0758      Y:    -4.6539      Z:     2.4853     Total:     5.3845

*** Psi4 exiting successfully. Buy a developer a beer!
