                               Psi4 1.3.2 release

  ==> Input File <==

--------------------------------------------------------------------------
#psi4
#
memory 32 gb

molecule  {
0 1
  O        1.3620710    -0.3800110    -0.9318440
  O        3.2020570     1.9012130    -0.2995130
  O        2.7994070    -2.7489470    -0.4002010
  O       -1.3621860     2.3740050     0.1547830
  N       -0.7982440     0.1994180    -0.2292560
  N       -3.0541720     0.8052390     0.2400120
  N       -4.6734100    -0.8124350     0.4126370
  C        2.7015950     0.8755540     0.5594740
  C        1.2368440     1.1072260     0.8878520
  C        2.6518190    -0.3922910    -0.2854700
  C        0.5739580     0.6830040    -0.4149160
  C        2.8020980    -1.6600160     0.5224700
  C       -1.0821789    -1.1256293    -0.3188410
  C       -1.7088178     1.2376288     0.0783252
  C       -2.4173070    -1.5045610    -0.1045420
  C       -3.3619920    -0.4731600     0.1685110
  H        3.3343810     0.7567850     1.4508530
  H        0.9047070     0.4438290     1.6934890
  H        0.9853290     2.1340670     1.1581470
  H        0.5274540     1.5132540    -1.1249130
  H        3.4174920    -0.3642830    -1.0666260
  H        1.9707490    -1.7331840     1.2432230
  H        3.7460890    -1.6095150     1.0882890
  H        3.1038510     2.7463240     0.1779830
  H       -0.3107400    -1.7892010    -0.5436980
  H        2.9100300    -3.5650720     0.1192120
  H       -2.7034680    -2.5490840    -0.1532500
  H       -5.0287110    -1.6377420    -0.0567190
  H       -5.2994710    -0.0137980     0.3861010
units angstrom
no_reorient  #important for SAPT in psi4, default
symmetry c1  #important for SAPT in psi4, default
}

set PROPERTIES_ORIGIN ["COM"]
properties('MP2/aug-cc-pvtz', properties = ['dipole'])
--------------------------------------------------------------------------

    Molecular point group: c1
  Charge       = 0
  Multiplicity = 1
  Basis Set: AUG-CC-PVTZ
    Blend: AUG-CC-PVTZ
  Basis Set: (AUG-CC-PVTZ AUX)
    Blend: AUG-CC-PVTZ-JKFIT

    Orbital Energies [Eh]
    ---------------------

    Doubly Occupied:

       1A    -20.578408     2A    -20.575790     3A    -20.573827
       4A    -20.516102     5A    -15.622070     6A    -15.582385
       7A    -15.536175     8A    -11.372543     9A    -11.337680
      10A    -11.330557    11A    -11.320448    12A    -11.302332
      13A    -11.297675    14A    -11.294102    15A    -11.238749
      16A    -11.237161    17A     -1.421299    18A     -1.402479
      19A     -1.374555    20A     -1.368793    21A     -1.295153
      22A     -1.259381    23A     -1.156266    24A     -1.078636
      25A     -1.063271    26A     -1.025228    27A     -0.925888
      28A     -0.902737    29A     -0.864819    30A     -0.825947
      31A     -0.806734    32A     -0.748978    33A     -0.740018
      34A     -0.722124    35A     -0.707958    36A     -0.693809
      37A     -0.690118    38A     -0.677180    39A     -0.658064
      40A     -0.636715    41A     -0.628979    42A     -0.626620
      43A     -0.610119    44A     -0.595691    45A     -0.591554
      46A     -0.569753    47A     -0.568092    48A     -0.545844
      49A     -0.533019    50A     -0.525188    51A     -0.515511
      52A     -0.487650    53A     -0.486869    54A     -0.469350
      55A     -0.463952    56A     -0.452578    57A     -0.438784
      58A     -0.409585    59A     -0.379467    60A     -0.328047

  @DF-RHF Final Energy:  -811.47152181825140

   => Energetics <=

    Nuclear Repulsion Energy =           1169.8147685502967761
    One-Electron Energy =               -3434.5949733062388987
    Two-Electron Energy =                1453.3086829376907190
    Total Energy =                       -811.4715218182514036
  Basis Set: (AUG-CC-PVTZ AUX)
    Blend: AUG-CC-PVTZ-RI
    Molecular point group: c1

    Geometry (in Angstrom), charge = 0, multiplicity = 1:

       Center              X                  Y                   Z               Mass
    ------------   -----------------  -----------------  -----------------  -----------------
         O            1.357789258754    -0.381275369404    -0.931089123453    15.994914619570
         O            3.197775258754     1.899948630596    -0.298758123453    15.994914619570
         O            2.795125258754    -2.750211369404    -0.399446123453    15.994914619570
         O           -1.366467741246     2.372740630596     0.155537876547    15.994914619570
         N           -0.802525741246     0.198153630596    -0.228501123453    14.003074004430
         N           -3.058453741246     0.803974630596     0.240766876547    14.003074004430
         N           -4.677691741246    -0.813699369404     0.413391876547    14.003074004430
         C            2.697313258754     0.874289630596     0.560228876547    12.000000000000
         C            1.232562258754     1.105961630596     0.888606876547    12.000000000000
         C            2.647537258754    -0.393555369404    -0.284715123453    12.000000000000
         C            0.569676258754     0.681739630596    -0.414161123453    12.000000000000
         C            2.797816258754    -1.661280369404     0.523224876547    12.000000000000
         C           -1.086460641246    -1.126893669404    -0.318086123453    12.000000000000
         C           -1.713099541246     1.236364430596     0.079080076547    12.000000000000
         C           -2.421588741246    -1.505825369404    -0.103787123453    12.000000000000
         C           -3.366273741246    -0.474424369404     0.169265876547    12.000000000000
         H            3.330099258754     0.755520630596     1.451607876547     1.007825032230
         H            0.900425258754     0.442564630596     1.694243876547     1.007825032230
         H            0.981047258754     2.132802630596     1.158901876547     1.007825032230
         H            0.523172258754     1.511989630596    -1.124158123453     1.007825032230
         H            3.413210258754    -0.365547369404    -1.065871123453     1.007825032230
         H            1.966467258754    -1.734448369404     1.243977876547     1.007825032230
         H            3.741807258754    -1.610779369404     1.089043876547     1.007825032230
         H            3.099569258754     2.745059630596     0.178737876547     1.007825032230
         H           -0.315021741246    -1.790465369404    -0.542943123453     1.007825032230
         H            2.905748258754    -3.566336369404     0.119966876547     1.007825032230
         H           -2.707749741246    -2.550348369404    -0.152495123453     1.007825032230
         H           -5.032992741246    -1.639006369404    -0.055964123453     1.007825032230
         H           -5.303752741246    -0.015062369404     0.386855876547     1.007825032230

  Basis Set: AUG-CC-PVTZ
    Blend: AUG-CC-PVTZ
  Basis Set: (AUG-CC-PVTZ AUX)
    Blend: AUG-CC-PVTZ-JKFIT
	 Reference Energy          =    -811.4715218182514036 [Eh]
	 Singles Energy            =      -0.0000000000000000 [Eh]
	 Same-Spin Energy          =      -0.8295523468184616 [Eh]
	 Opposite-Spin Energy      =      -2.5255972282896608 [Eh]
	 Correlation Energy        =      -3.3551495751081224 [Eh]
	 Total Energy              =    -814.8266713933595611 [Eh]

	 ================> DF-SCS-MP2 Energies <==================
	-----------------------------------------------------------
	 SCS Same-Spin Scale       =       0.3333333333333333 [-]
	 SCS Opposite-Spin Scale   =       1.2000000000000000 [-]
	 SCS Same-Spin Energy      =      -0.2765174489394872 [Eh]
	 SCS Opposite-Spin Energy  =      -3.0307166739475928 [Eh]
	 SCS Correlation Energy    =      -3.3072341228870799 [Eh]
	 SCS Total Energy          =    -814.7787559411384564 [Eh]
	-----------------------------------------------------------

  Dipole Moment: [D]
     X:     1.4170      Y:    -4.2556      Z:     2.4809     Total:     5.1257

*** Psi4 exiting successfully. Buy a developer a beer!
