                               Psi4 1.3.2 release

  ==> Input File <==

--------------------------------------------------------------------------
#psi4
#
memory 32 gb

molecule  {
0 1
  O        1.3620710    -0.3800110    -0.9318440
  O        3.2020570     1.9012130    -0.2995130
  O        2.7994070    -2.7489470    -0.4002010
  O       -1.3621860     2.3740050     0.1547830
  N       -0.7982440     0.1994180    -0.2292560
  N       -3.0541720     0.8052390     0.2400120
  N       -4.6734100    -0.8124350     0.4126370
  C        2.7015950     0.8755540     0.5594740
  C        1.2368440     1.1072260     0.8878520
  C        2.6518190    -0.3922910    -0.2854700
  C        0.5739580     0.6830040    -0.4149160
  C        2.8020980    -1.6600160     0.5224700
  C       -1.1273370    -1.1158190    -0.3082760
  C       -1.6777916     1.1328939     0.0600417
  C       -2.4173070    -1.5045610    -0.1045420
  C       -3.3619920    -0.4731600     0.1685110
  H        3.3343810     0.7567850     1.4508530
  H        0.9047070     0.4438290     1.6934890
  H        0.9853290     2.1340670     1.1581470
  H        0.5274540     1.5132540    -1.1249130
  H        3.4174920    -0.3642830    -1.0666260
  H        1.9707490    -1.7331840     1.2432230
  H        3.7460890    -1.6095150     1.0882890
  H        3.1038510     2.7463240     0.1779830
  H       -0.3107400    -1.7892010    -0.5436980
  H        2.9100300    -3.5650720     0.1192120
  H       -2.7034680    -2.5490840    -0.1532500
  H       -5.0287110    -1.6377420    -0.0567190
  H       -5.2994710    -0.0137980     0.3861010
units angstrom
no_reorient  #important for SAPT in psi4, default
symmetry c1  #important for SAPT in psi4, default
}

set PROPERTIES_ORIGIN ["COM"]
properties('MP2/aug-cc-pvtz', properties = ['dipole'])
--------------------------------------------------------------------------

    Molecular point group: c1
  Charge       = 0
  Multiplicity = 1
  Basis Set: AUG-CC-PVTZ
    Blend: AUG-CC-PVTZ
  Basis Set: (AUG-CC-PVTZ AUX)
    Blend: AUG-CC-PVTZ-JKFIT

    Orbital Energies [Eh]
    ---------------------

    Doubly Occupied:

       1A    -20.579650     2A    -20.576578     3A    -20.575745
       4A    -20.489411     5A    -15.632370     6A    -15.587151
       7A    -15.545963     8A    -11.365076     9A    -11.340654
      10A    -11.336109    11A    -11.322201    12A    -11.302850
      13A    -11.298947    14A    -11.295565    15A    -11.246478
      16A    -11.239267    17A     -1.422328    18A     -1.380789
      19A     -1.375327    20A     -1.363737    21A     -1.278844
      22A     -1.268249    23A     -1.161725    24A     -1.082816
      25A     -1.072484    26A     -1.036866    27A     -0.930810
      28A     -0.919176    29A     -0.869516    30A     -0.828280
      31A     -0.809775    32A     -0.757158    33A     -0.745179
      34A     -0.724253    35A     -0.707136    36A     -0.695748
      37A     -0.691292    38A     -0.676402    39A     -0.659555
      40A     -0.640127    41A     -0.634511    42A     -0.618783
      43A     -0.604048    44A     -0.597431    45A     -0.583934
      46A     -0.571328    47A     -0.561648    48A     -0.546128
      49A     -0.535445    50A     -0.525412    51A     -0.510341
      52A     -0.488227    53A     -0.471365    54A     -0.467602
      55A     -0.461195    56A     -0.443743    57A     -0.436165
      58A     -0.412727    59A     -0.383069    60A     -0.337982

  @DF-RHF Final Energy:  -811.46371639796985

   => Energetics <=

    Nuclear Repulsion Energy =           1171.2225642012062963
    One-Electron Energy =               -3437.3272198117547305
    Two-Electron Energy =                1454.6409392125785871
    Total Energy =                       -811.4637163979698471
  Basis Set: (AUG-CC-PVTZ AUX)
    Blend: AUG-CC-PVTZ-RI
    Molecular point group: c1

    Geometry (in Angstrom), charge = 0, multiplicity = 1:

       Center              X                  Y                   Z               Mass
    ------------   -----------------  -----------------  -----------------  -----------------
         O            1.358536021481    -0.376259331001    -0.930681259818    15.994914619570
         O            3.198522021481     1.904964668999    -0.298350259818    15.994914619570
         O            2.795872021481    -2.745195331001    -0.399038259818    15.994914619570
         O           -1.365720978519     2.377756668999     0.155945740182    15.994914619570
         N           -0.801778978519     0.203169668999    -0.228093259818    14.003074004430
         N           -3.057706978519     0.808990668999     0.241174740182    14.003074004430
         N           -4.676944978519    -0.808683331001     0.413799740182    14.003074004430
         C            2.698060021481     0.879305668999     0.560636740182    12.000000000000
         C            1.233309021481     1.110977668999     0.889014740182    12.000000000000
         C            2.648284021481    -0.388539331001    -0.284307259818    12.000000000000
         C            0.570423021481     0.686755668999    -0.413753259818    12.000000000000
         C            2.798563021481    -1.656264331001     0.523632740182    12.000000000000
         C           -1.130871978519    -1.112067331001    -0.307113259818    12.000000000000
         C           -1.681326578519     1.136645568999     0.061204440182    12.000000000000
         C           -2.420841978519    -1.500809331001    -0.103379259818    12.000000000000
         C           -3.365526978519    -0.469408331001     0.169673740182    12.000000000000
         H            3.330846021481     0.760536668999     1.452015740182     1.007825032230
         H            0.901172021481     0.447580668999     1.694651740182     1.007825032230
         H            0.981794021481     2.137818668999     1.159309740182     1.007825032230
         H            0.523919021481     1.517005668999    -1.123750259818     1.007825032230
         H            3.413957021481    -0.360531331001    -1.065463259818     1.007825032230
         H            1.967214021481    -1.729432331001     1.244385740182     1.007825032230
         H            3.742554021481    -1.605763331001     1.089451740182     1.007825032230
         H            3.100316021481     2.750075668999     0.179145740182     1.007825032230
         H           -0.314274978519    -1.785449331001    -0.542535259818     1.007825032230
         H            2.906495021481    -3.561320331001     0.120374740182     1.007825032230
         H           -2.707002978519    -2.545332331001    -0.152087259818     1.007825032230
         H           -5.032245978519    -1.633990331001    -0.055556259818     1.007825032230
         H           -5.303005978519    -0.010046331001     0.387263740182     1.007825032230

  Basis Set: AUG-CC-PVTZ
    Blend: AUG-CC-PVTZ
  Basis Set: (AUG-CC-PVTZ AUX)
    Blend: AUG-CC-PVTZ-JKFIT
	 Reference Energy          =    -811.4637163979698471 [Eh]
	 Singles Energy            =      -0.0000000000000000 [Eh]
	 Same-Spin Energy          =      -0.8306044279648643 [Eh]
	 Opposite-Spin Energy      =      -2.5278792831966532 [Eh]
	 Correlation Energy        =      -3.3584837111615178 [Eh]
	 Total Energy              =    -814.8222001091313587 [Eh]

	 ================> DF-SCS-MP2 Energies <==================
	-----------------------------------------------------------
	 SCS Same-Spin Scale       =       0.3333333333333333 [-]
	 SCS Opposite-Spin Scale   =       1.2000000000000000 [-]
	 SCS Same-Spin Energy      =      -0.2768681426549547 [Eh]
	 SCS Opposite-Spin Energy  =      -3.0334551398359837 [Eh]
	 SCS Correlation Energy    =      -3.3103232824909385 [Eh]
	 SCS Total Energy          =    -814.7740396804607599 [Eh]
	-----------------------------------------------------------

  Dipole Moment: [D]
     X:     1.3129      Y:    -5.2176      Z:     2.4023     Total:     5.8922

*** Psi4 exiting successfully. Buy a developer a beer!
