                               Psi4 1.3.2 release

  ==> Input File <==

--------------------------------------------------------------------------
#psi4
#
memory 32 gb

molecule  {
0 1
  O        1.3477588    -0.4470589    -0.9001468
  O        3.2020570     1.9012130    -0.2995130
  O        2.7994070    -2.7489470    -0.4002010
  O       -1.3621860     2.3740050     0.1547830
  N       -0.7982440     0.1994180    -0.2292560
  N       -3.0541720     0.8052390     0.2400120
  N       -4.6734100    -0.8124350     0.4126370
  C        2.7015950     0.8755540     0.5594740
  C        1.2368440     1.1072260     0.8878520
  C        2.6518190    -0.3922910    -0.2854700
  C        0.5739580     0.6830040    -0.4149160
  C        2.7296555    -1.6812064     0.4988234
  C       -1.1273370    -1.1158190    -0.3082760
  C       -1.7446880     1.2038920     0.0820450
  C       -2.4173070    -1.5045610    -0.1045420
  C       -3.3619920    -0.4731600     0.1685110
  H        3.3343810     0.7567850     1.4508530
  H        0.9047070     0.4438290     1.6934890
  H        0.9853290     2.1340670     1.1581470
  H        0.5274540     1.5132540    -1.1249130
  H        3.4174920    -0.3642830    -1.0666260
  H        1.9707490    -1.7331840     1.2432230
  H        3.7460890    -1.6095150     1.0882890
  H        3.1038510     2.7463240     0.1779830
  H       -0.3107400    -1.7892010    -0.5436980
  H        2.9100300    -3.5650720     0.1192120
  H       -2.7034680    -2.5490840    -0.1532500
  H       -5.0287110    -1.6377420    -0.0567190
  H       -5.2994710    -0.0137980     0.3861010
units angstrom
no_reorient  #important for SAPT in psi4, default
symmetry c1  #important for SAPT in psi4, default
}

set PROPERTIES_ORIGIN ["COM"]
properties('MP2/aug-cc-pvtz', properties = ['dipole'])
--------------------------------------------------------------------------

    Molecular point group: c1
  Charge       = 0
  Multiplicity = 1
  Basis Set: AUG-CC-PVTZ
    Blend: AUG-CC-PVTZ
  Basis Set: (AUG-CC-PVTZ AUX)
    Blend: AUG-CC-PVTZ-JKFIT

    Orbital Energies [Eh]
    ---------------------

    Doubly Occupied:

       1A    -20.579380     2A    -20.575360     3A    -20.572634
       4A    -20.503870     5A    -15.622323     6A    -15.588534
       7A    -15.541009     8A    -11.370370     9A    -11.345217
      10A    -11.334377    11A    -11.317779    12A    -11.301841
      13A    -11.296455    14A    -11.291486    15A    -11.238124
      16A    -11.236935    17A     -1.412486    18A     -1.385660
      19A     -1.379597    20A     -1.365694    21A     -1.292499
      22A     -1.261649    23A     -1.169445    24A     -1.080310
      25A     -1.066479    26A     -1.026401    27A     -0.924722
      28A     -0.897151    29A     -0.870400    30A     -0.830637
      31A     -0.805864    32A     -0.754026    33A     -0.738285
      34A     -0.726891    35A     -0.707433    36A     -0.692334
      37A     -0.688537    38A     -0.674945    39A     -0.656730
      40A     -0.635985    41A     -0.627663    42A     -0.617941
      43A     -0.607007    44A     -0.596708    45A     -0.587610
      46A     -0.573289    47A     -0.567544    48A     -0.544889
      49A     -0.533785    50A     -0.524048    51A     -0.510495
      52A     -0.487342    53A     -0.482258    54A     -0.463118
      55A     -0.462067    56A     -0.443420    57A     -0.433407
      58A     -0.417199    59A     -0.384278    60A     -0.335369

  @DF-RHF Final Energy:  -811.46900657219624

   => Energetics <=

    Nuclear Repulsion Energy =           1170.7246953895682964
    One-Electron Energy =               -3436.4688195636585988
    Two-Electron Energy =                1454.2751176018941806
    Total Energy =                       -811.4690065721961219
  Basis Set: (AUG-CC-PVTZ AUX)
    Blend: AUG-CC-PVTZ-RI
    Molecular point group: c1

    Geometry (in Angstrom), charge = 0, multiplicity = 1:

       Center              X                  Y                   Z               Mass
    ------------   -----------------  -----------------  -----------------  -----------------
         O            1.352594882051    -0.441216730454    -0.901129786656    15.994914619570
         O            3.206893082051     1.907055169546    -0.300495986656    15.994914619570
         O            2.804243082051    -2.743104830454    -0.401183986656    15.994914619570
         O           -1.357349917949     2.379847169546     0.153800013344    15.994914619570
         N           -0.793407917949     0.205260169546    -0.230238986656    14.003074004430
         N           -3.049335917949     0.811081169546     0.239029013344    14.003074004430
         N           -4.668573917949    -0.806592830454     0.411654013344    14.003074004430
         C            2.706431082051     0.881396169546     0.558491013344    12.000000000000
         C            1.241680082051     1.113068169546     0.886869013344    12.000000000000
         C            2.656655082051    -0.386448830454    -0.286452986656    12.000000000000
         C            0.578794082051     0.688846169546    -0.415898986656    12.000000000000
         C            2.734491582051    -1.675364230454     0.497840413344    12.000000000000
         C           -1.122500917949    -1.109976830454    -0.309258986656    12.000000000000
         C           -1.739851917949     1.209734169546     0.081062013344    12.000000000000
         C           -2.412470917949    -1.498718830454    -0.105524986656    12.000000000000
         C           -3.357155917949    -0.467317830454     0.167528013344    12.000000000000
         H            3.339217082051     0.762627169546     1.449870013344     1.007825032230
         H            0.909543082051     0.449671169546     1.692506013344     1.007825032230
         H            0.990165082051     2.139909169546     1.157164013344     1.007825032230
         H            0.532290082051     1.519096169546    -1.125895986656     1.007825032230
         H            3.422328082051    -0.358440830454    -1.067608986656     1.007825032230
         H            1.975585082051    -1.727341830454     1.242240013344     1.007825032230
         H            3.750925082051    -1.603672830454     1.087306013344     1.007825032230
         H            3.108687082051     2.752166169546     0.177000013344     1.007825032230
         H           -0.305903917949    -1.783358830454    -0.544680986656     1.007825032230
         H            2.914866082051    -3.559229830454     0.118229013344     1.007825032230
         H           -2.698631917949    -2.543241830454    -0.154232986656     1.007825032230
         H           -5.023874917949    -1.631899830454    -0.057701986656     1.007825032230
         H           -5.294634917949    -0.007955830454     0.385118013344     1.007825032230

  Basis Set: AUG-CC-PVTZ
    Blend: AUG-CC-PVTZ
  Basis Set: (AUG-CC-PVTZ AUX)
    Blend: AUG-CC-PVTZ-JKFIT
	 Reference Energy          =    -811.4690065721962355 [Eh]
	 Singles Energy            =      -0.0000000000000000 [Eh]
	 Same-Spin Energy          =      -0.8301705897076426 [Eh]
	 Opposite-Spin Energy      =      -2.5262489623381517 [Eh]
	 Correlation Energy        =      -3.3564195520457942 [Eh]
	 Total Energy              =    -814.8254261242420853 [Eh]

	 ================> DF-SCS-MP2 Energies <==================
	-----------------------------------------------------------
	 SCS Same-Spin Scale       =       0.3333333333333333 [-]
	 SCS Opposite-Spin Scale   =       1.2000000000000000 [-]
	 SCS Same-Spin Energy      =      -0.2767235299025475 [Eh]
	 SCS Opposite-Spin Energy  =      -3.0314987548057819 [Eh]
	 SCS Correlation Energy    =      -3.3082222847083296 [Eh]
	 SCS Total Energy          =    -814.7772288569045713 [Eh]
	-----------------------------------------------------------

  Dipole Moment: [D]
     X:     0.9160      Y:    -4.6103      Z:     2.3545     Total:     5.2571

*** Psi4 exiting successfully. Buy a developer a beer!
