                               Psi4 1.3.2 release

  ==> Input File <==

--------------------------------------------------------------------------
#psi4
#
memory 32 gb

molecule  {
0 1
  O        1.3620710    -0.3800110    -0.9318440
  O        3.2020570     1.9012130    -0.2995130
  O        2.7994070    -2.7489470    -0.4002010
  O       -1.3621860     2.3740050     0.1547830
  N       -0.7709615     0.1468724    -0.1803572
  N       -3.0541720     0.8052390     0.2400120
  N       -4.6734100    -0.8124350     0.4126370
  C        2.7015950     0.8755540     0.5594740
  C        1.2368440     1.1072260     0.8878520
  C        2.6518190    -0.3922910    -0.2854700
  C        0.5739580     0.6830040    -0.4149160
  C        2.8020980    -1.6600160     0.5224700
  C       -1.1273370    -1.1158190    -0.3082760
  C       -1.7446880     1.2038920     0.0820450
  C       -2.4173070    -1.5045610    -0.1045420
  C       -3.3619920    -0.4731600     0.1685110
  H        3.3343810     0.7567850     1.4508530
  H        0.9047070     0.4438290     1.6934890
  H        0.9853290     2.1340670     1.1581470
  H        0.5842537     1.5185446    -1.1201389
  H        3.4174920    -0.3642830    -1.0666260
  H        1.9707490    -1.7331840     1.2432230
  H        3.7460890    -1.6095150     1.0882890
  H        3.1038510     2.7463240     0.1779830
  H       -0.3107400    -1.7892010    -0.5436980
  H        2.9100300    -3.5650720     0.1192120
  H       -2.7034680    -2.5490840    -0.1532500
  H       -5.0287110    -1.6377420    -0.0567190
  H       -5.2994710    -0.0137980     0.3861010
units angstrom
no_reorient  #important for SAPT in psi4, default
symmetry c1  #important for SAPT in psi4, default
}

set PROPERTIES_ORIGIN ["COM"]
properties('MP2/aug-cc-pvtz', properties = ['dipole'])
--------------------------------------------------------------------------

    Molecular point group: c1
  Charge       = 0
  Multiplicity = 1
  Basis Set: AUG-CC-PVTZ
    Blend: AUG-CC-PVTZ
  Basis Set: (AUG-CC-PVTZ AUX)
    Blend: AUG-CC-PVTZ-JKFIT

    Orbital Energies [Eh]
    ---------------------

    Doubly Occupied:

       1A    -20.577315     2A    -20.575044     3A    -20.571444
       4A    -20.510573     5A    -15.624051     6A    -15.587134
       7A    -15.540740     8A    -11.376382     9A    -11.343927
      10A    -11.332493    11A    -11.314530    12A    -11.300931
      13A    -11.296461    14A    -11.292574    15A    -11.236500
      16A    -11.231354    17A     -1.417168    18A     -1.382483
      19A     -1.373587    20A     -1.366129    21A     -1.296134
      22A     -1.265292    23A     -1.169391    24A     -1.079606
      25A     -1.068234    26A     -1.025538    27A     -0.927768
      28A     -0.893761    29A     -0.868249    30A     -0.831855
      31A     -0.805774    32A     -0.753294    33A     -0.743043
      34A     -0.721402    35A     -0.705766    36A     -0.693778
      37A     -0.690063    38A     -0.674667    39A     -0.653212
      40A     -0.636374    41A     -0.627462    42A     -0.618795
      43A     -0.603863    44A     -0.594561    45A     -0.589918
      46A     -0.577014    47A     -0.565906    48A     -0.545274
      49A     -0.531485    50A     -0.525233    51A     -0.510804
      52A     -0.489595    53A     -0.485713    54A     -0.468393
      55A     -0.462035    56A     -0.446624    57A     -0.438012
      58A     -0.415314    59A     -0.384490    60A     -0.331254

  @DF-RHF Final Energy:  -811.47428778050562

   => Energetics <=

    Nuclear Repulsion Energy =           1170.1229136808185558
    One-Electron Energy =               -3435.2628701826288307
    Two-Electron Energy =                1453.6656687213044279
    Total Energy =                       -811.4742877805056196
  Basis Set: (AUG-CC-PVTZ AUX)
    Blend: AUG-CC-PVTZ-RI
    Molecular point group: c1

    Geometry (in Angstrom), charge = 0, multiplicity = 1:

       Center              X                  Y                   Z               Mass
    ------------   -----------------  -----------------  -----------------  -----------------
         O            1.360136588675    -0.376794400575    -0.934880396849    15.994914619570
         O            3.200122588675     1.904429599425    -0.302549396849    15.994914619570
         O            2.797472588675    -2.745730400575    -0.403237396849    15.994914619570
         O           -1.364120411325     2.377221599425     0.151746603151    15.994914619570
         N           -0.772895911325     0.150088999425    -0.183393596849    14.003074004430
         N           -3.056106411325     0.808455599425     0.236975603151    14.003074004430
         N           -4.675344411325    -0.809218400575     0.409600603151    14.003074004430
         C            2.699660588675     0.878770599425     0.556437603151    12.000000000000
         C            1.234909588675     1.110442599425     0.884815603151    12.000000000000
         C            2.649884588675    -0.389074400575    -0.288506396849    12.000000000000
         C            0.572023588675     0.686220599425    -0.417952396849    12.000000000000
         C            2.800163588675    -1.656799400575     0.519433603151    12.000000000000
         C           -1.129271411325    -1.112602400575    -0.311312396849    12.000000000000
         C           -1.746622411325     1.207108599425     0.079008603151    12.000000000000
         C           -2.419241411325    -1.501344400575    -0.107578396849    12.000000000000
         C           -3.363926411325    -0.469943400575     0.165474603151    12.000000000000
         H            3.332446588675     0.760001599425     1.447816603151     1.007825032230
         H            0.902772588675     0.447045599425     1.690452603151     1.007825032230
         H            0.983394588675     2.137283599425     1.155110603151     1.007825032230
         H            0.582319288675     1.521761199425    -1.123175296849     1.007825032230
         H            3.415557588675    -0.361066400575    -1.069662396849     1.007825032230
         H            1.968814588675    -1.729967400575     1.240186603151     1.007825032230
         H            3.744154588675    -1.606298400575     1.085252603151     1.007825032230
         H            3.101916588675     2.749540599425     0.174946603151     1.007825032230
         H           -0.312674411325    -1.785984400575    -0.546734396849     1.007825032230
         H            2.908095588675    -3.561855400575     0.116175603151     1.007825032230
         H           -2.705402411325    -2.545867400575    -0.156286396849     1.007825032230
         H           -5.030645411325    -1.634525400575    -0.059755396849     1.007825032230
         H           -5.301405411325    -0.010581400575     0.383064603151     1.007825032230

  Basis Set: AUG-CC-PVTZ
    Blend: AUG-CC-PVTZ
  Basis Set: (AUG-CC-PVTZ AUX)
    Blend: AUG-CC-PVTZ-JKFIT
	 Reference Energy          =    -811.4742877805056196 [Eh]
	 Singles Energy            =      -0.0000000000000000 [Eh]
	 Same-Spin Energy          =      -0.8301352493601197 [Eh]
	 Opposite-Spin Energy      =      -2.5257928474362981 [Eh]
	 Correlation Energy        =      -3.3559280967964176 [Eh]
	 Total Energy              =    -814.8302158773020665 [Eh]

	 ================> DF-SCS-MP2 Energies <==================
	-----------------------------------------------------------
	 SCS Same-Spin Scale       =       0.3333333333333333 [-]
	 SCS Opposite-Spin Scale   =       1.2000000000000000 [-]
	 SCS Same-Spin Energy      =      -0.2767117497867065 [Eh]
	 SCS Opposite-Spin Energy  =      -3.0309514169235574 [Eh]
	 SCS Correlation Energy    =      -3.3076631667102641 [Eh]
	 SCS Total Energy          =    -814.7819509472159325 [Eh]
	-----------------------------------------------------------

  Dipole Moment: [D]
     X:     1.1424      Y:    -4.4149      Z:     2.4802     Total:     5.1911

*** Psi4 exiting successfully. Buy a developer a beer!
