                               Psi4 1.3.2 release

  ==> Input File <==

--------------------------------------------------------------------------
#psi4
#
memory 32 gb

molecule  {
0 1
  O        1.3620710    -0.3800110    -0.9318440
  O        3.2020570     1.9012130    -0.2995130
  O        2.7994070    -2.7489470    -0.4002010
  O       -1.3621860     2.3740050     0.1547830
  N       -0.7982440     0.1994180    -0.2292560
  N       -3.0541720     0.8052390     0.2400120
  N       -4.6734100    -0.8124350     0.4126370
  C        2.7015950     0.8755540     0.5594740
  C        1.2368440     1.1072260     0.8878520
  C        2.6518190    -0.3922910    -0.2854700
  C        0.5739580     0.6830040    -0.4149160
  C        2.8020980    -1.6600160     0.5224700
  C       -1.1273370    -1.1158190    -0.3082760
  C       -1.7446880     1.2038920     0.0820450
  C       -2.4173070    -1.5045610    -0.1045420
  C       -3.3853670    -0.5702380     0.1630814
  H        3.3343810     0.7567850     1.4508530
  H        0.9047070     0.4438290     1.6934890
  H        0.9853290     2.1340670     1.1581470
  H        0.5274540     1.5132540    -1.1249130
  H        3.4174920    -0.3642830    -1.0666260
  H        1.9707490    -1.7331840     1.2432230
  H        3.7460890    -1.6095150     1.0882890
  H        3.1038510     2.7463240     0.1779830
  H       -0.3107400    -1.7892010    -0.5436980
  H        2.9100300    -3.5650720     0.1192120
  H       -2.7034680    -2.5490840    -0.1532500
  H       -5.0287110    -1.6377420    -0.0567190
  H       -5.2994710    -0.0137980     0.3861010
units angstrom
no_reorient  #important for SAPT in psi4, default
symmetry c1  #important for SAPT in psi4, default
}

set PROPERTIES_ORIGIN ["COM"]
properties('MP2/aug-cc-pvtz', properties = ['dipole'])
--------------------------------------------------------------------------

    Molecular point group: c1
  Charge       = 0
  Multiplicity = 1
  Basis Set: AUG-CC-PVTZ
    Blend: AUG-CC-PVTZ
  Basis Set: (AUG-CC-PVTZ AUX)
    Blend: AUG-CC-PVTZ-JKFIT

    Orbital Energies [Eh]
    ---------------------

    Doubly Occupied:

       1A    -20.578299     2A    -20.573877     3A    -20.573062
       4A    -20.492227     5A    -15.624028     6A    -15.597734
       7A    -15.533912     8A    -11.359303     9A    -11.346941
      10A    -11.330292    11A    -11.327036    12A    -11.300521
      13A    -11.297238    14A    -11.293128    15A    -11.236189
      16A    -11.235503    17A     -1.416295    18A     -1.376264
      19A     -1.373699    20A     -1.363462    21A     -1.291097
      22A     -1.266702    23A     -1.149547    24A     -1.080433
      25A     -1.071265    26A     -1.031118    27A     -0.931372
      28A     -0.901673    29A     -0.860873    30A     -0.829637
      31A     -0.806940    32A     -0.757298    33A     -0.739688
      34A     -0.722045    35A     -0.717047    36A     -0.694228
      37A     -0.689677    38A     -0.672565    39A     -0.656150
      40A     -0.632566    41A     -0.627110    42A     -0.622395
      43A     -0.602477    44A     -0.599249    45A     -0.583090
      46A     -0.569518    47A     -0.568297    48A     -0.545023
      49A     -0.535579    50A     -0.523007    51A     -0.511114
      52A     -0.485646    53A     -0.479331    54A     -0.468824
      55A     -0.460844    56A     -0.441425    57A     -0.428374
      58A     -0.408024    59A     -0.371486    60A     -0.333987

  @DF-RHF Final Energy:  -811.46327246921533

   => Energetics <=

    Nuclear Repulsion Energy =           1169.0679271517556117
    One-Electron Energy =               -3433.2709434872449492
    Two-Electron Energy =                1452.7397438662740115
    Total Energy =                       -811.4632724692153261
  Basis Set: (AUG-CC-PVTZ AUX)
    Blend: AUG-CC-PVTZ-RI
    Molecular point group: c1

    Geometry (in Angstrom), charge = 0, multiplicity = 1:

       Center              X                  Y                   Z               Mass
    ------------   -----------------  -----------------  -----------------  -----------------
         O            1.363306173886    -0.374881207945    -0.931557052981    15.994914619570
         O            3.203292173886     1.906342792055    -0.299226052981    15.994914619570
         O            2.800642173886    -2.743817207945    -0.399914052981    15.994914619570
         O           -1.360950826114     2.379134792055     0.155069947019    15.994914619570
         N           -0.797008826114     0.204547792055    -0.228969052981    14.003074004430
         N           -3.052936826114     0.810368792055     0.240298947019    14.003074004430
         N           -4.672174826114    -0.807305207945     0.412923947019    14.003074004430
         C            2.702830173886     0.880683792055     0.559760947019    12.000000000000
         C            1.238079173886     1.112355792055     0.888138947019    12.000000000000
         C            2.653054173886    -0.387161207945    -0.285183052981    12.000000000000
         C            0.575193173886     0.688133792055    -0.414629052981    12.000000000000
         C            2.803333173886    -1.654886207945     0.522756947019    12.000000000000
         C           -1.126101826114    -1.110689207945    -0.307989052981    12.000000000000
         C           -1.743452826114     1.209021792055     0.082331947019    12.000000000000
         C           -2.416071826114    -1.499431207945    -0.104255052981    12.000000000000
         C           -3.384131826114    -0.565108207945     0.163368347019    12.000000000000
         H            3.335616173886     0.761914792055     1.451139947019     1.007825032230
         H            0.905942173886     0.448958792055     1.693775947019     1.007825032230
         H            0.986564173886     2.139196792055     1.158433947019     1.007825032230
         H            0.528689173886     1.518383792055    -1.124626052981     1.007825032230
         H            3.418727173886    -0.359153207945    -1.066339052981     1.007825032230
         H            1.971984173886    -1.728054207945     1.243509947019     1.007825032230
         H            3.747324173886    -1.604385207945     1.088575947019     1.007825032230
         H            3.105086173886     2.751453792055     0.178269947019     1.007825032230
         H           -0.309504826114    -1.784071207945    -0.543411052981     1.007825032230
         H            2.911265173886    -3.559942207945     0.119498947019     1.007825032230
         H           -2.702232826114    -2.543954207945    -0.152963052981     1.007825032230
         H           -5.027475826114    -1.632612207945    -0.056432052981     1.007825032230
         H           -5.298235826114    -0.008668207945     0.386387947019     1.007825032230

  Basis Set: AUG-CC-PVTZ
    Blend: AUG-CC-PVTZ
  Basis Set: (AUG-CC-PVTZ AUX)
    Blend: AUG-CC-PVTZ-JKFIT
	 Reference Energy          =    -811.4632724692153261 [Eh]
	 Singles Energy            =      -0.0000000000000000 [Eh]
	 Same-Spin Energy          =      -0.8314351152530108 [Eh]
	 Opposite-Spin Energy      =      -2.5274549238351196 [Eh]
	 Correlation Energy        =      -3.3588900390881307 [Eh]
	 Total Energy              =    -814.8221625083034496 [Eh]

	 ================> DF-SCS-MP2 Energies <==================
	-----------------------------------------------------------
	 SCS Same-Spin Scale       =       0.3333333333333333 [-]
	 SCS Opposite-Spin Scale   =       1.2000000000000000 [-]
	 SCS Same-Spin Energy      =      -0.2771450384176702 [Eh]
	 SCS Opposite-Spin Energy  =      -3.0329459086021435 [Eh]
	 SCS Correlation Energy    =      -3.3100909470198139 [Eh]
	 SCS Total Energy          =    -814.7733634162351564 [Eh]
	-----------------------------------------------------------

  Dipole Moment: [D]
     X:     0.8461      Y:    -5.1358      Z:     2.4976     Total:     5.7732

*** Psi4 exiting successfully. Buy a developer a beer!
