                               Psi4 1.3.2 release

  ==> Input File <==

--------------------------------------------------------------------------
#psi4
#
memory 32 gb

molecule  {
0 1
  O        1.3620710    -0.3800110    -0.9318440
  O        3.2020570     1.9012130    -0.2995130
  O        2.7994070    -2.7489470    -0.4002010
  O       -1.3621860     2.3740050     0.1547830
  N       -0.8143470     0.2351938    -0.2621462
  N       -3.0541720     0.8052390     0.2400120
  N       -4.6734100    -0.8124350     0.4126370
  C        2.7015950     0.8755540     0.5594740
  C        1.2368440     1.1072260     0.8878520
  C        2.6518190    -0.3922910    -0.2854700
  C        0.5739580     0.6830040    -0.4149160
  C        2.8020980    -1.6600160     0.5224700
  C       -1.1273370    -1.1158190    -0.3082760
  C       -1.7446880     1.2038920     0.0820450
  C       -2.4173070    -1.5045610    -0.1045420
  C       -3.3619920    -0.4731600     0.1685110
  H        3.3343810     0.7567850     1.4508530
  H        0.9047070     0.4438290     1.6934890
  H        0.9853290     2.1340670     1.1581470
  H        0.4896488     1.5084615    -1.1270152
  H        3.4174920    -0.3642830    -1.0666260
  H        1.9707490    -1.7331840     1.2432230
  H        3.7460890    -1.6095150     1.0882890
  H        3.1038510     2.7463240     0.1779830
  H       -0.3107400    -1.7892010    -0.5436980
  H        2.9100300    -3.5650720     0.1192120
  H       -2.7034680    -2.5490840    -0.1532500
  H       -5.0287110    -1.6377420    -0.0567190
  H       -5.2994710    -0.0137980     0.3861010
units angstrom
no_reorient  #important for SAPT in psi4, default
symmetry c1  #important for SAPT in psi4, default
}

set PROPERTIES_ORIGIN ["COM"]
properties('MP2/aug-cc-pvtz', properties = ['dipole'])
--------------------------------------------------------------------------

    Molecular point group: c1
  Charge       = 0
  Multiplicity = 1
  Basis Set: AUG-CC-PVTZ
    Blend: AUG-CC-PVTZ
  Basis Set: (AUG-CC-PVTZ AUX)
    Blend: AUG-CC-PVTZ-JKFIT

    Orbital Energies [Eh]
    ---------------------

    Doubly Occupied:

       1A    -20.577993     2A    -20.573855     3A    -20.573697
       4A    -20.498096     5A    -15.619941     6A    -15.589375
       7A    -15.540958     8A    -11.365478     9A    -11.345966
      10A    -11.329542    11A    -11.320538    12A    -11.300783
      13A    -11.297084    14A    -11.293358    15A    -11.240994
      16A    -11.236942    17A     -1.416347    18A     -1.382690
      19A     -1.373546    20A     -1.365457    21A     -1.290310
      22A     -1.258309    23A     -1.169044    24A     -1.078642
      25A     -1.069451    26A     -1.029467    27A     -0.926542
      28A     -0.899088    29A     -0.869426    30A     -0.829690
      31A     -0.806675    32A     -0.754777    33A     -0.736290
      34A     -0.720493    35A     -0.707454    36A     -0.692523
      37A     -0.688119    38A     -0.676504    39A     -0.658780
      40A     -0.637826    41A     -0.628116    42A     -0.617761
      43A     -0.605112    44A     -0.595545    45A     -0.588029
      46A     -0.571733    47A     -0.567442    48A     -0.544601
      49A     -0.533341    50A     -0.522351    51A     -0.510113
      52A     -0.485576    53A     -0.477345    54A     -0.468522
      55A     -0.460271    56A     -0.442892    57A     -0.437578
      58A     -0.416340    59A     -0.383388    60A     -0.337572

  @DF-RHF Final Energy:  -811.47723595064861

   => Energetics <=

    Nuclear Repulsion Energy =           1169.7834462725872982
    One-Electron Energy =               -3434.6499993244269717
    Two-Electron Energy =                1453.3893171011911818
    Total Energy =                       -811.4772359506484918
  Basis Set: (AUG-CC-PVTZ AUX)
    Blend: AUG-CC-PVTZ-RI
    Molecular point group: c1

    Geometry (in Angstrom), charge = 0, multiplicity = 1:

       Center              X                  Y                   Z               Mass
    ------------   -----------------  -----------------  -----------------  -----------------
         O            1.363231721346    -0.382195808946    -0.929806529868    15.994914619570
         O            3.203217721346     1.899028191054    -0.297475529868    15.994914619570
         O            2.800567721346    -2.751131808946    -0.398163529868    15.994914619570
         O           -1.361025278654     2.371820191054     0.156820470132    15.994914619570
         N           -0.813186278654     0.233008991054    -0.260108729868    14.003074004430
         N           -3.053011278654     0.803054191054     0.242049470132    14.003074004430
         N           -4.672249278654    -0.814619808946     0.414674470132    14.003074004430
         C            2.702755721346     0.873369191054     0.561511470132    12.000000000000
         C            1.238004721346     1.105041191054     0.889889470132    12.000000000000
         C            2.652979721346    -0.394475808946    -0.283432529868    12.000000000000
         C            0.575118721346     0.680819191054    -0.412878529868    12.000000000000
         C            2.803258721346    -1.662200808946     0.524507470132    12.000000000000
         C           -1.126176278654    -1.118003808946    -0.306238529868    12.000000000000
         C           -1.743527278654     1.201707191054     0.084082470132    12.000000000000
         C           -2.416146278654    -1.506745808946    -0.102504529868    12.000000000000
         C           -3.360831278654    -0.475344808946     0.170548470132    12.000000000000
         H            3.335541721346     0.754600191054     1.452890470132     1.007825032230
         H            0.905867721346     0.441644191054     1.695526470132     1.007825032230
         H            0.986489721346     2.131882191054     1.160184470132     1.007825032230
         H            0.490809521346     1.506276691054    -1.124977729868     1.007825032230
         H            3.418652721346    -0.366467808946    -1.064588529868     1.007825032230
         H            1.971909721346    -1.735368808946     1.245260470132     1.007825032230
         H            3.747249721346    -1.611699808946     1.090326470132     1.007825032230
         H            3.105011721346     2.744139191054     0.180020470132     1.007825032230
         H           -0.309579278654    -1.791385808946    -0.541660529868     1.007825032230
         H            2.911190721346    -3.567256808946     0.121249470132     1.007825032230
         H           -2.702307278654    -2.551268808946    -0.151212529868     1.007825032230
         H           -5.027550278654    -1.639926808946    -0.054681529868     1.007825032230
         H           -5.298310278654    -0.015982808946     0.388138470132     1.007825032230

  Basis Set: AUG-CC-PVTZ
    Blend: AUG-CC-PVTZ
  Basis Set: (AUG-CC-PVTZ AUX)
    Blend: AUG-CC-PVTZ-JKFIT
	 Reference Energy          =    -811.4772359506486055 [Eh]
	 Singles Energy            =      -0.0000000000000000 [Eh]
	 Same-Spin Energy          =      -0.8294760853347949 [Eh]
	 Opposite-Spin Energy      =      -2.5251300546519202 [Eh]
	 Correlation Energy        =      -3.3546061399867151 [Eh]
	 Total Energy              =    -814.8318420906352912 [Eh]

	 ================> DF-SCS-MP2 Energies <==================
	-----------------------------------------------------------
	 SCS Same-Spin Scale       =       0.3333333333333333 [-]
	 SCS Opposite-Spin Scale   =       1.2000000000000000 [-]
	 SCS Same-Spin Energy      =      -0.2764920284449316 [Eh]
	 SCS Opposite-Spin Energy  =      -3.0301560655823043 [Eh]
	 SCS Correlation Energy    =      -3.3066480940272358 [Eh]
	 SCS Total Energy          =    -814.7838840446758013 [Eh]
	-----------------------------------------------------------

  Dipole Moment: [D]
     X:     1.0114      Y:    -4.8536      Z:     2.5011     Total:     5.5530

*** Psi4 exiting successfully. Buy a developer a beer!
