                               Psi4 1.3.2 release

  ==> Input File <==

--------------------------------------------------------------------------
#psi4
#
memory 32 gb

molecule  {
0 1
  O        1.3620710    -0.3800110    -0.9318440
  O        3.2020570     1.9012130    -0.2995130
  O        2.7994070    -2.7489470    -0.4002010
  O       -1.3621860     2.3740050     0.1547830
  N       -0.7982440     0.1994180    -0.2292560
  N       -3.0541720     0.8052390     0.2400120
  N       -4.6734100    -0.8124350     0.4126370
  C        2.7015950     0.8755540     0.5594740
  C        1.2260694     1.0331005     0.9150351
  C        2.6518190    -0.3922910    -0.2854700
  C        0.5739580     0.6830040    -0.4149160
  C        2.8020980    -1.6600160     0.5224700
  C       -1.1273370    -1.1158190    -0.3082760
  C       -1.7446880     1.2038920     0.0820450
  C       -2.4173070    -1.5045610    -0.1045420
  C       -3.3619920    -0.4731600     0.1685110
  H        3.3343810     0.7567850     1.4508530
  H        0.9047070     0.4438290     1.6934890
  H        0.9853290     2.1340670     1.1581470
  H        0.5017209     1.4780906    -1.1620388
  H        3.4174920    -0.3642830    -1.0666260
  H        1.9707490    -1.7331840     1.2432230
  H        3.7460890    -1.6095150     1.0882890
  H        3.1038510     2.7463240     0.1779830
  H       -0.3107400    -1.7892010    -0.5436980
  H        2.9100300    -3.5650720     0.1192120
  H       -2.7034680    -2.5490840    -0.1532500
  H       -5.0287110    -1.6377420    -0.0567190
  H       -5.2994710    -0.0137980     0.3861010
units angstrom
no_reorient  #important for SAPT in psi4, default
symmetry c1  #important for SAPT in psi4, default
}

set PROPERTIES_ORIGIN ["COM"]
properties('MP2/aug-cc-pvtz', properties = ['dipole'])
--------------------------------------------------------------------------

    Molecular point group: c1
  Charge       = 0
  Multiplicity = 1
  Basis Set: AUG-CC-PVTZ
    Blend: AUG-CC-PVTZ
  Basis Set: (AUG-CC-PVTZ AUX)
    Blend: AUG-CC-PVTZ-JKFIT

    Orbital Energies [Eh]
    ---------------------

    Doubly Occupied:

       1A    -20.577533     2A    -20.576840     3A    -20.570997
       4A    -20.502468     5A    -15.620438     6A    -15.588143
       7A    -15.540548     8A    -11.369439     9A    -11.344747
      10A    -11.331485    11A    -11.317836    12A    -11.301344
      13A    -11.296710    14A    -11.291849    15A    -11.237618
      16A    -11.236704    17A     -1.416708    18A     -1.382143
      19A     -1.373625    20A     -1.365830    21A     -1.291876
      22A     -1.261233    23A     -1.168911    24A     -1.079510
      25A     -1.069354    26A     -1.026899    27A     -0.926742
      28A     -0.897475    29A     -0.869240    30A     -0.833259
      31A     -0.804712    32A     -0.754322    33A     -0.738598
      34A     -0.719565    35A     -0.706459    36A     -0.693015
      37A     -0.690449    38A     -0.676687    39A     -0.656083
      40A     -0.639316    41A     -0.630680    42A     -0.618958
      43A     -0.603801    44A     -0.595605    45A     -0.587376
      46A     -0.571494    47A     -0.568325    48A     -0.543640
      49A     -0.537584    50A     -0.517939    51A     -0.509770
      52A     -0.484629    53A     -0.479642    54A     -0.469405
      55A     -0.460632    56A     -0.444310    57A     -0.438182
      58A     -0.415733    59A     -0.383729    60A     -0.334438

  @DF-RHF Final Energy:  -811.47067021810017

   => Energetics <=

    Nuclear Repulsion Energy =           1170.2726132421109924
    One-Electron Energy =               -3435.6014051320144063
    Two-Electron Energy =                1453.8581216718030191
    Total Energy =                       -811.4706702181001674
  Basis Set: (AUG-CC-PVTZ AUX)
    Blend: AUG-CC-PVTZ-RI
    Molecular point group: c1

    Geometry (in Angstrom), charge = 0, multiplicity = 1:

       Center              X                  Y                   Z               Mass
    ------------   -----------------  -----------------  -----------------  -----------------
         O            1.362754542359    -0.375938017161    -0.933115620708    15.994914619570
         O            3.202740542359     1.905285982839    -0.300784620708    15.994914619570
         O            2.800090542359    -2.744874017161    -0.401472620708    15.994914619570
         O           -1.361502457641     2.378077982839     0.153511379292    15.994914619570
         N           -0.797560457641     0.203490982839    -0.230527620708    14.003074004430
         N           -3.053488457641     0.809311982839     0.238740379292    14.003074004430
         N           -4.672726457641    -0.808362017161     0.411365379292    14.003074004430
         C            2.702278542359     0.879626982839     0.558202379292    12.000000000000
         C            1.226752942359     1.037173482839     0.913763479292    12.000000000000
         C            2.652502542359    -0.388218017161    -0.286741620708    12.000000000000
         C            0.574641542359     0.687076982839    -0.416187620708    12.000000000000
         C            2.802781542359    -1.655943017161     0.521198379292    12.000000000000
         C           -1.126653457641    -1.111746017161    -0.309547620708    12.000000000000
         C           -1.744004457641     1.207964982839     0.080773379292    12.000000000000
         C           -2.416623457641    -1.500488017161    -0.105813620708    12.000000000000
         C           -3.361308457641    -0.469087017161     0.167239379292    12.000000000000
         H            3.335064542359     0.760857982839     1.449581379292     1.007825032230
         H            0.905390542359     0.447901982839     1.692217379292     1.007825032230
         H            0.986012542359     2.138139982839     1.156875379292     1.007825032230
         H            0.502404442359     1.482163582839    -1.163310420708     1.007825032230
         H            3.418175542359    -0.360210017161    -1.067897620708     1.007825032230
         H            1.971432542359    -1.729111017161     1.241951379292     1.007825032230
         H            3.746772542359    -1.605442017161     1.087017379292     1.007825032230
         H            3.104534542359     2.750396982839     0.176711379292     1.007825032230
         H           -0.310056457641    -1.785128017161    -0.544969620708     1.007825032230
         H            2.910713542359    -3.560999017161     0.117940379292     1.007825032230
         H           -2.702784457641    -2.545011017161    -0.154521620708     1.007825032230
         H           -5.028027457641    -1.633669017161    -0.057990620708     1.007825032230
         H           -5.298787457641    -0.009725017161     0.384829379292     1.007825032230

  Basis Set: AUG-CC-PVTZ
    Blend: AUG-CC-PVTZ
  Basis Set: (AUG-CC-PVTZ AUX)
    Blend: AUG-CC-PVTZ-JKFIT
	 Reference Energy          =    -811.4706702181001674 [Eh]
	 Singles Energy            =      -0.0000000000000000 [Eh]
	 Same-Spin Energy          =      -0.8300406364421367 [Eh]
	 Opposite-Spin Energy      =      -2.5258556126679421 [Eh]
	 Correlation Energy        =      -3.3558962491100788 [Eh]
	 Total Energy              =    -814.8265664672102275 [Eh]

	 ================> DF-SCS-MP2 Energies <==================
	-----------------------------------------------------------
	 SCS Same-Spin Scale       =       0.3333333333333333 [-]
	 SCS Opposite-Spin Scale   =       1.2000000000000000 [-]
	 SCS Same-Spin Energy      =      -0.2766802121473789 [Eh]
	 SCS Opposite-Spin Energy  =      -3.0310267352015305 [Eh]
	 SCS Correlation Energy    =      -3.3077069473489096 [Eh]
	 SCS Total Energy          =    -814.7783771654491147 [Eh]
	-----------------------------------------------------------

  Dipole Moment: [D]
     X:     1.0930      Y:    -4.6764      Z:     2.4852     Total:     5.4074

*** Psi4 exiting successfully. Buy a developer a beer!
