                               Psi4 1.3.2 release

  ==> Input File <==

--------------------------------------------------------------------------
#psi4
#
memory 32 gb

molecule  {
0 1
  O        1.3620710    -0.3800110    -0.9318440
  O        3.2020570     1.9012130    -0.2995130
  O        2.7994070    -2.7489470    -0.4002010
  O       -1.3621860     2.3740050     0.1547830
  N       -0.7982440     0.1994180    -0.2292560
  N       -3.0541720     0.8052390     0.2400120
  N       -4.6734100    -0.8124350     0.4126370
  C        2.7015950     0.8755540     0.5594740
  C        1.2193006     1.0418811     0.8460716
  C        2.5725288    -0.3927145    -0.2763943
  C        0.5739580     0.6830040    -0.4149160
  C        2.8020980    -1.6600160     0.5224700
  C       -1.1273370    -1.1158190    -0.3082760
  C       -1.7446880     1.2038920     0.0820450
  C       -2.4173070    -1.5045610    -0.1045420
  C       -3.3619920    -0.4731600     0.1685110
  H        3.3343810     0.7567850     1.4508530
  H        0.9047070     0.4438290     1.6934890
  H        0.9853290     2.1340670     1.1581470
  H        0.5274540     1.5132540    -1.1249130
  H        3.4174920    -0.3642830    -1.0666260
  H        1.9707490    -1.7331840     1.2432230
  H        3.7460890    -1.6095150     1.0882890
  H        3.1038510     2.7463240     0.1779830
  H       -0.3107400    -1.7892010    -0.5436980
  H        2.9100300    -3.5650720     0.1192120
  H       -2.7034680    -2.5490840    -0.1532500
  H       -5.0287110    -1.6377420    -0.0567190
  H       -5.2994710    -0.0137980     0.3861010
units angstrom
no_reorient  #important for SAPT in psi4, default
symmetry c1  #important for SAPT in psi4, default
}

set PROPERTIES_ORIGIN ["COM"]
properties('MP2/aug-cc-pvtz', properties = ['dipole'])
--------------------------------------------------------------------------

    Molecular point group: c1
  Charge       = 0
  Multiplicity = 1
  Basis Set: AUG-CC-PVTZ
    Blend: AUG-CC-PVTZ
  Basis Set: (AUG-CC-PVTZ AUX)
    Blend: AUG-CC-PVTZ-JKFIT

    Orbital Energies [Eh]
    ---------------------

    Doubly Occupied:

       1A    -20.579245     2A    -20.575919     3A    -20.574810
       4A    -20.504327     5A    -15.623658     6A    -15.589650
       7A    -15.542309     8A    -11.371543     9A    -11.346621
      10A    -11.332443    11A    -11.320419    12A    -11.299640
      13A    -11.294235    14A    -11.292158    15A    -11.238892
      16A    -11.238324    17A     -1.438736    18A     -1.384626
      19A     -1.372313    20A     -1.368443    21A     -1.294344
      22A     -1.264883    23A     -1.171226    24A     -1.087900
      25A     -1.069152    26A     -1.030181    27A     -0.928894
      28A     -0.899872    29A     -0.868216    30A     -0.834008
      31A     -0.803789    32A     -0.756338    33A     -0.745399
      34A     -0.722648    35A     -0.708219    36A     -0.692781
      37A     -0.689771    38A     -0.677047    39A     -0.659630
      40A     -0.640177    41A     -0.635030    42A     -0.619595
      43A     -0.608209    44A     -0.599692    45A     -0.592372
      46A     -0.576786    47A     -0.563855    48A     -0.543365
      49A     -0.538420    50A     -0.519113    51A     -0.509788
      52A     -0.485776    53A     -0.473968    54A     -0.466979
      55A     -0.459647    56A     -0.441882    57A     -0.436057
      58A     -0.417212    59A     -0.385918    60A     -0.337115

  @DF-RHF Final Energy:  -811.46472748472672

   => Energetics <=

    Nuclear Repulsion Energy =           1173.1214041171444933
    One-Electron Energy =               -3441.0851357173532961
    Two-Electron Energy =                1456.4990041154824212
    Total Energy =                       -811.4647274847266090
  Basis Set: (AUG-CC-PVTZ AUX)
    Blend: AUG-CC-PVTZ-RI
    Molecular point group: c1

    Geometry (in Angstrom), charge = 0, multiplicity = 1:

       Center              X                  Y                   Z               Mass
    ------------   -----------------  -----------------  -----------------  -----------------
         O            1.367187898524    -0.376535680610    -0.930115772754    15.994914619570
         O            3.207173898524     1.904688319390    -0.297784772754    15.994914619570
         O            2.804523898524    -2.745471680610    -0.398472772754    15.994914619570
         O           -1.357069101476     2.377480319390     0.156511227246    15.994914619570
         N           -0.793127101476     0.202893319390    -0.227527772754    14.003074004430
         N           -3.049055101476     0.808714319390     0.241740227246    14.003074004430
         N           -4.668293101476    -0.808959680610     0.414365227246    14.003074004430
         C            2.706711898524     0.879029319390     0.561202227246    12.000000000000
         C            1.224417498524     1.045356419390     0.847799827246    12.000000000000
         C            2.577645698524    -0.389239180610    -0.274666072754    12.000000000000
         C            0.579074898524     0.686479319390    -0.413187772754    12.000000000000
         C            2.807214898524    -1.656540680610     0.524198227246    12.000000000000
         C           -1.122220101476    -1.112343680610    -0.306547772754    12.000000000000
         C           -1.739571101476     1.207367319390     0.083773227246    12.000000000000
         C           -2.412190101476    -1.501085680610    -0.102813772754    12.000000000000
         C           -3.356875101476    -0.469684680610     0.170239227246    12.000000000000
         H            3.339497898524     0.760260319390     1.452581227246     1.007825032230
         H            0.909823898524     0.447304319390     1.695217227246     1.007825032230
         H            0.990445898524     2.137542319390     1.159875227246     1.007825032230
         H            0.532570898524     1.516729319390    -1.123184772754     1.007825032230
         H            3.422608898524    -0.360807680610    -1.064897772754     1.007825032230
         H            1.975865898524    -1.729708680610     1.244951227246     1.007825032230
         H            3.751205898524    -1.606039680610     1.090017227246     1.007825032230
         H            3.108967898524     2.749799319390     0.179711227246     1.007825032230
         H           -0.305623101476    -1.785725680610    -0.541969772754     1.007825032230
         H            2.915146898524    -3.561596680610     0.120940227246     1.007825032230
         H           -2.698351101476    -2.545608680610    -0.151521772754     1.007825032230
         H           -5.023594101476    -1.634266680610    -0.054990772754     1.007825032230
         H           -5.294354101476    -0.010322680610     0.387829227246     1.007825032230

  Basis Set: AUG-CC-PVTZ
    Blend: AUG-CC-PVTZ
  Basis Set: (AUG-CC-PVTZ AUX)
    Blend: AUG-CC-PVTZ-JKFIT
	 Reference Energy          =    -811.4647274847267227 [Eh]
	 Singles Energy            =      -0.0000000000000000 [Eh]
	 Same-Spin Energy          =      -0.8309137666509496 [Eh]
	 Opposite-Spin Energy      =      -2.5260606797617005 [Eh]
	 Correlation Energy        =      -3.3569744464126501 [Eh]
	 Total Energy              =    -814.8217019311393869 [Eh]

	 ================> DF-SCS-MP2 Energies <==================
	-----------------------------------------------------------
	 SCS Same-Spin Scale       =       0.3333333333333333 [-]
	 SCS Opposite-Spin Scale   =       1.2000000000000000 [-]
	 SCS Same-Spin Energy      =      -0.2769712555503165 [Eh]
	 SCS Opposite-Spin Energy  =      -3.0312728157140403 [Eh]
	 SCS Correlation Energy    =      -3.3082440712643568 [Eh]
	 SCS Total Energy          =    -814.7729715559910346 [Eh]
	-----------------------------------------------------------

  Dipole Moment: [D]
     X:     0.7639      Y:    -4.6040      Z:     2.4989     Total:     5.2938

*** Psi4 exiting successfully. Buy a developer a beer!
