                               Psi4 1.3.2 release

  ==> Input File <==

--------------------------------------------------------------------------
#psi4
#
memory 32 gb

molecule  {
0 1
  O        1.3620710    -0.3800110    -0.9318440
  O        3.2020570     1.9012130    -0.2995130
  O        2.7994070    -2.7489470    -0.4002010
  O       -1.3621860     2.3740050     0.1547830
  N       -0.7982440     0.1994180    -0.2292560
  N       -3.0541720     0.8052390     0.2400120
  N       -4.6734100    -0.8124350     0.4126370
  C        2.7015950     0.8755540     0.5594740
  C        1.2368440     1.1072260     0.8878520
  C        2.6518190    -0.3922910    -0.2854700
  C        0.5739580     0.6830040    -0.4149160
  C        2.8020980    -1.6600160     0.5224700
  C       -1.1273370    -1.1158190    -0.3082760
  C       -1.7136708     1.2987769     0.0879434
  C       -2.4173070    -1.5045610    -0.1045420
  C       -3.3619920    -0.4731600     0.1685110
  H        3.3343810     0.7567850     1.4508530
  H        0.9047070     0.4438290     1.6934890
  H        0.9853290     2.1340670     1.1581470
  H        0.5274540     1.5132540    -1.1249130
  H        3.4174920    -0.3642830    -1.0666260
  H        1.9707490    -1.7331840     1.2432230
  H        3.7460890    -1.6095150     1.0882890
  H        3.1038510     2.7463240     0.1779830
  H       -0.3107400    -1.7892010    -0.5436980
  H        2.9100300    -3.5650720     0.1192120
  H       -2.7034680    -2.5490840    -0.1532500
  H       -5.0287110    -1.6377420    -0.0567190
  H       -5.2994710    -0.0137980     0.3861010
units angstrom
no_reorient  #important for SAPT in psi4, default
symmetry c1  #important for SAPT in psi4, default
}

set PROPERTIES_ORIGIN ["COM"]
properties('MP2/aug-cc-pvtz', properties = ['dipole'])
--------------------------------------------------------------------------

    Molecular point group: c1
  Charge       = 0
  Multiplicity = 1
  Basis Set: AUG-CC-PVTZ
    Blend: AUG-CC-PVTZ
  Basis Set: (AUG-CC-PVTZ AUX)
    Blend: AUG-CC-PVTZ-JKFIT

    Orbital Energies [Eh]
    ---------------------

    Doubly Occupied:

       1A    -20.576599     2A    -20.575430     3A    -20.570912
       4A    -20.531810     5A    -15.609768     6A    -15.580309
       7A    -15.531195     8A    -11.373110     9A    -11.335632
      10A    -11.327907    11A    -11.311005    12A    -11.301506
      13A    -11.295881    14A    -11.292225    15A    -11.238097
      16A    -11.227059    17A     -1.451880    18A     -1.411049
      19A     -1.373374    20A     -1.367695    21A     -1.291721
      22A     -1.251576    23A     -1.150099    24A     -1.077705
      25A     -1.064168    26A     -1.022744    27A     -0.922649
      28A     -0.887484    29A     -0.860124    30A     -0.825050
      31A     -0.804312    32A     -0.746994    33A     -0.734202
      34A     -0.720082    35A     -0.705869    36A     -0.691438
      37A     -0.689757    38A     -0.675135    39A     -0.657354
      40A     -0.646310    41A     -0.632156    42A     -0.628646
      43A     -0.605925    44A     -0.595642    45A     -0.589168
      46A     -0.572835    47A     -0.567625    48A     -0.545122
      49A     -0.538713    50A     -0.524227    51A     -0.519965
      52A     -0.490059    53A     -0.485911    54A     -0.472312
      55A     -0.467571    56A     -0.457247    57A     -0.436861
      58A     -0.397374    59A     -0.377052    60A     -0.328578

  @DF-RHF Final Energy:  -811.46505478564859

   => Energetics <=

    Nuclear Repulsion Energy =           1169.6494388522032750
    One-Electron Energy =               -3434.3485698731792581
    Two-Electron Energy =                1453.2340762353273931
    Total Energy =                       -811.4650547856485900
  Basis Set: (AUG-CC-PVTZ AUX)
    Blend: AUG-CC-PVTZ-RI
    Molecular point group: c1

    Geometry (in Angstrom), charge = 0, multiplicity = 1:

       Center              X                  Y                   Z               Mass
    ------------   -----------------  -----------------  -----------------  -----------------
         O            1.360431962523    -0.385024977612    -0.932155651058    15.994914619570
         O            3.200417962523     1.896199022388    -0.299824651058    15.994914619570
         O            2.797767962523    -2.753960977612    -0.400512651058    15.994914619570
         O           -1.363825037477     2.368991022388     0.154471348942    15.994914619570
         N           -0.799883037477     0.194404022388    -0.229567651058    14.003074004430
         N           -3.055811037477     0.800225022388     0.239700348942    14.003074004430
         N           -4.675049037477    -0.817448977612     0.412325348942    14.003074004430
         C            2.699955962523     0.870540022388     0.559162348942    12.000000000000
         C            1.235204962523     1.102212022388     0.887540348942    12.000000000000
         C            2.650179962523    -0.397304977612    -0.285781651058    12.000000000000
         C            0.572318962523     0.677990022388    -0.415227651058    12.000000000000
         C            2.800458962523    -1.665029977612     0.522158348942    12.000000000000
         C           -1.128976037477    -1.120832977612    -0.308587651058    12.000000000000
         C           -1.715309837477     1.293762922388     0.087631748942    12.000000000000
         C           -2.418946037477    -1.509574977612    -0.104853651058    12.000000000000
         C           -3.363631037477    -0.478173977612     0.168199348942    12.000000000000
         H            3.332741962523     0.751771022388     1.450541348942     1.007825032230
         H            0.903067962523     0.438815022388     1.693177348942     1.007825032230
         H            0.983689962523     2.129053022388     1.157835348942     1.007825032230
         H            0.525814962523     1.508240022388    -1.125224651058     1.007825032230
         H            3.415852962523    -0.369296977612    -1.066937651058     1.007825032230
         H            1.969109962523    -1.738197977612     1.242911348942     1.007825032230
         H            3.744449962523    -1.614528977612     1.087977348942     1.007825032230
         H            3.102211962523     2.741310022388     0.177671348942     1.007825032230
         H           -0.312379037477    -1.794214977612    -0.544009651058     1.007825032230
         H            2.908390962523    -3.570085977612     0.118900348942     1.007825032230
         H           -2.705107037477    -2.554097977612    -0.153561651058     1.007825032230
         H           -5.030350037477    -1.642755977612    -0.057030651058     1.007825032230
         H           -5.301110037477    -0.018811977612     0.385789348942     1.007825032230

  Basis Set: AUG-CC-PVTZ
    Blend: AUG-CC-PVTZ
  Basis Set: (AUG-CC-PVTZ AUX)
    Blend: AUG-CC-PVTZ-JKFIT
	 Reference Energy          =    -811.4650547856485900 [Eh]
	 Singles Energy            =      -0.0000000000000000 [Eh]
	 Same-Spin Energy          =      -0.8282186967085947 [Eh]
	 Opposite-Spin Energy      =      -2.5231500398316520 [Eh]
	 Correlation Energy        =      -3.3513687365402465 [Eh]
	 Total Energy              =    -814.8164235221888703 [Eh]

	 ================> DF-SCS-MP2 Energies <==================
	-----------------------------------------------------------
	 SCS Same-Spin Scale       =       0.3333333333333333 [-]
	 SCS Opposite-Spin Scale   =       1.2000000000000000 [-]
	 SCS Same-Spin Energy      =      -0.2760728989028649 [Eh]
	 SCS Opposite-Spin Energy  =      -3.0277800477979824 [Eh]
	 SCS Correlation Energy    =      -3.3038529467008475 [Eh]
	 SCS Total Energy          =    -814.7689077323494757 [Eh]
	-----------------------------------------------------------

  Dipole Moment: [D]
     X:     1.4326      Y:    -3.6501      Z:     2.5452     Total:     4.6748

*** Psi4 exiting successfully. Buy a developer a beer!
