                               Psi4 1.3.2 release

  ==> Input File <==

--------------------------------------------------------------------------
#psi4
#
memory 32 gb

molecule  {
0 1
  O        1.3620710    -0.3800110    -0.9318440
  O        3.2020570     1.9012130    -0.2995130
  O        2.7994070    -2.7489470    -0.4002010
  O       -1.3621860     2.3740050     0.1547830
  N       -0.7982440     0.1994180    -0.2292560
  N       -3.0541720     0.8052390     0.2400120
  N       -4.6734100    -0.8124350     0.4126370
  C        2.7015950     0.8755540     0.5594740
  C        1.2368440     1.1072260     0.8878520
  C        2.6518190    -0.3922910    -0.2854700
  C        0.5739580     0.6830040    -0.4149160
  C        2.8110178    -1.7094643     0.5777769
  C       -1.1273370    -1.1158190    -0.3082760
  C       -1.7446880     1.2038920     0.0820450
  C       -2.4173070    -1.5045610    -0.1045420
  C       -3.3619920    -0.4731600     0.1685110
  H        3.3343810     0.7567850     1.4508530
  H        0.9047070     0.4438290     1.6934890
  H        0.9853290     2.1340670     1.1581470
  H        0.5274540     1.5132540    -1.1249130
  H        3.4174920    -0.3642830    -1.0666260
  H        1.9707490    -1.7331840     1.2432230
  H        3.7460890    -1.6095150     1.0882890
  H        3.1038510     2.7463240     0.1779830
  H       -0.3107400    -1.7892010    -0.5436980
  H        2.9117625    -3.5364296     0.1613457
  H       -2.7034680    -2.5490840    -0.1532500
  H       -5.0287110    -1.6377420    -0.0567190
  H       -5.2994710    -0.0137980     0.3861010
units angstrom
no_reorient  #important for SAPT in psi4, default
symmetry c1  #important for SAPT in psi4, default
}

set PROPERTIES_ORIGIN ["COM"]
properties('MP2/aug-cc-pvtz', properties = ['dipole'])
--------------------------------------------------------------------------

    Molecular point group: c1
  Charge       = 0
  Multiplicity = 1
  Basis Set: AUG-CC-PVTZ
    Blend: AUG-CC-PVTZ
  Basis Set: (AUG-CC-PVTZ AUX)
    Blend: AUG-CC-PVTZ-JKFIT

    Orbital Energies [Eh]
    ---------------------

    Doubly Occupied:

       1A    -20.581214     2A    -20.573290     3A    -20.572922
       4A    -20.502969     5A    -15.621651     6A    -15.588362
       7A    -15.540795     8A    -11.369828     9A    -11.345037
      10A    -11.330420    11A    -11.318332    12A    -11.299001
      13A    -11.294986    14A    -11.294464    15A    -11.237076
      16A    -11.236403    17A     -1.415461    18A     -1.382564
      19A     -1.376214    20A     -1.365906    21A     -1.292165
      22A     -1.261268    23A     -1.169032    24A     -1.078206
      25A     -1.064270    26A     -1.021567    27A     -0.926842
      28A     -0.898219    29A     -0.869058    30A     -0.830080
      31A     -0.806209    32A     -0.754208    33A     -0.738764
      34A     -0.717885    35A     -0.705309    36A     -0.692308
      37A     -0.688582    38A     -0.677158    39A     -0.658505
      40A     -0.639765    41A     -0.627368    42A     -0.618919
      43A     -0.602227    44A     -0.595197    45A     -0.588237
      46A     -0.573010    47A     -0.569416    48A     -0.549058
      49A     -0.532322    50A     -0.521195    51A     -0.508119
      52A     -0.484176    53A     -0.481940    54A     -0.476342
      55A     -0.459005    56A     -0.443681    57A     -0.432782
      58A     -0.415906    59A     -0.383643    60A     -0.334896

  @DF-RHF Final Energy:  -811.47240802731972

   => Energetics <=

    Nuclear Repulsion Energy =           1168.6573665326518494
    One-Electron Energy =               -3432.3920817436114703
    Two-Electron Energy =                1452.2623071836399049
    Total Energy =                       -811.4724080273197160
  Basis Set: (AUG-CC-PVTZ AUX)
    Blend: AUG-CC-PVTZ-RI
    Molecular point group: c1

    Geometry (in Angstrom), charge = 0, multiplicity = 1:

       Center              X                  Y                   Z               Mass
    ------------   -----------------  -----------------  -----------------  -----------------
         O            1.361591952132    -0.377525187537    -0.934953500820    15.994914619570
         O            3.201577952132     1.903698812463    -0.302622500820    15.994914619570
         O            2.798927952132    -2.746461187537    -0.403310500820    15.994914619570
         O           -1.362665047868     2.376490812463     0.151673499180    15.994914619570
         N           -0.798723047868     0.201903812463    -0.232365500820    14.003074004430
         N           -3.054651047868     0.807724812463     0.236902499180    14.003074004430
         N           -4.673889047868    -0.809949187537     0.409527499180    14.003074004430
         C            2.701115952132     0.878039812463     0.556364499180    12.000000000000
         C            1.236364952132     1.109711812463     0.884742499180    12.000000000000
         C            2.651339952132    -0.389805187537    -0.288579500820    12.000000000000
         C            0.573478952132     0.685489812463    -0.418025500820    12.000000000000
         C            2.810538752132    -1.706978487537     0.574667399180    12.000000000000
         C           -1.127816047868    -1.113333187537    -0.311385500820    12.000000000000
         C           -1.745167047868     1.206377812463     0.078935499180    12.000000000000
         C           -2.417786047868    -1.502075187537    -0.107651500820    12.000000000000
         C           -3.362471047868    -0.470674187537     0.165401499180    12.000000000000
         H            3.333901952132     0.759270812463     1.447743499180     1.007825032230
         H            0.904227952132     0.446314812463     1.690379499180     1.007825032230
         H            0.984849952132     2.136552812463     1.155037499180     1.007825032230
         H            0.526974952132     1.515739812463    -1.128022500820     1.007825032230
         H            3.417012952132    -0.361797187537    -1.069735500820     1.007825032230
         H            1.970269952132    -1.730698187537     1.240113499180     1.007825032230
         H            3.745609952132    -1.607029187537     1.085179499180     1.007825032230
         H            3.103371952132     2.748809812463     0.174873499180     1.007825032230
         H           -0.311219047868    -1.786715187537    -0.546807500820     1.007825032230
         H            2.911283452132    -3.533943787537     0.158236199180     1.007825032230
         H           -2.703947047868    -2.546598187537    -0.156359500820     1.007825032230
         H           -5.029190047868    -1.635256187537    -0.059828500820     1.007825032230
         H           -5.299950047868    -0.011312187537     0.382991499180     1.007825032230

  Basis Set: AUG-CC-PVTZ
    Blend: AUG-CC-PVTZ
  Basis Set: (AUG-CC-PVTZ AUX)
    Blend: AUG-CC-PVTZ-JKFIT
	 Reference Energy          =    -811.4724080273197160 [Eh]
	 Singles Energy            =      -0.0000000000000000 [Eh]
	 Same-Spin Energy          =      -0.8297966049544548 [Eh]
	 Opposite-Spin Energy      =      -2.5259901076390814 [Eh]
	 Correlation Energy        =      -3.3557867125935363 [Eh]
	 Total Energy              =    -814.8281947399132150 [Eh]

	 ================> DF-SCS-MP2 Energies <==================
	-----------------------------------------------------------
	 SCS Same-Spin Scale       =       0.3333333333333333 [-]
	 SCS Opposite-Spin Scale   =       1.2000000000000000 [-]
	 SCS Same-Spin Energy      =      -0.2765988683181516 [Eh]
	 SCS Opposite-Spin Energy  =      -3.0311881291668974 [Eh]
	 SCS Correlation Energy    =      -3.3077869974850489 [Eh]
	 SCS Total Energy          =    -814.7801950248048115 [Eh]
	-----------------------------------------------------------

  Dipole Moment: [D]
     X:     1.0756      Y:    -4.6915      Z:     2.5387     Total:     5.4417

*** Psi4 exiting successfully. Buy a developer a beer!
