                               Psi4 1.3.2 release

  ==> Input File <==

--------------------------------------------------------------------------
#psi4
#
memory 32 gb

molecule  {
0 1
  O        1.3509855    -0.3807585    -0.9092482
  O        3.2020570     1.9012130    -0.2995130
  O        2.7994070    -2.7489470    -0.4002010
  O       -1.3621860     2.3740050     0.1547830
  N       -0.7982440     0.1994180    -0.2292560
  N       -3.0541720     0.8052390     0.2400120
  N       -4.6734100    -0.8124350     0.4126370
  C        2.7015950     0.8755540     0.5594740
  C        1.2368440     1.1072260     0.8878520
  C        2.6518190    -0.3922910    -0.2854700
  C        0.5739580     0.6830040    -0.4149160
  C        2.8020980    -1.6600160     0.5224700
  C       -1.1273370    -1.1158190    -0.3082760
  C       -1.7446880     1.2038920     0.0820450
  C       -2.4173070    -1.5045610    -0.1045420
  C       -3.3619920    -0.4731600     0.1685110
  H        3.3343810     0.7567850     1.4508530
  H        0.9047070     0.4438290     1.6934890
  H        0.9853290     2.1340670     1.1581470
  H        0.5274540     1.5132540    -1.1249130
  H        3.4310168    -0.3646148    -1.0531478
  H        1.9707490    -1.7331840     1.2432230
  H        3.7460890    -1.6095150     1.0882890
  H        3.1038510     2.7463240     0.1779830
  H       -0.3107400    -1.7892010    -0.5436980
  H        2.9100300    -3.5650720     0.1192120
  H       -2.7034680    -2.5490840    -0.1532500
  H       -5.0287110    -1.6377420    -0.0567190
  H       -5.2994710    -0.0137980     0.3861010
units angstrom
no_reorient  #important for SAPT in psi4, default
symmetry c1  #important for SAPT in psi4, default
}

set PROPERTIES_ORIGIN ["COM"]
properties('MP2/aug-cc-pvtz', properties = ['dipole'])
--------------------------------------------------------------------------

    Molecular point group: c1
  Charge       = 0
  Multiplicity = 1
  Basis Set: AUG-CC-PVTZ
    Blend: AUG-CC-PVTZ
  Basis Set: (AUG-CC-PVTZ AUX)
    Blend: AUG-CC-PVTZ-JKFIT

    Orbital Energies [Eh]
    ---------------------

    Doubly Occupied:

       1A    -20.577968     2A    -20.574402     3A    -20.573068
       4A    -20.502706     5A    -15.621117     6A    -15.588096
       7A    -15.540447     8A    -11.369475     9A    -11.344709
      10A    -11.329956    11A    -11.317875    12A    -11.300636
      13A    -11.296886    14A    -11.294123    15A    -11.236673
      16A    -11.235913    17A     -1.420580    18A     -1.382213
      19A     -1.373750    20A     -1.366789    21A     -1.291877
      22A     -1.260995    23A     -1.168771    24A     -1.078246
      25A     -1.069639    26A     -1.028441    27A     -0.926678
      28A     -0.897321    29A     -0.868886    30A     -0.831194
      31A     -0.806646    32A     -0.753955    33A     -0.739309
      34A     -0.721598    35A     -0.706695    36A     -0.693468
      37A     -0.689191    38A     -0.676994    39A     -0.657351
      40A     -0.637092    41A     -0.627367    42A     -0.618432
      43A     -0.604175    44A     -0.595405    45A     -0.588920
      46A     -0.573076    47A     -0.571221    48A     -0.544389
      49A     -0.532207    50A     -0.523581    51A     -0.510138
      52A     -0.485585    53A     -0.481672    54A     -0.468622
      55A     -0.461401    56A     -0.444123    57A     -0.437655
      58A     -0.416001    59A     -0.383407    60A     -0.334557

  @DF-RHF Final Energy:  -811.47965355639462

   => Energetics <=

    Nuclear Repulsion Energy =           1170.5514359742910528
    One-Electron Energy =               -3436.1548447100649355
    Two-Electron Energy =                1454.1237551793792591
    Total Energy =                       -811.4796535563946236
  Basis Set: (AUG-CC-PVTZ AUX)
    Blend: AUG-CC-PVTZ-RI
    Molecular point group: c1

    Geometry (in Angstrom), charge = 0, multiplicity = 1:

       Center              X                  Y                   Z               Mass
    ------------   -----------------  -----------------  -----------------  -----------------
         O            1.351706258041    -0.380704415063    -0.910899495901    15.994914619570
         O            3.202777758041     1.901267084937    -0.301164295901    15.994914619570
         O            2.800127758041    -2.748892915063    -0.401852295901    15.994914619570
         O           -1.361465241959     2.374059084937     0.153131704099    15.994914619570
         N           -0.797523241959     0.199472084937    -0.230907295901    14.003074004430
         N           -3.053451241959     0.805293084937     0.238360704099    14.003074004430
         N           -4.672689241959    -0.812380915063     0.410985704099    14.003074004430
         C            2.702315758041     0.875608084937     0.557822704099    12.000000000000
         C            1.237564758041     1.107280084937     0.886200704099    12.000000000000
         C            2.652539758041    -0.392236915063    -0.287121295901    12.000000000000
         C            0.574678758041     0.683058084937    -0.416567295901    12.000000000000
         C            2.802818758041    -1.659961915063     0.520818704099    12.000000000000
         C           -1.126616241959    -1.115764915063    -0.309927295901    12.000000000000
         C           -1.743967241959     1.203946084937     0.080393704099    12.000000000000
         C           -2.416586241959    -1.504506915063    -0.106193295901    12.000000000000
         C           -3.361271241959    -0.473105915063     0.166859704099    12.000000000000
         H            3.335101758041     0.756839084937     1.449201704099     1.007825032230
         H            0.905427758041     0.443883084937     1.691837704099     1.007825032230
         H            0.986049758041     2.134121084937     1.156495704099     1.007825032230
         H            0.528174758041     1.513308084937    -1.126564295901     1.007825032230
         H            3.431737558041    -0.364560715063    -1.054799095901     1.007825032230
         H            1.971469758041    -1.733129915063     1.241571704099     1.007825032230
         H            3.746809758041    -1.609460915063     1.086637704099     1.007825032230
         H            3.104571758041     2.746378084937     0.176331704099     1.007825032230
         H           -0.310019241959    -1.789146915063    -0.545349295901     1.007825032230
         H            2.910750758041    -3.565017915063     0.117560704099     1.007825032230
         H           -2.702747241959    -2.549029915063    -0.154901295901     1.007825032230
         H           -5.027990241959    -1.637687915063    -0.058370295901     1.007825032230
         H           -5.298750241959    -0.013743915063     0.384449704099     1.007825032230

  Basis Set: AUG-CC-PVTZ
    Blend: AUG-CC-PVTZ
  Basis Set: (AUG-CC-PVTZ AUX)
    Blend: AUG-CC-PVTZ-JKFIT
	 Reference Energy          =    -811.4796535563946236 [Eh]
	 Singles Energy            =      -0.0000000000000000 [Eh]
	 Same-Spin Energy          =      -0.8296246618778084 [Eh]
	 Opposite-Spin Energy      =      -2.5247801809681514 [Eh]
	 Correlation Energy        =      -3.3544048428459599 [Eh]
	 Total Energy              =    -814.8340583992405755 [Eh]

	 ================> DF-SCS-MP2 Energies <==================
	-----------------------------------------------------------
	 SCS Same-Spin Scale       =       0.3333333333333333 [-]
	 SCS Opposite-Spin Scale   =       1.2000000000000000 [-]
	 SCS Same-Spin Energy      =      -0.2765415539592694 [Eh]
	 SCS Opposite-Spin Energy  =      -3.0297362171617817 [Eh]
	 SCS Correlation Energy    =      -3.3062777711210511 [Eh]
	 SCS Total Energy          =    -814.7859313275156410 [Eh]
	-----------------------------------------------------------

  Dipole Moment: [D]
     X:     1.1272      Y:    -4.6945      Z:     2.4480     Total:     5.4130

*** Psi4 exiting successfully. Buy a developer a beer!
