                               Psi4 1.4a3.dev225

  ==> Input File <==

--------------------------------------------------------------------------
#psi4
#
memory 32 gb

molecule  {
0 1
  O       -1.4695130     0.3030610    -1.0874480
  O       -3.6436400    -1.4204040    -0.2669360
  O       -1.6911330     2.8536240     0.0000030
  O        1.1857770    -2.4961310     0.0874550
  N        0.6842480    -0.3150290    -0.3399290
  N        2.9133760    -0.9647370     0.2108410
  N        4.5636770     0.6178870     0.3785230
  C       -2.7686820    -0.6858470     0.5863090
  C       -1.3787780    -1.3118450     0.6568060
  C       -2.4925280     0.6283540    -0.1295840
  C       -0.6939390    -0.7805590    -0.6115670
  C       -2.0414120     1.7324860     0.8087370
  C        1.0545030     0.9838330    -0.4888120
  C        1.6080830    -1.3384950     0.0010630
  C        2.3297695     1.3424688    -0.2656060
  C        3.2578570     0.3046130     0.0876290
  H       -3.2188600    -0.5381750     1.5798200
  H       -0.8341690    -0.9801840     1.5464130
  H       -1.3950130    -2.4033150     0.6754970
  H       -0.6263030    -1.5384450    -1.3968420
  H       -3.3591510     0.9641520    -0.7058050
  H       -1.1849610     1.3939850     1.4098140
  H       -2.8667900     1.9743150     1.4948250
  H       -3.6905400    -2.3294490     0.0774600
  H        0.2668220     1.6750250    -0.7707300
  H       -1.4321050     3.5760960     0.5972330
  H        2.6621150     2.3809760    -0.3596430
  H        4.9550500     1.4416620    -0.0591730
  H        5.1797170    -0.1867780     0.4106900
units angstrom
no_reorient  #important for SAPT in psi4, default
symmetry c1  #important for SAPT in psi4, default
}

set PROPERTIES_ORIGIN ["COM"]
properties('MP2/aug-cc-pvtz', properties = ['dipole'])
--------------------------------------------------------------------------

    Molecular point group: c1
  Charge       = 0
  Multiplicity = 1
  Basis Set: AUG-CC-PVTZ
    Blend: AUG-CC-PVTZ
  Basis Set: (AUG-CC-PVTZ AUX)
    Blend: AUG-CC-PVTZ-JKFIT

    Orbital Energies [Eh]
    ---------------------

    Doubly Occupied:

       1A    -20.583116     2A    -20.573696     3A    -20.572212
       4A    -20.501766     5A    -15.616784     6A    -15.590746
       7A    -15.540417     8A    -11.368572     9A    -11.347491
      10A    -11.332240    11A    -11.310252    12A    -11.299780
      13A    -11.298997    14A    -11.294226    15A    -11.236580
      16A    -11.235371    17A     -1.418147    18A     -1.381301
      19A     -1.377146    20A     -1.365647    21A     -1.290584
      22A     -1.258436    23A     -1.169138    24A     -1.076740
      25A     -1.069004    26A     -1.024489    27A     -0.929358
      28A     -0.893398    29A     -0.868123    30A     -0.829966
      31A     -0.804827    32A     -0.754472    33A     -0.737118
      34A     -0.724864    35A     -0.707498    36A     -0.701599
      37A     -0.690200    38A     -0.673233    39A     -0.650890
      40A     -0.640974    41A     -0.622366    42A     -0.615672
      43A     -0.607010    44A     -0.597221    45A     -0.586862
      46A     -0.572360    47A     -0.565384    48A     -0.550904
      49A     -0.526654    50A     -0.519938    51A     -0.510403
      52A     -0.484571    53A     -0.481210    54A     -0.471994
      55A     -0.459165    56A     -0.448040    57A     -0.440341
      58A     -0.413229    59A     -0.382696    60A     -0.335531

  @DF-RHF Final Energy:  -811.47922826670037

   => Energetics <=

    Nuclear Repulsion Energy =           1185.4531301511096899
    One-Electron Energy =               -3466.0028208635458213
    Two-Electron Energy =                1469.0704624457357568
    Total Energy =                       -811.4792282667003747
  Basis Set: (AUG-CC-PVTZ AUX)
    Blend: AUG-CC-PVTZ-RI
    Molecular point group: c1

    Geometry (in Angstrom), charge = 0, multiplicity = 1:

       Center              X                  Y                   Z               Mass
    ------------   -----------------  -----------------  -----------------  -----------------
         O           -1.492969015100     0.327058544954    -1.067645119019    15.994914619570
         O           -3.667096015100    -1.396406455046    -0.247133119019    15.994914619570
         O           -1.714589015100     2.877621544954     0.019805880981    15.994914619570
         O            1.162320984900    -2.472133455046     0.107257880981    15.994914619570
         N            0.660791984900    -0.291031455046    -0.320126119019    14.003074004430
         N            2.889919984900    -0.940739455046     0.230643880981    14.003074004430
         N            4.540220984900     0.641884544954     0.398325880981    14.003074004430
         C           -2.792138015100    -0.661849455046     0.606111880981    12.000000000000
         C           -1.402234015100    -1.287847455046     0.676608880981    12.000000000000
         C           -2.515984015100     0.652351544954    -0.109781119019    12.000000000000
         C           -0.717395015100    -0.756561455046    -0.591764119019    12.000000000000
         C           -2.064868015100     1.756483544954     0.828539880981    12.000000000000
         C            1.031046984900     1.007830544954    -0.469009119019    12.000000000000
         C            1.584626984900    -1.314497455046     0.020865880981    12.000000000000
         C            2.306313484900     1.366466344954    -0.245803119019    12.000000000000
         C            3.234400984900     0.328610544954     0.107431880981    12.000000000000
         H           -3.242316015100    -0.514177455046     1.599622880981     1.007825032230
         H           -0.857625015100    -0.956186455046     1.566215880981     1.007825032230
         H           -1.418469015100    -2.379317455046     0.695299880981     1.007825032230
         H           -0.649759015100    -1.514447455046    -1.377039119019     1.007825032230
         H           -3.382607015100     0.988149544954    -0.686002119019     1.007825032230
         H           -1.208417015100     1.417982544954     1.429616880981     1.007825032230
         H           -2.890246015100     1.998312544954     1.514627880981     1.007825032230
         H           -3.713996015100    -2.305451455046     0.097262880981     1.007825032230
         H            0.243365984900     1.699022544954    -0.750927119019     1.007825032230
         H           -1.455561015100     3.600093544954     0.617035880981     1.007825032230
         H            2.638658984900     2.404973544954    -0.339840119019     1.007825032230
         H            4.931593984900     1.465659544954    -0.039370119019     1.007825032230
         H            5.156260984900    -0.162780455046     0.430492880981     1.007825032230

  Basis Set: AUG-CC-PVTZ
    Blend: AUG-CC-PVTZ
  Basis Set: (AUG-CC-PVTZ AUX)
    Blend: AUG-CC-PVTZ-JKFIT
	 Reference Energy          =    -811.4792282667003747 [Eh]
	 Singles Energy            =      -0.0000000000000000 [Eh]
	 Same-Spin Energy          =      -0.8305712429883241 [Eh]
	 Opposite-Spin Energy      =      -2.5267428454631542 [Eh]
	 Correlation Energy        =      -3.3573140884514783 [Eh]
	 Total Energy              =    -814.8365423551518916 [Eh]

	 ================> DF-SCS-MP2 Energies <==================
	-----------------------------------------------------------
	 SCS Same-Spin Scale       =       0.3333333333333333 [-]
	 SCS Opposite-Spin Scale   =       1.2000000000000000 [-]
	 SCS Same-Spin Energy      =      -0.2768570809961080 [Eh]
	 SCS Opposite-Spin Energy  =      -3.0320914145557851 [Eh]
	 SCS Correlation Energy    =      -3.3089484955518933 [Eh]
	 SCS Total Energy          =    -814.7881767622523057 [Eh]
	-----------------------------------------------------------

  Dipole Moment: [D]
     X:    -0.2449      Y:     4.6031      Z:     2.4187     Total:     5.2057

*** Psi4 exiting successfully. Buy a developer a beer!
