                               Psi4 1.3.2 release

  ==> Input File <==

--------------------------------------------------------------------------
#psi4
#
memory 32 gb

molecule  {
0 1
  O        1.3620710    -0.3800110    -0.9318440
  O        3.2020570     1.9012130    -0.2995130
  O        2.7994070    -2.7489470    -0.4002010
  O       -1.3621860     2.3740050     0.1547830
  N       -0.7982440     0.1994180    -0.2292560
  N       -3.0541720     0.8052390     0.2400120
  N       -4.6734100    -0.8124350     0.4126370
  C        2.7015950     0.8755540     0.5594740
  C        1.2368440     1.1072260     0.8878520
  C        2.6518190    -0.3922910    -0.2854700
  C        0.5739580     0.6830040    -0.4149160
  C        2.8020980    -1.6600160     0.5224700
  C       -1.1273370    -1.1158190    -0.3082760
  C       -1.7446880     1.2038920     0.0820450
  C       -2.4173070    -1.5045610    -0.1045420
  C       -3.3619920    -0.4731600     0.1685110
  H        3.3343810     0.7567850     1.4508530
  H        0.9047070     0.4438290     1.6934890
  H        0.9853290     2.1340670     1.1581470
  H        0.5274540     1.5132540    -1.1249130
  H        3.4174920    -0.3642830    -1.0666260
  H        1.9707490    -1.7331840     1.2432230
  H        3.7460890    -1.6095150     1.0882890
  H        3.1038510     2.7463240     0.1779830
  H       -0.3107400    -1.7892010    -0.5436980
  H        2.8986689    -3.4812549     0.0658676
  H       -2.7034680    -2.5490840    -0.1532500
  H       -5.0287110    -1.6377420    -0.0567190
  H       -5.2994710    -0.0137980     0.3861010
units angstrom
no_reorient  #important for SAPT in psi4, default
symmetry c1  #important for SAPT in psi4, default
}

set PROPERTIES_ORIGIN ["COM"]
properties('MP2/aug-cc-pvtz', properties = ['dipole'])
--------------------------------------------------------------------------

    Molecular point group: c1
  Charge       = 0
  Multiplicity = 1
  Basis Set: AUG-CC-PVTZ
    Blend: AUG-CC-PVTZ
  Basis Set: (AUG-CC-PVTZ AUX)
    Blend: AUG-CC-PVTZ-JKFIT

    Orbital Energies [Eh]
    ---------------------

    Doubly Occupied:

       1A    -20.574653     2A    -20.573331     3A    -20.567804
       4A    -20.503245     5A    -15.621964     6A    -15.588496
       7A    -15.540978     8A    -11.370096     9A    -11.345210
      10A    -11.331062    11A    -11.318517    12A    -11.301182
      13A    -11.298128    14A    -11.293675    15A    -11.237228
      16A    -11.237120    17A     -1.418558    18A     -1.397308
      19A     -1.381462    20A     -1.367895    21A     -1.292435
      22A     -1.261676    23A     -1.169299    24A     -1.079419
      25A     -1.070718    26A     -1.030657    27A     -0.931241
      28A     -0.898483    29A     -0.869987    30A     -0.831184
      31A     -0.806940    32A     -0.754478    33A     -0.740713
      34A     -0.733705    35A     -0.707850    36A     -0.699177
      37A     -0.690031    38A     -0.676413    39A     -0.657529
      40A     -0.638015    41A     -0.627989    42A     -0.619105
      43A     -0.605740    44A     -0.595959    45A     -0.589522
      46A     -0.573173    47A     -0.569980    48A     -0.547831
      49A     -0.532860    50A     -0.525787    51A     -0.511385
      52A     -0.486507    53A     -0.482386    54A     -0.471061
      55A     -0.461922    56A     -0.444863    57A     -0.438465
      58A     -0.416559    59A     -0.383916    60A     -0.335136

  @DF-RHF Final Energy:  -811.47470570543067

   => Energetics <=

    Nuclear Repulsion Energy =           1170.6651651684430817
    One-Electron Energy =               -3436.2237343522501760
    Two-Electron Energy =                1454.0838634783760881
    Total Energy =                       -811.4747057054307788
  Basis Set: (AUG-CC-PVTZ AUX)
    Blend: AUG-CC-PVTZ-RI
    Molecular point group: c1

    Geometry (in Angstrom), charge = 0, multiplicity = 1:

       Center              X                  Y                   Z               Mass
    ------------   -----------------  -----------------  -----------------  -----------------
         O            1.362121404494    -0.380383016205    -0.931607224050    15.994914619570
         O            3.202107404494     1.900840983795    -0.299276224050    15.994914619570
         O            2.799457404494    -2.749319016205    -0.399964224050    15.994914619570
         O           -1.362135595506     2.373632983795     0.155019775950    15.994914619570
         N           -0.798193595506     0.199045983795    -0.229019224050    14.003074004430
         N           -3.054121595506     0.804866983795     0.240248775950    14.003074004430
         N           -4.673359595506    -0.812807016205     0.412873775950    14.003074004430
         C            2.701645404494     0.875181983795     0.559710775950    12.000000000000
         C            1.236894404494     1.106853983795     0.888088775950    12.000000000000
         C            2.651869404494    -0.392663016205    -0.285233224050    12.000000000000
         C            0.574008404494     0.682631983795    -0.414679224050    12.000000000000
         C            2.802148404494    -1.660388016205     0.522706775950    12.000000000000
         C           -1.127286595506    -1.116191016205    -0.308039224050    12.000000000000
         C           -1.744637595506     1.203519983795     0.082281775950    12.000000000000
         C           -2.417256595506    -1.504933016205    -0.104305224050    12.000000000000
         C           -3.361941595506    -0.473532016205     0.168747775950    12.000000000000
         H            3.334431404494     0.756412983795     1.451089775950     1.007825032230
         H            0.904757404494     0.443456983795     1.693725775950     1.007825032230
         H            0.985379404494     2.133694983795     1.158383775950     1.007825032230
         H            0.527504404494     1.512881983795    -1.124676224050     1.007825032230
         H            3.417542404494    -0.364655016205    -1.066389224050     1.007825032230
         H            1.970799404494    -1.733556016205     1.243459775950     1.007825032230
         H            3.746139404494    -1.609887016205     1.088525775950     1.007825032230
         H            3.103901404494     2.745951983795     0.178219775950     1.007825032230
         H           -0.310689595506    -1.789573016205    -0.543461224050     1.007825032230
         H            2.898719304494    -3.481626916205     0.066104375950     1.007825032230
         H           -2.703417595506    -2.549456016205    -0.153013224050     1.007825032230
         H           -5.028660595506    -1.638114016205    -0.056482224050     1.007825032230
         H           -5.299420595506    -0.014170016205     0.386337775950     1.007825032230

  Basis Set: AUG-CC-PVTZ
    Blend: AUG-CC-PVTZ
  Basis Set: (AUG-CC-PVTZ AUX)
    Blend: AUG-CC-PVTZ-JKFIT
	 Reference Energy          =    -811.4747057054306651 [Eh]
	 Singles Energy            =      -0.0000000000000000 [Eh]
	 Same-Spin Energy          =      -0.8284991456715567 [Eh]
	 Opposite-Spin Energy      =      -2.5221604072768127 [Eh]
	 Correlation Energy        =      -3.3506595529483691 [Eh]
	 Total Energy              =    -814.8253652583790654 [Eh]

	 ================> DF-SCS-MP2 Energies <==================
	-----------------------------------------------------------
	 SCS Same-Spin Scale       =       0.3333333333333333 [-]
	 SCS Opposite-Spin Scale   =       1.2000000000000000 [-]
	 SCS Same-Spin Energy      =      -0.2761663818905189 [Eh]
	 SCS Opposite-Spin Energy  =      -3.0265924887321751 [Eh]
	 SCS Correlation Energy    =      -3.3027588706226938 [Eh]
	 SCS Total Energy          =    -814.7774645760533758 [Eh]
	-----------------------------------------------------------

  Dipole Moment: [D]
     X:     1.0559      Y:    -4.5855      Z:     2.4638     Total:     5.3116

*** Psi4 exiting successfully. Buy a developer a beer!
