                               Psi4 1.3.2 release

  ==> Input File <==

--------------------------------------------------------------------------
#psi4
#
memory 32 gb

molecule  {
0 1
  O        1.3620710    -0.3800110    -0.9318440
  O        3.2020570     1.9012130    -0.2995130
  O        2.7994070    -2.7489470    -0.4002010
  O       -1.3621860     2.3740050     0.1547830
  N       -0.7982440     0.1994180    -0.2292560
  N       -3.0541720     0.8052390     0.2400120
  N       -4.6734100    -0.8124350     0.4126370
  C        2.7015950     0.8755540     0.5594740
  C        1.2368440     1.1072260     0.8878520
  C        2.6518190    -0.3922910    -0.2854700
  C        0.5739580     0.6830040    -0.4149160
  C        2.8050733    -1.6761737     0.5411943
  C       -1.1273370    -1.1158190    -0.3082760
  C       -1.7446880     1.2038920     0.0820450
  C       -2.4173070    -1.5045610    -0.1045420
  C       -3.3619920    -0.4731600     0.1685110
  H        3.3343810     0.7567850     1.4508530
  H        0.9047070     0.4438290     1.6934890
  H        0.9853290     2.1340670     1.1581470
  H        0.5274540     1.5132540    -1.1249130
  H        3.4174920    -0.3642830    -1.0666260
  H        1.9707490    -1.7331840     1.2432230
  H        3.7460890    -1.6095150     1.0882890
  H        3.1038510     2.7463240     0.1779830
  H       -0.3107400    -1.7892010    -0.5436980
  H        2.9106414    -3.5557693     0.1334206
  H       -2.7034680    -2.5490840    -0.1532500
  H       -5.0287110    -1.6377420    -0.0567190
  H       -5.2994710    -0.0137980     0.3861010
units angstrom
no_reorient  #important for SAPT in psi4, default
symmetry c1  #important for SAPT in psi4, default
}

set PROPERTIES_ORIGIN ["COM"]
properties('MP2/aug-cc-pvtz', properties = ['dipole'])
--------------------------------------------------------------------------

    Molecular point group: c1
  Charge       = 0
  Multiplicity = 1
  Basis Set: AUG-CC-PVTZ
    Blend: AUG-CC-PVTZ
  Basis Set: (AUG-CC-PVTZ AUX)
    Blend: AUG-CC-PVTZ-JKFIT

    Orbital Energies [Eh]
    ---------------------

    Doubly Occupied:

       1A    -20.578910     2A    -20.573980     3A    -20.572874
       4A    -20.503013     5A    -15.621695     6A    -15.588351
       7A    -15.540790     8A    -11.369864     9A    -11.345028
      10A    -11.330620    11A    -11.318293    12A    -11.300202
      13A    -11.295952    14A    -11.293655    15A    -11.237032
      16A    -11.236656    17A     -1.416217    18A     -1.382403
      19A     -1.374338    20A     -1.365871    21A     -1.292197
      22A     -1.261359    23A     -1.169073    24A     -1.078664
      25A     -1.067181    26A     -1.025805    27A     -0.926723
      28A     -0.897706    29A     -0.868987    30A     -0.830551
      31A     -0.806362    32A     -0.754215    33A     -0.738746
      34A     -0.719824    35A     -0.706256    36A     -0.692571
      37A     -0.689173    38A     -0.676123    39A     -0.657139
      40A     -0.637970    41A     -0.627514    42A     -0.618663
      43A     -0.603452    44A     -0.594947    45A     -0.588467
      46A     -0.572753    47A     -0.569178    48A     -0.546609
      49A     -0.532442    50A     -0.522904    51A     -0.509754
      52A     -0.485176    53A     -0.482043    54A     -0.471319
      55A     -0.460526    56A     -0.444191    57A     -0.436589
      58A     -0.416226    59A     -0.383704    60A     -0.334912

  @DF-RHF Final Energy:  -811.47849684922494

   => Energetics <=

    Nuclear Repulsion Energy =           1169.5089593340958345
    One-Electron Energy =               -3434.0874353444105509
    Two-Electron Energy =                1453.0999791610897773
    Total Energy =                       -811.4784968492249391
  Basis Set: (AUG-CC-PVTZ AUX)
    Blend: AUG-CC-PVTZ-RI
    Molecular point group: c1

    Geometry (in Angstrom), charge = 0, multiplicity = 1:

       Center              X                  Y                   Z               Mass
    ------------   -----------------  -----------------  -----------------  -----------------
         O            1.361911048874    -0.379198511560    -0.932896459257    15.994914619570
         O            3.201897048874     1.902025488440    -0.300565459257    15.994914619570
         O            2.799247048874    -2.748134511560    -0.401253459257    15.994914619570
         O           -1.362345951126     2.374817488440     0.153730540743    15.994914619570
         N           -0.798403951126     0.200230488440    -0.230308459257    14.003074004430
         N           -3.054331951126     0.806051488440     0.238959540743    14.003074004430
         N           -4.673569951126    -0.811622511560     0.411584540743    14.003074004430
         C            2.701435048874     0.876366488440     0.558421540743    12.000000000000
         C            1.236684048874     1.108038488440     0.886799540743    12.000000000000
         C            2.651659048874    -0.391478511560    -0.286522459257    12.000000000000
         C            0.573798048874     0.683816488440    -0.415968459257    12.000000000000
         C            2.804913348874    -1.675361211560     0.540141840743    12.000000000000
         C           -1.127496951126    -1.115006511560    -0.309328459257    12.000000000000
         C           -1.744847951126     1.204704488440     0.080992540743    12.000000000000
         C           -2.417466951126    -1.503748511560    -0.105594459257    12.000000000000
         C           -3.362151951126    -0.472347511560     0.167458540743    12.000000000000
         H            3.334221048874     0.757597488440     1.449800540743     1.007825032230
         H            0.904547048874     0.444641488440     1.692436540743     1.007825032230
         H            0.985169048874     2.134879488440     1.157094540743     1.007825032230
         H            0.527294048874     1.514066488440    -1.125965459257     1.007825032230
         H            3.417332048874    -0.363470511560    -1.067678459257     1.007825032230
         H            1.970589048874    -1.732371511560     1.242170540743     1.007825032230
         H            3.745929048874    -1.608702511560     1.087236540743     1.007825032230
         H            3.103691048874     2.747136488440     0.176930540743     1.007825032230
         H           -0.310899951126    -1.788388511560    -0.544750459257     1.007825032230
         H            2.910481448874    -3.554956811560     0.132368140743     1.007825032230
         H           -2.703627951126    -2.548271511560    -0.154302459257     1.007825032230
         H           -5.028870951126    -1.636929511560    -0.057771459257     1.007825032230
         H           -5.299630951126    -0.012985511560     0.385048540743     1.007825032230

  Basis Set: AUG-CC-PVTZ
    Blend: AUG-CC-PVTZ
  Basis Set: (AUG-CC-PVTZ AUX)
    Blend: AUG-CC-PVTZ-JKFIT
	 Reference Energy          =    -811.4784968492249391 [Eh]
	 Singles Energy            =      -0.0000000000000000 [Eh]
	 Same-Spin Energy          =      -0.8296370777784275 [Eh]
	 Opposite-Spin Energy      =      -2.5253135984963877 [Eh]
	 Correlation Energy        =      -3.3549506762748154 [Eh]
	 Total Energy              =    -814.8334475254997642 [Eh]

	 ================> DF-SCS-MP2 Energies <==================
	-----------------------------------------------------------
	 SCS Same-Spin Scale       =       0.3333333333333333 [-]
	 SCS Opposite-Spin Scale   =       1.2000000000000000 [-]
	 SCS Same-Spin Energy      =      -0.2765456925928091 [Eh]
	 SCS Opposite-Spin Energy  =      -3.0303763181956653 [Eh]
	 SCS Correlation Energy    =      -3.3069220107884743 [Eh]
	 SCS Total Energy          =    -814.7854188600134648 [Eh]
	-----------------------------------------------------------

  Dipole Moment: [D]
     X:     1.0761      Y:    -4.6841      Z:     2.5083     Total:     5.4213

*** Psi4 exiting successfully. Buy a developer a beer!
