                               Psi4 1.3.2 release

  ==> Input File <==

--------------------------------------------------------------------------
#psi4
#
memory 32 gb

molecule  {
0 1
  O        1.3620710    -0.3800110    -0.9318440
  O        3.2020570     1.9012130    -0.2995130
  O        2.7994070    -2.7489470    -0.4002010
  O       -1.3621860     2.3740050     0.1547830
  N       -0.7935310     0.2080439    -0.1790130
  N       -3.0541720     0.8052390     0.2400120
  N       -4.6734100    -0.8124350     0.4126370
  C        2.7015950     0.8755540     0.5594740
  C        1.1922746     1.0942290     0.9136792
  C        2.6518190    -0.3922910    -0.2854700
  C        0.5739580     0.6830040    -0.4149160
  C        2.8020980    -1.6600160     0.5224700
  C       -1.1273370    -1.1158190    -0.3082760
  C       -1.7446880     1.2038920     0.0820450
  C       -2.4173070    -1.5045610    -0.1045420
  C       -3.3619920    -0.4731600     0.1685110
  H        3.3343810     0.7567850     1.4508530
  H        0.9047070     0.4438290     1.6934890
  H        0.9853290     2.1340670     1.1581470
  H        0.5274540     1.5132540    -1.1249130
  H        3.4174920    -0.3642830    -1.0666260
  H        1.9707490    -1.7331840     1.2432230
  H        3.7460890    -1.6095150     1.0882890
  H        3.1038510     2.7463240     0.1779830
  H       -0.3107400    -1.7892010    -0.5436980
  H        2.9100300    -3.5650720     0.1192120
  H       -2.7034680    -2.5490840    -0.1532500
  H       -5.0287110    -1.6377420    -0.0567190
  H       -5.2994710    -0.0137980     0.3861010
units angstrom
no_reorient  #important for SAPT in psi4, default
symmetry c1  #important for SAPT in psi4, default
}

set PROPERTIES_ORIGIN ["COM"]
properties('MP2/aug-cc-pvtz', properties = ['dipole'])
--------------------------------------------------------------------------

    Molecular point group: c1
  Charge       = 0
  Multiplicity = 1
  Basis Set: AUG-CC-PVTZ
    Blend: AUG-CC-PVTZ
  Basis Set: (AUG-CC-PVTZ AUX)
    Blend: AUG-CC-PVTZ-JKFIT

    Orbital Energies [Eh]
    ---------------------

    Doubly Occupied:

       1A    -20.577790     2A    -20.574937     3A    -20.573605
       4A    -20.500290     5A    -15.620302     6A    -15.588551
       7A    -15.540627     8A    -11.367480     9A    -11.345135
      10A    -11.330623    11A    -11.319215    12A    -11.301673
      13A    -11.296843    14A    -11.292783    15A    -11.238494
      16A    -11.234127    17A     -1.416014    18A     -1.382124
      19A     -1.373216    20A     -1.365387    21A     -1.290990
      22A     -1.260045    23A     -1.168949    24A     -1.077095
      25A     -1.066332    26A     -1.027542    27A     -0.924791
      28A     -0.898095    29A     -0.869155    30A     -0.832030
      31A     -0.804841    32A     -0.754875    33A     -0.736761
      34A     -0.720272    35A     -0.706451    36A     -0.693060
      37A     -0.689639    38A     -0.676443    39A     -0.656407
      40A     -0.636281    41A     -0.628549    42A     -0.618270
      43A     -0.605669    44A     -0.595699    45A     -0.588050
      46A     -0.569231    47A     -0.566983    48A     -0.547501
      49A     -0.535597    50A     -0.524048    51A     -0.513584
      52A     -0.483554    53A     -0.478828    54A     -0.468397
      55A     -0.456507    56A     -0.442345    57A     -0.438274
      58A     -0.415591    59A     -0.383171    60A     -0.335578

  @DF-RHF Final Energy:  -811.47578896193738

   => Energetics <=

    Nuclear Repulsion Energy =           1169.8216621336532626
    One-Electron Energy =               -3434.7455089965451407
    Two-Electron Energy =                1453.4480579009543817
    Total Energy =                       -811.4757889619374964
  Basis Set: (AUG-CC-PVTZ AUX)
    Blend: AUG-CC-PVTZ-RI
    Molecular point group: c1

    Geometry (in Angstrom), charge = 0, multiplicity = 1:

       Center              X                  Y                   Z               Mass
    ------------   -----------------  -----------------  -----------------  -----------------
         O            1.364135518242    -0.379856143440    -0.936306866576    15.994914619570
         O            3.204121518242     1.901367856560    -0.303975866576    15.994914619570
         O            2.801471518242    -2.748792143440    -0.404663866576    15.994914619570
         O           -1.360121481758     2.374159856560     0.150320133424    15.994914619570
         N           -0.791466481758     0.208198756560    -0.183475866576    14.003074004430
         N           -3.052107481758     0.805393856560     0.235549133424    14.003074004430
         N           -4.671345481758    -0.812280143440     0.408174133424    14.003074004430
         C            2.703659518242     0.875708856560     0.555011133424    12.000000000000
         C            1.194339118242     1.094383856560     0.909216333424    12.000000000000
         C            2.653883518242    -0.392136143440    -0.289932866576    12.000000000000
         C            0.576022518242     0.683158856560    -0.419378866576    12.000000000000
         C            2.804162518242    -1.659861143440     0.518007133424    12.000000000000
         C           -1.125272481758    -1.115664143440    -0.312738866576    12.000000000000
         C           -1.742623481758     1.204046856560     0.077582133424    12.000000000000
         C           -2.415242481758    -1.504406143440    -0.109004866576    12.000000000000
         C           -3.359927481758    -0.473005143440     0.164048133424    12.000000000000
         H            3.336445518242     0.756939856560     1.446390133424     1.007825032230
         H            0.906771518242     0.443983856560     1.689026133424     1.007825032230
         H            0.987393518242     2.134221856560     1.153684133424     1.007825032230
         H            0.529518518242     1.513408856560    -1.129375866576     1.007825032230
         H            3.419556518242    -0.364128143440    -1.071088866576     1.007825032230
         H            1.972813518242    -1.733029143440     1.238760133424     1.007825032230
         H            3.748153518242    -1.609360143440     1.083826133424     1.007825032230
         H            3.105915518242     2.746478856560     0.173520133424     1.007825032230
         H           -0.308675481758    -1.789046143440    -0.548160866576     1.007825032230
         H            2.912094518242    -3.564917143440     0.114749133424     1.007825032230
         H           -2.701403481758    -2.548929143440    -0.157712866576     1.007825032230
         H           -5.026646481758    -1.637587143440    -0.061181866576     1.007825032230
         H           -5.297406481758    -0.013643143440     0.381638133424     1.007825032230

  Basis Set: AUG-CC-PVTZ
    Blend: AUG-CC-PVTZ
  Basis Set: (AUG-CC-PVTZ AUX)
    Blend: AUG-CC-PVTZ-JKFIT
	 Reference Energy          =    -811.4757889619373827 [Eh]
	 Singles Energy            =      -0.0000000000000000 [Eh]
	 Same-Spin Energy          =      -0.8295803874743223 [Eh]
	 Opposite-Spin Energy      =      -2.5254863030809362 [Eh]
	 Correlation Energy        =      -3.3550666905552586 [Eh]
	 Total Energy              =    -814.8308556524926871 [Eh]

	 ================> DF-SCS-MP2 Energies <==================
	-----------------------------------------------------------
	 SCS Same-Spin Scale       =       0.3333333333333333 [-]
	 SCS Opposite-Spin Scale   =       1.2000000000000000 [-]
	 SCS Same-Spin Energy      =      -0.2765267958247741 [Eh]
	 SCS Opposite-Spin Energy  =      -3.0305835636971232 [Eh]
	 SCS Correlation Energy    =      -3.3071103595218974 [Eh]
	 SCS Total Energy          =    -814.7828993214592401 [Eh]
	-----------------------------------------------------------

  Dipole Moment: [D]
     X:     1.0896      Y:    -4.7392      Z:     2.4590     Total:     5.4492

*** Psi4 exiting successfully. Buy a developer a beer!
