                               Psi4 1.3.2 release

  ==> Input File <==

--------------------------------------------------------------------------
#psi4
#
memory 32 gb

molecule  {
0 1
  O        1.3620710    -0.3800110    -0.9318440
  O        3.2020570     1.9012130    -0.2995130
  O        2.7994070    -2.7489470    -0.4002010
  O       -1.3621860     2.3740050     0.1547830
  N       -0.7982440     0.1994180    -0.2292560
  N       -3.0541720     0.8052390     0.2400120
  N       -4.6734100    -0.8124350     0.4126370
  C        2.7015950     0.8755540     0.5594740
  C        1.2368440     1.1072260     0.8878520
  C        2.6518190    -0.3922910    -0.2854700
  C        0.5739580     0.6830040    -0.4149160
  C        2.8019095    -1.7363107     0.4578241
  C       -1.1273370    -1.1158190    -0.3082760
  C       -1.7446880     1.2038920     0.0820450
  C       -2.4173070    -1.5045610    -0.1045420
  C       -3.3619920    -0.4731600     0.1685110
  H        3.3343810     0.7567850     1.4508530
  H        0.9047070     0.4438290     1.6934890
  H        0.9853290     2.1340670     1.1581470
  H        0.5274540     1.5132540    -1.1249130
  H        3.4174920    -0.3642830    -1.0666260
  H        1.9707490    -1.7331840     1.2432230
  H        3.7460890    -1.6095150     1.0882890
  H        3.1038510     2.7463240     0.1779830
  H       -0.3107400    -1.7892010    -0.5436980
  H        2.9100300    -3.5650720     0.1192120
  H       -2.7034680    -2.5490840    -0.1532500
  H       -5.0287110    -1.6377420    -0.0567190
  H       -5.2994710    -0.0137980     0.3861010
units angstrom
no_reorient  #important for SAPT in psi4, default
symmetry c1  #important for SAPT in psi4, default
}

set PROPERTIES_ORIGIN ["COM"]
properties('MP2/aug-cc-pvtz', properties = ['dipole'])
--------------------------------------------------------------------------

    Molecular point group: c1
  Charge       = 0
  Multiplicity = 1
  Basis Set: AUG-CC-PVTZ
    Blend: AUG-CC-PVTZ
  Basis Set: (AUG-CC-PVTZ AUX)
    Blend: AUG-CC-PVTZ-JKFIT

    Orbital Energies [Eh]
    ---------------------

    Doubly Occupied:

       1A    -20.588496     2A    -20.573562     3A    -20.570677
       4A    -20.502364     5A    -15.620959     6A    -15.587961
       7A    -15.540262     8A    -11.369226     9A    -11.344546
      10A    -11.329435    11A    -11.317909    12A    -11.300887
      13A    -11.300355    14A    -11.291652    15A    -11.236555
      16A    -11.235221    17A     -1.425354    18A     -1.408267
      19A     -1.380579    20A     -1.366668    21A     -1.291634
      22A     -1.260752    23A     -1.168560    24A     -1.077309
      25A     -1.063820    26A     -1.023103    27A     -0.923408
      28A     -0.896041    29A     -0.868335    30A     -0.829499
      31A     -0.802766    32A     -0.753453    33A     -0.742624
      34A     -0.736817    35A     -0.707500    36A     -0.698074
      37A     -0.688378    38A     -0.675458    39A     -0.657101
      40A     -0.640673    41A     -0.626977    42A     -0.619964
      43A     -0.616330    44A     -0.597543    45A     -0.591732
      46A     -0.572615    47A     -0.569573    48A     -0.544745
      49A     -0.532099    50A     -0.520838    51A     -0.506088
      52A     -0.485894    53A     -0.480993    54A     -0.461359
      55A     -0.451063    56A     -0.442507    57A     -0.431013
      58A     -0.415441    59A     -0.383061    60A     -0.334324

  @DF-RHF Final Energy:  -811.47038372914142

   => Energetics <=

    Nuclear Repulsion Energy =           1170.1428823897254006
    One-Electron Energy =               -3435.2657355155874939
    Two-Electron Energy =                1453.6524693967205621
    Total Energy =                       -811.4703837291415311
  Basis Set: (AUG-CC-PVTZ AUX)
    Blend: AUG-CC-PVTZ-RI
    Molecular point group: c1

    Geometry (in Angstrom), charge = 0, multiplicity = 1:

       Center              X                  Y                   Z               Mass
    ------------   -----------------  -----------------  -----------------  -----------------
         O            1.362080944868    -0.375979446240    -0.928427924864    15.994914619570
         O            3.202066944868     1.905244553760    -0.296096924864    15.994914619570
         O            2.799416944868    -2.744915446240    -0.396784924864    15.994914619570
         O           -1.362176055132     2.378036553760     0.158199075136    15.994914619570
         N           -0.798234055132     0.203449553760    -0.225839924864    14.003074004430
         N           -3.054162055132     0.809270553760     0.243428075136    14.003074004430
         N           -4.673400055132    -0.808403446240     0.416053075136    14.003074004430
         C            2.701604944868     0.879585553760     0.562890075136    12.000000000000
         C            1.236853944868     1.111257553760     0.891268075136    12.000000000000
         C            2.651828944868    -0.388259446240    -0.282053924864    12.000000000000
         C            0.573967944868     0.687035553760    -0.411499924864    12.000000000000
         C            2.801919444868    -1.732279146240     0.461240175136    12.000000000000
         C           -1.127327055132    -1.111787446240    -0.304859924864    12.000000000000
         C           -1.744678055132     1.207923553760     0.085461075136    12.000000000000
         C           -2.417297055132    -1.500529446240    -0.101125924864    12.000000000000
         C           -3.361982055132    -0.469128446240     0.171927075136    12.000000000000
         H            3.334390944868     0.760816553760     1.454269075136     1.007825032230
         H            0.904716944868     0.447860553760     1.696905075136     1.007825032230
         H            0.985338944868     2.138098553760     1.161563075136     1.007825032230
         H            0.527463944868     1.517285553760    -1.121496924864     1.007825032230
         H            3.417501944868    -0.360251446240    -1.063209924864     1.007825032230
         H            1.970758944868    -1.729152446240     1.246639075136     1.007825032230
         H            3.746098944868    -1.605483446240     1.091705075136     1.007825032230
         H            3.103860944868     2.750355553760     0.181399075136     1.007825032230
         H           -0.310730055132    -1.785169446240    -0.540281924864     1.007825032230
         H            2.910039944868    -3.561040446240     0.122628075136     1.007825032230
         H           -2.703458055132    -2.545052446240    -0.149833924864     1.007825032230
         H           -5.028701055132    -1.633710446240    -0.053302924864     1.007825032230
         H           -5.299461055132    -0.009766446240     0.389517075136     1.007825032230

  Basis Set: AUG-CC-PVTZ
    Blend: AUG-CC-PVTZ
  Basis Set: (AUG-CC-PVTZ AUX)
    Blend: AUG-CC-PVTZ-JKFIT
	 Reference Energy          =    -811.4703837291414175 [Eh]
	 Singles Energy            =      -0.0000000000000000 [Eh]
	 Same-Spin Energy          =      -0.8296911553883896 [Eh]
	 Opposite-Spin Energy      =      -2.5239988565827431 [Eh]
	 Correlation Energy        =      -3.3536900119711328 [Eh]
	 Total Energy              =    -814.8240737411125565 [Eh]

	 ================> DF-SCS-MP2 Energies <==================
	-----------------------------------------------------------
	 SCS Same-Spin Scale       =       0.3333333333333333 [-]
	 SCS Opposite-Spin Scale   =       1.2000000000000000 [-]
	 SCS Same-Spin Energy      =      -0.2765637184627965 [Eh]
	 SCS Opposite-Spin Energy  =      -3.0287986278992918 [Eh]
	 SCS Correlation Energy    =      -3.3053623463620880 [Eh]
	 SCS Total Energy          =    -814.7757460755035481 [Eh]
	-----------------------------------------------------------

  Dipole Moment: [D]
     X:     1.1164      Y:    -5.0164      Z:     2.2528     Total:     5.6112

*** Psi4 exiting successfully. Buy a developer a beer!
