                               Psi4 1.3.2 release

  ==> Input File <==

--------------------------------------------------------------------------
#psi4
#
memory 32 gb

molecule  {
0 1
  O        1.3676295    -0.3576601    -0.9420202
  O        3.2020570     1.9012130    -0.2995130
  O        2.7994070    -2.7489470    -0.4002010
  O       -1.3621860     2.3740050     0.1547830
  N       -0.7982440     0.1994180    -0.2292560
  N       -3.0541720     0.8052390     0.2400120
  N       -4.6734100    -0.8124350     0.4126370
  C        2.7015950     0.8755540     0.5594740
  C        1.2368440     1.1072260     0.8878520
  C        2.6518190    -0.3922910    -0.2854700
  C        0.5739580     0.6830040    -0.4149160
  C        2.8261638    -1.6521772     0.5298631
  C       -1.1273370    -1.1158190    -0.3082760
  C       -1.7446880     1.2038920     0.0820450
  C       -2.4173070    -1.5045610    -0.1045420
  C       -3.3619920    -0.4731600     0.1685110
  H        3.3343810     0.7567850     1.4508530
  H        0.9047070     0.4438290     1.6934890
  H        0.9853290     2.1340670     1.1581470
  H        0.5274540     1.5132540    -1.1249130
  H        3.4174920    -0.3642830    -1.0666260
  H        1.9707490    -1.7331840     1.2432230
  H        3.7460890    -1.6095150     1.0882890
  H        3.1038510     2.7463240     0.1779830
  H       -0.3107400    -1.7892010    -0.5436980
  H        2.9100300    -3.5650720     0.1192120
  H       -2.7034680    -2.5490840    -0.1532500
  H       -5.0287110    -1.6377420    -0.0567190
  H       -5.2994710    -0.0137980     0.3861010
units angstrom
no_reorient  #important for SAPT in psi4, default
symmetry c1  #important for SAPT in psi4, default
}

set PROPERTIES_ORIGIN ["COM"]
properties('MP2/aug-cc-pvtz', properties = ['dipole'])
--------------------------------------------------------------------------

    Molecular point group: c1
  Charge       = 0
  Multiplicity = 1
  Basis Set: AUG-CC-PVTZ
    Blend: AUG-CC-PVTZ
  Basis Set: (AUG-CC-PVTZ AUX)
    Blend: AUG-CC-PVTZ-JKFIT

    Orbital Energies [Eh]
    ---------------------

    Doubly Occupied:

       1A    -20.577319     2A    -20.574017     3A    -20.573205
       4A    -20.502824     5A    -15.621600     6A    -15.588331
       7A    -15.540775     8A    -11.369792     9A    -11.345019
      10A    -11.329685    11A    -11.318511    12A    -11.300543
      13A    -11.297484    14A    -11.293827    15A    -11.237102
      16A    -11.236416    17A     -1.418492    18A     -1.382111
      19A     -1.371304    20A     -1.364959    21A     -1.292188
      22A     -1.261426    23A     -1.169048    24A     -1.078717
      25A     -1.069839    26A     -1.028513    27A     -0.927891
      28A     -0.897687    29A     -0.868653    30A     -0.831100
      31A     -0.806748    32A     -0.754477    33A     -0.739195
      34A     -0.719391    35A     -0.706751    36A     -0.693647
      37A     -0.689492    38A     -0.675606    39A     -0.656368
      40A     -0.637784    41A     -0.627591    42A     -0.618811
      43A     -0.603990    44A     -0.594671    45A     -0.589160
      46A     -0.572670    47A     -0.569299    48A     -0.544575
      49A     -0.532106    50A     -0.523819    51A     -0.510291
      52A     -0.485257    53A     -0.482233    54A     -0.469491
      55A     -0.460672    56A     -0.444807    57A     -0.438230
      58A     -0.416064    59A     -0.383598    60A     -0.334837

  @DF-RHF Final Energy:  -811.47874021883842

   => Energetics <=

    Nuclear Repulsion Energy =           1169.6738715014857917
    One-Electron Energy =               -3434.4052013337191056
    Two-Electron Energy =                1453.2525896133950027
    Total Energy =                       -811.4787402188383112
  Basis Set: (AUG-CC-PVTZ AUX)
    Blend: AUG-CC-PVTZ-RI
    Molecular point group: c1

    Geometry (in Angstrom), charge = 0, multiplicity = 1:

       Center              X                  Y                   Z               Mass
    ------------   -----------------  -----------------  -----------------  -----------------
         O            1.365966283042    -0.359648622375    -0.941694083373    15.994914619570
         O            3.200393783042     1.899224477625    -0.299186883373    15.994914619570
         O            2.797743783042    -2.750935522375    -0.399874883373    15.994914619570
         O           -1.363849216958     2.372016477625     0.155109116627    15.994914619570
         N           -0.799907216958     0.197429477625    -0.228929883373    14.003074004430
         N           -3.055835216958     0.803250477625     0.240338116627    14.003074004430
         N           -4.675073216958    -0.814423522375     0.412963116627    14.003074004430
         C            2.699931783042     0.873565477625     0.559800116627    12.000000000000
         C            1.235180783042     1.105237477625     0.888178116627    12.000000000000
         C            2.650155783042    -0.394279522375    -0.285143883373    12.000000000000
         C            0.572294783042     0.681015477625    -0.414589883373    12.000000000000
         C            2.824500583042    -1.654165722375     0.530189216627    12.000000000000
         C           -1.129000216958    -1.117807522375    -0.307949883373    12.000000000000
         C           -1.746351216958     1.201903477625     0.082371116627    12.000000000000
         C           -2.418970216958    -1.506549522375    -0.104215883373    12.000000000000
         C           -3.363655216958    -0.475148522375     0.168837116627    12.000000000000
         H            3.332717783042     0.754796477625     1.451179116627     1.007825032230
         H            0.903043783042     0.441840477625     1.693815116627     1.007825032230
         H            0.983665783042     2.132078477625     1.158473116627     1.007825032230
         H            0.525790783042     1.511265477625    -1.124586883373     1.007825032230
         H            3.415828783042    -0.366271522375    -1.066299883373     1.007825032230
         H            1.969085783042    -1.735172522375     1.243549116627     1.007825032230
         H            3.744425783042    -1.611503522375     1.088615116627     1.007825032230
         H            3.102187783042     2.744335477625     0.178309116627     1.007825032230
         H           -0.312403216958    -1.791189522375    -0.543371883373     1.007825032230
         H            2.908366783042    -3.567060522375     0.119538116627     1.007825032230
         H           -2.705131216958    -2.551072522375    -0.152923883373     1.007825032230
         H           -5.030374216958    -1.639730522375    -0.056392883373     1.007825032230
         H           -5.301134216958    -0.015786522375     0.386427116627     1.007825032230

  Basis Set: AUG-CC-PVTZ
    Blend: AUG-CC-PVTZ
  Basis Set: (AUG-CC-PVTZ AUX)
    Blend: AUG-CC-PVTZ-JKFIT
	 Reference Energy          =    -811.4787402188384249 [Eh]
	 Singles Energy            =      -0.0000000000000000 [Eh]
	 Same-Spin Energy          =      -0.8296038439345750 [Eh]
	 Opposite-Spin Energy      =      -2.5250677686975709 [Eh]
	 Correlation Energy        =      -3.3546716126321456 [Eh]
	 Total Energy              =    -814.8334118314705847 [Eh]

	 ================> DF-SCS-MP2 Energies <==================
	-----------------------------------------------------------
	 SCS Same-Spin Scale       =       0.3333333333333333 [-]
	 SCS Opposite-Spin Scale   =       1.2000000000000000 [-]
	 SCS Same-Spin Energy      =      -0.2765346146448583 [Eh]
	 SCS Opposite-Spin Energy  =      -3.0300813224370851 [Eh]
	 SCS Correlation Energy    =      -3.3066159370819435 [Eh]
	 SCS Total Energy          =    -814.7853561559203399 [Eh]
	-----------------------------------------------------------

  Dipole Moment: [D]
     X:     1.1140      Y:    -4.6978      Z:     2.5244     Total:     5.4482

*** Psi4 exiting successfully. Buy a developer a beer!
