                               Psi4 1.3.2 release

  ==> Input File <==

--------------------------------------------------------------------------
#psi4
#
memory 32 gb

molecule  {
0 1
  O        1.3620710    -0.3800110    -0.9318440
  O        3.2020570     1.9012130    -0.2995130
  O        2.7994070    -2.7489470    -0.4002010
  O       -1.3621860     2.3740050     0.1547830
  N       -0.7757252     0.1938634    -0.2341419
  N       -3.0541720     0.8052390     0.2400120
  N       -4.6734100    -0.8124350     0.4126370
  C        2.7015950     0.8755540     0.5594740
  C        1.2368440     1.1072260     0.8878520
  C        2.6518190    -0.3922910    -0.2854700
  C        0.5739580     0.6830040    -0.4149160
  C        2.8020980    -1.6600160     0.5224700
  C       -1.1273370    -1.1158190    -0.3082760
  C       -1.7446880     1.2038920     0.0820450
  C       -2.4108570    -1.5271561    -0.1082041
  C       -3.3619920    -0.4731600     0.1685110
  H        3.3343810     0.7567850     1.4508530
  H        0.9047070     0.4438290     1.6934890
  H        0.9853290     2.1340670     1.1581470
  H        0.5274540     1.5132540    -1.1249130
  H        3.4174920    -0.3642830    -1.0666260
  H        1.9707490    -1.7331840     1.2432230
  H        3.7460890    -1.6095150     1.0882890
  H        3.1038510     2.7463240     0.1779830
  H       -0.3107400    -1.7892010    -0.5436980
  H        2.9100300    -3.5650720     0.1192120
  H       -2.7034680    -2.5490840    -0.1532500
  H       -5.0287110    -1.6377420    -0.0567190
  H       -5.2994710    -0.0137980     0.3861010
units angstrom
no_reorient  #important for SAPT in psi4, default
symmetry c1  #important for SAPT in psi4, default
}

set PROPERTIES_ORIGIN ["COM"]
properties('MP2/aug-cc-pvtz', properties = ['dipole'])
--------------------------------------------------------------------------

    Molecular point group: c1
  Charge       = 0
  Multiplicity = 1
  Basis Set: AUG-CC-PVTZ
    Blend: AUG-CC-PVTZ
  Basis Set: (AUG-CC-PVTZ AUX)
    Blend: AUG-CC-PVTZ-JKFIT

    Orbital Energies [Eh]
    ---------------------

    Doubly Occupied:

       1A    -20.577030     2A    -20.573829     3A    -20.571317
       4A    -20.506014     5A    -15.620886     6A    -15.589685
       7A    -15.542740     8A    -11.372836     9A    -11.348140
      10A    -11.328813    11A    -11.317217    12A    -11.300180
      13A    -11.296097    14A    -11.292082    15A    -11.237019
      16A    -11.235970    17A     -1.416314    18A     -1.381908
      19A     -1.372915    20A     -1.365230    21A     -1.291658
      22A     -1.261952    23A     -1.170689    24A     -1.078627
      25A     -1.068458    26A     -1.025921    27A     -0.926858
      28A     -0.892914    29A     -0.869194    30A     -0.831761
      31A     -0.805418    32A     -0.753322    33A     -0.739189
      34A     -0.720377    35A     -0.706520    36A     -0.692649
      37A     -0.689166    38A     -0.675722    39A     -0.657297
      40A     -0.639384    41A     -0.626415    42A     -0.617801
      43A     -0.603369    44A     -0.594134    45A     -0.587414
      46A     -0.576442    47A     -0.567646    48A     -0.544411
      49A     -0.532133    50A     -0.523842    51A     -0.509996
      52A     -0.485187    53A     -0.482805    54A     -0.467785
      55A     -0.460589    56A     -0.445567    57A     -0.437383
      58A     -0.416790    59A     -0.384238    60A     -0.334649

  @DF-RHF Final Energy:  -811.47821466228663

   => Energetics <=

    Nuclear Repulsion Energy =           1169.5689208784417588
    One-Electron Energy =               -3434.2104817562862991
    Two-Electron Energy =                1453.1633462155575671
    Total Energy =                       -811.4782146622867458
  Basis Set: (AUG-CC-PVTZ AUX)
    Blend: AUG-CC-PVTZ-RI
    Molecular point group: c1

    Geometry (in Angstrom), charge = 0, multiplicity = 1:

       Center              X                  Y                   Z               Mass
    ------------   -----------------  -----------------  -----------------  -----------------
         O            1.360341575592    -0.378474546039    -0.931349172875    15.994914619570
         O            3.200327575592     1.902749453961    -0.299018172875    15.994914619570
         O            2.797677575592    -2.747410546039    -0.399706172875    15.994914619570
         O           -1.363915424408     2.375541453961     0.155277827125    15.994914619570
         N           -0.777454624408     0.195399853961    -0.233647072875    14.003074004430
         N           -3.055901424408     0.806775453961     0.240506827125    14.003074004430
         N           -4.675139424408    -0.810898546039     0.413131827125    14.003074004430
         C            2.699865575592     0.877090453961     0.559968827125    12.000000000000
         C            1.235114575592     1.108762453961     0.888346827125    12.000000000000
         C            2.650089575592    -0.390754546039    -0.284975172875    12.000000000000
         C            0.572228575592     0.684540453961    -0.414421172875    12.000000000000
         C            2.800368575592    -1.658479546039     0.522964827125    12.000000000000
         C           -1.129066424408    -1.114282546039    -0.307781172875    12.000000000000
         C           -1.746417424408     1.205428453961     0.082539827125    12.000000000000
         C           -2.412586424408    -1.525619646039    -0.107709272875    12.000000000000
         C           -3.363721424408    -0.471623546039     0.169005827125    12.000000000000
         H            3.332651575592     0.758321453961     1.451347827125     1.007825032230
         H            0.902977575592     0.445365453961     1.693983827125     1.007825032230
         H            0.983599575592     2.135603453961     1.158641827125     1.007825032230
         H            0.525724575592     1.514790453961    -1.124418172875     1.007825032230
         H            3.415762575592    -0.362746546039    -1.066131172875     1.007825032230
         H            1.969019575592    -1.731647546039     1.243717827125     1.007825032230
         H            3.744359575592    -1.607978546039     1.088783827125     1.007825032230
         H            3.102121575592     2.747860453961     0.178477827125     1.007825032230
         H           -0.312469424408    -1.787664546039    -0.543203172875     1.007825032230
         H            2.908300575592    -3.563535546039     0.119706827125     1.007825032230
         H           -2.705197424408    -2.547547546039    -0.152755172875     1.007825032230
         H           -5.030440424408    -1.636205546039    -0.056224172875     1.007825032230
         H           -5.301200424408    -0.012261546039     0.386595827125     1.007825032230

  Basis Set: AUG-CC-PVTZ
    Blend: AUG-CC-PVTZ
  Basis Set: (AUG-CC-PVTZ AUX)
    Blend: AUG-CC-PVTZ-JKFIT
	 Reference Energy          =    -811.4782146622866321 [Eh]
	 Singles Energy            =      -0.0000000000000000 [Eh]
	 Same-Spin Energy          =      -0.8294193277770319 [Eh]
	 Opposite-Spin Energy      =      -2.5251350716567247 [Eh]
	 Correlation Energy        =      -3.3545543994337566 [Eh]
	 Total Energy              =    -814.8327690617203416 [Eh]

	 ================> DF-SCS-MP2 Energies <==================
	-----------------------------------------------------------
	 SCS Same-Spin Scale       =       0.3333333333333333 [-]
	 SCS Opposite-Spin Scale   =       1.2000000000000000 [-]
	 SCS Same-Spin Energy      =      -0.2764731092590106 [Eh]
	 SCS Opposite-Spin Energy  =      -3.0301620859880694 [Eh]
	 SCS Correlation Energy    =      -3.3066351952470798 [Eh]
	 SCS Total Energy          =    -814.7848498575336862 [Eh]
	-----------------------------------------------------------

  Dipole Moment: [D]
     X:     0.9380      Y:    -4.5910      Z:     2.5160     Total:     5.3186

*** Psi4 exiting successfully. Buy a developer a beer!
