                               Psi4 1.3.2 release

  ==> Input File <==

--------------------------------------------------------------------------
#psi4
#
memory 32 gb

molecule  {
0 1
  O        1.3620710    -0.3800110    -0.9318440
  O        3.2020570     1.9012130    -0.2995130
  O        2.7994070    -2.7489470    -0.4002010
  O       -1.3025929     2.3536260     0.1405822
  N       -0.7463356     0.2521405    -0.2327474
  N       -3.0541720     0.8052390     0.2400120
  N       -4.6734100    -0.8124350     0.4126370
  C        2.7015950     0.8755540     0.5594740
  C        1.2368440     1.1072260     0.8878520
  C        2.6518190    -0.3922910    -0.2854700
  C        0.5739580     0.6830040    -0.4149160
  C        2.8020980    -1.6600160     0.5224700
  C       -1.1273370    -1.1158190    -0.3082760
  C       -1.7446880     1.2038920     0.0820450
  C       -2.4173070    -1.5045610    -0.1045420
  C       -3.3619920    -0.4731600     0.1685110
  H        3.3343810     0.7567850     1.4508530
  H        0.9047070     0.4438290     1.6934890
  H        0.9853290     2.1340670     1.1581470
  H        0.5274540     1.5132540    -1.1249130
  H        3.4174920    -0.3642830    -1.0666260
  H        1.9707490    -1.7331840     1.2432230
  H        3.7460890    -1.6095150     1.0882890
  H        3.1038510     2.7463240     0.1779830
  H       -0.3107400    -1.7892010    -0.5436980
  H        2.9100300    -3.5650720     0.1192120
  H       -2.7034680    -2.5490840    -0.1532500
  H       -5.0287110    -1.6377420    -0.0567190
  H       -5.2994710    -0.0137980     0.3861010
units angstrom
no_reorient  #important for SAPT in psi4, default
symmetry c1  #important for SAPT in psi4, default
}

set PROPERTIES_ORIGIN ["COM"]
properties('MP2/aug-cc-pvtz', properties = ['dipole'])
--------------------------------------------------------------------------

    Molecular point group: c1
  Charge       = 0
  Multiplicity = 1
  Basis Set: AUG-CC-PVTZ
    Blend: AUG-CC-PVTZ
  Basis Set: (AUG-CC-PVTZ AUX)
    Blend: AUG-CC-PVTZ-JKFIT

    Orbital Energies [Eh]
    ---------------------

    Doubly Occupied:

       1A    -20.576047     2A    -20.570874     3A    -20.568951
       4A    -20.499545     5A    -15.616503     6A    -15.593788
       7A    -15.547260     8A    -11.370114     9A    -11.351793
      10A    -11.324068    11A    -11.320582    12A    -11.296799
      13A    -11.294682    14A    -11.290001    15A    -11.244422
      16A    -11.230973    17A     -1.415283    18A     -1.382434
      19A     -1.371197    20A     -1.363077    21A     -1.291597
      22A     -1.255501    23A     -1.175732    24A     -1.078721
      25A     -1.068161    26A     -1.025168    27A     -0.928558
      28A     -0.893152    29A     -0.868225    30A     -0.829817
      31A     -0.804877    32A     -0.756769    33A     -0.733903
      34A     -0.718455    35A     -0.710631    36A     -0.691371
      37A     -0.687485    38A     -0.676996    39A     -0.656425
      40A     -0.637253    41A     -0.625783    42A     -0.617874
      43A     -0.605461    44A     -0.595121    45A     -0.586982
      46A     -0.572820    47A     -0.563604    48A     -0.543270
      49A     -0.533275    50A     -0.520467    51A     -0.507835
      52A     -0.481796    53A     -0.474708    54A     -0.466083
      55A     -0.456035    56A     -0.446510    57A     -0.435906
      58A     -0.416703    59A     -0.385883    60A     -0.338494

  @DF-RHF Final Energy:  -811.46937975795038

   => Energetics <=

    Nuclear Repulsion Energy =           1171.1971988284005874
    One-Electron Energy =               -3437.5495649203312496
    Two-Electron Energy =                1454.8829863339806252
    Total Energy =                       -811.4693797579502643
  Basis Set: (AUG-CC-PVTZ AUX)
    Blend: AUG-CC-PVTZ-RI
    Molecular point group: c1

    Geometry (in Angstrom), charge = 0, multiplicity = 1:

       Center              X                  Y                   Z               Mass
    ------------   -----------------  -----------------  -----------------  -----------------
         O            1.354672775313    -0.381826685490    -0.930628455714    15.994914619570
         O            3.194658775313     1.899397314510    -0.298297455714    15.994914619570
         O            2.792008775313    -2.750762685490    -0.398985455714    15.994914619570
         O           -1.309991124687     2.351810314510     0.141797744286    15.994914619570
         N           -0.753733824687     0.250324814510    -0.231531855714    14.003074004430
         N           -3.061570224687     0.803423314510     0.241227544286    14.003074004430
         N           -4.680808224687    -0.814250685490     0.413852544286    14.003074004430
         C            2.694196775313     0.873738314510     0.560689544286    12.000000000000
         C            1.229445775313     1.105410314510     0.889067544286    12.000000000000
         C            2.644420775313    -0.394106685490    -0.284254455714    12.000000000000
         C            0.566559775313     0.681188314510    -0.413700455714    12.000000000000
         C            2.794699775313    -1.661831685490     0.523685544286    12.000000000000
         C           -1.134735224687    -1.117634685490    -0.307060455714    12.000000000000
         C           -1.752086224687     1.202076314510     0.083260544286    12.000000000000
         C           -2.424705224687    -1.506376685490    -0.103326455714    12.000000000000
         C           -3.369390224687    -0.474975685490     0.169726544286    12.000000000000
         H            3.326982775313     0.754969314510     1.452068544286     1.007825032230
         H            0.897308775313     0.442013314510     1.694704544286     1.007825032230
         H            0.977930775313     2.132251314510     1.159362544286     1.007825032230
         H            0.520055775313     1.511438314510    -1.123697455714     1.007825032230
         H            3.410093775313    -0.366098685490    -1.065410455714     1.007825032230
         H            1.963350775313    -1.734999685490     1.244438544286     1.007825032230
         H            3.738690775313    -1.611330685490     1.089504544286     1.007825032230
         H            3.096452775313     2.744508314510     0.179198544286     1.007825032230
         H           -0.318138224687    -1.791016685490    -0.542482455714     1.007825032230
         H            2.902631775313    -3.566887685490     0.120427544286     1.007825032230
         H           -2.710866224687    -2.550899685490    -0.152034455714     1.007825032230
         H           -5.036109224687    -1.639557685490    -0.055503455714     1.007825032230
         H           -5.306869224687    -0.015613685490     0.387316544286     1.007825032230

  Basis Set: AUG-CC-PVTZ
    Blend: AUG-CC-PVTZ
  Basis Set: (AUG-CC-PVTZ AUX)
    Blend: AUG-CC-PVTZ-JKFIT
	 Reference Energy          =    -811.4693797579503780 [Eh]
	 Singles Energy            =      -0.0000000000000000 [Eh]
	 Same-Spin Energy          =      -0.8298869864515777 [Eh]
	 Opposite-Spin Energy      =      -2.5260374239121477 [Eh]
	 Correlation Energy        =      -3.3559244103637251 [Eh]
	 Total Energy              =    -814.8253041683141191 [Eh]

	 ================> DF-SCS-MP2 Energies <==================
	-----------------------------------------------------------
	 SCS Same-Spin Scale       =       0.3333333333333333 [-]
	 SCS Opposite-Spin Scale   =       1.2000000000000000 [-]
	 SCS Same-Spin Energy      =      -0.2766289954838592 [Eh]
	 SCS Opposite-Spin Energy  =      -3.0312449086945770 [Eh]
	 SCS Correlation Energy    =      -3.3078739041784360 [Eh]
	 SCS Total Energy          =    -814.7772536621288282 [Eh]
	-----------------------------------------------------------

  Dipole Moment: [D]
     X:     0.5072      Y:    -4.8159      Z:     2.5355     Total:     5.4662

*** Psi4 exiting successfully. Buy a developer a beer!
