                               Psi4 1.3.2 release

  ==> Input File <==

--------------------------------------------------------------------------
#psi4
#
memory 32 gb

molecule  {
0 1
  O        1.3620710    -0.3800110    -0.9318440
  O        3.2020570     1.9012130    -0.2995130
  O        2.7994070    -2.7489470    -0.4002010
  O       -1.3621860     2.3740050     0.1547830
  N       -0.7982440     0.1994180    -0.2292560
  N       -3.0541720     0.8052390     0.2400120
  N       -4.6734100    -0.8124350     0.4126370
  C        2.7015950     0.8755540     0.5594740
  C        1.2368440     1.1072260     0.8878520
  C        2.6437283    -0.3861693    -0.2940744
  C        0.5739580     0.6830040    -0.4149160
  C        2.8020980    -1.6600160     0.5224700
  C       -1.1273370    -1.1158190    -0.3082760
  C       -1.7446880     1.2038920     0.0820450
  C       -2.4173070    -1.5045610    -0.1045420
  C       -3.3619920    -0.4731600     0.1685110
  H        3.3324388     0.7658342     1.4533858
  H        0.9047070     0.4438290     1.6934890
  H        0.9853290     2.1340670     1.1581470
  H        0.5274540     1.5132540    -1.1249130
  H        3.4174920    -0.3642830    -1.0666260
  H        1.9707490    -1.7331840     1.2432230
  H        3.7460890    -1.6095150     1.0882890
  H        3.1038510     2.7463240     0.1779830
  H       -0.3107400    -1.7892010    -0.5436980
  H        2.9100300    -3.5650720     0.1192120
  H       -2.7034680    -2.5490840    -0.1532500
  H       -5.0287110    -1.6377420    -0.0567190
  H       -5.2994710    -0.0137980     0.3861010
units angstrom
no_reorient  #important for SAPT in psi4, default
symmetry c1  #important for SAPT in psi4, default
}

set PROPERTIES_ORIGIN ["COM"]
properties('MP2/aug-cc-pvtz', properties = ['dipole'])
--------------------------------------------------------------------------

    Molecular point group: c1
  Charge       = 0
  Multiplicity = 1
  Basis Set: AUG-CC-PVTZ
    Blend: AUG-CC-PVTZ
  Basis Set: (AUG-CC-PVTZ AUX)
    Blend: AUG-CC-PVTZ-JKFIT

    Orbital Energies [Eh]
    ---------------------

    Doubly Occupied:

       1A    -20.577182     2A    -20.574192     3A    -20.573890
       4A    -20.503285     5A    -15.622094     6A    -15.588532
       7A    -15.541023     8A    -11.370161     9A    -11.345254
      10A    -11.331405    11A    -11.318581    12A    -11.300411
      13A    -11.296416    14A    -11.292829    15A    -11.237273
      16A    -11.236742    17A     -1.419416    18A     -1.382691
      19A     -1.373059    20A     -1.366242    21A     -1.292545
      22A     -1.261919    23A     -1.169379    24A     -1.079270
      25A     -1.068048    26A     -1.027149    27A     -0.926134
      28A     -0.897766    29A     -0.868984    30A     -0.831527
      31A     -0.806742    32A     -0.754469    33A     -0.739404
      34A     -0.720985    35A     -0.706693    36A     -0.692821
      37A     -0.689206    38A     -0.675923    39A     -0.656898
      40A     -0.637094    41A     -0.628178    42A     -0.618576
      43A     -0.604571    44A     -0.595440    45A     -0.589013
      46A     -0.573169    47A     -0.569143    48A     -0.545008
      49A     -0.532766    50A     -0.524347    51A     -0.510084
      52A     -0.486140    53A     -0.482082    54A     -0.468179
      55A     -0.460280    56A     -0.444351    57A     -0.437260
      58A     -0.416561    59A     -0.383936    60A     -0.335184

  @DF-RHF Final Energy:  -811.47951590489515

   => Energetics <=

    Nuclear Repulsion Energy =           1170.0722120815346443
    One-Electron Energy =               -3435.1876432210597159
    Two-Electron Energy =                1453.6359152346296923
    Total Energy =                       -811.4795159048951518
  Basis Set: (AUG-CC-PVTZ AUX)
    Blend: AUG-CC-PVTZ-RI
    Molecular point group: c1

    Geometry (in Angstrom), charge = 0, multiplicity = 1:

       Center              X                  Y                   Z               Mass
    ------------   -----------------  -----------------  -----------------  -----------------
         O            1.362507135099    -0.380374682258    -0.931400529638    15.994914619570
         O            3.202493135099     1.900849317742    -0.299069529638    15.994914619570
         O            2.799843135099    -2.749310682258    -0.399757529638    15.994914619570
         O           -1.361749864901     2.373641317742     0.155226470362    15.994914619570
         N           -0.797807864901     0.199054317742    -0.228812529638    14.003074004430
         N           -3.053735864901     0.804875317742     0.240455470362    14.003074004430
         N           -4.672973864901    -0.812798682258     0.413080470362    14.003074004430
         C            2.702031135099     0.875190317742     0.559917470362    12.000000000000
         C            1.237280135099     1.106862317742     0.888295470362    12.000000000000
         C            2.644164435099    -0.386532982258    -0.293630929638    12.000000000000
         C            0.574394135099     0.682640317742    -0.414472529638    12.000000000000
         C            2.802534135099    -1.660379682258     0.522913470362    12.000000000000
         C           -1.126900864901    -1.116182682258    -0.307832529638    12.000000000000
         C           -1.744251864901     1.203528317742     0.082488470362    12.000000000000
         C           -2.416870864901    -1.504924682258    -0.104098529638    12.000000000000
         C           -3.361555864901    -0.473523682258     0.168954470362    12.000000000000
         H            3.332874935099     0.765470517742     1.453829270362     1.007825032230
         H            0.905143135099     0.443465317742     1.693932470362     1.007825032230
         H            0.985765135099     2.133703317742     1.158590470362     1.007825032230
         H            0.527890135099     1.512890317742    -1.124469529638     1.007825032230
         H            3.417928135099    -0.364646682258    -1.066182529638     1.007825032230
         H            1.971185135099    -1.733547682258     1.243666470362     1.007825032230
         H            3.746525135099    -1.609878682258     1.088732470362     1.007825032230
         H            3.104287135099     2.745960317742     0.178426470362     1.007825032230
         H           -0.310303864901    -1.789564682258    -0.543254529638     1.007825032230
         H            2.910466135099    -3.565435682258     0.119655470362     1.007825032230
         H           -2.703031864901    -2.549447682258    -0.152806529638     1.007825032230
         H           -5.028274864901    -1.638105682258    -0.056275529638     1.007825032230
         H           -5.299034864901    -0.014161682258     0.386544470362     1.007825032230

  Basis Set: AUG-CC-PVTZ
    Blend: AUG-CC-PVTZ
  Basis Set: (AUG-CC-PVTZ AUX)
    Blend: AUG-CC-PVTZ-JKFIT
	 Reference Energy          =    -811.4795159048951518 [Eh]
	 Singles Energy            =      -0.0000000000000000 [Eh]
	 Same-Spin Energy          =      -0.8295781817862838 [Eh]
	 Opposite-Spin Energy      =      -2.5249576519645585 [Eh]
	 Correlation Energy        =      -3.3545358337508424 [Eh]
	 Total Energy              =    -814.8340517386459396 [Eh]

	 ================> DF-SCS-MP2 Energies <==================
	-----------------------------------------------------------
	 SCS Same-Spin Scale       =       0.3333333333333333 [-]
	 SCS Opposite-Spin Scale   =       1.2000000000000000 [-]
	 SCS Same-Spin Energy      =      -0.2765260605954279 [Eh]
	 SCS Opposite-Spin Energy  =      -3.0299491823574702 [Eh]
	 SCS Correlation Energy    =      -3.3064752429528981 [Eh]
	 SCS Total Energy          =    -814.7859911478479944 [Eh]
	-----------------------------------------------------------

  Dipole Moment: [D]
     X:     1.0287      Y:    -4.6601      Z:     2.4743     Total:     5.3756

*** Psi4 exiting successfully. Buy a developer a beer!
