                               Psi4 1.3.2 release

  ==> Input File <==

--------------------------------------------------------------------------
#psi4
#
memory 32 gb

molecule  {
0 1
  O        1.3620710    -0.3800110    -0.9318440
  O        3.2020570     1.9012130    -0.2995130
  O        2.7994070    -2.7489470    -0.4002010
  O       -1.3621860     2.3740050     0.1547830
  N       -0.7982440     0.1994180    -0.2292560
  N       -3.0541720     0.8052390     0.2400120
  N       -4.6734100    -0.8124350     0.4126370
  C        2.7015950     0.8755540     0.5594740
  C        1.2368440     1.1072260     0.8878520
  C        2.6518190    -0.3922910    -0.2854700
  C        0.6294323     0.6081797    -0.4513019
  C        2.8020980    -1.6600160     0.5224700
  C       -1.1273370    -1.1158190    -0.3082760
  C       -1.7446880     1.2038920     0.0820450
  C       -2.4173070    -1.5045610    -0.1045420
  C       -3.3619920    -0.4731600     0.1685110
  H        3.3343810     0.7567850     1.4508530
  H        0.9047070     0.4438290     1.6934890
  H        0.9853290     2.1340670     1.1581470
  H        0.5274540     1.5132540    -1.1249130
  H        3.4174920    -0.3642830    -1.0666260
  H        1.9707490    -1.7331840     1.2432230
  H        3.7460890    -1.6095150     1.0882890
  H        3.1038510     2.7463240     0.1779830
  H       -0.3107400    -1.7892010    -0.5436980
  H        2.9100300    -3.5650720     0.1192120
  H       -2.7034680    -2.5490840    -0.1532500
  H       -5.0287110    -1.6377420    -0.0567190
  H       -5.2994710    -0.0137980     0.3861010
units angstrom
no_reorient  #important for SAPT in psi4, default
symmetry c1  #important for SAPT in psi4, default
}

set PROPERTIES_ORIGIN ["COM"]
properties('MP2/aug-cc-pvtz', properties = ['dipole'])
--------------------------------------------------------------------------

    Molecular point group: c1
  Charge       = 0
  Multiplicity = 1
  Basis Set: AUG-CC-PVTZ
    Blend: AUG-CC-PVTZ
  Basis Set: (AUG-CC-PVTZ AUX)
    Blend: AUG-CC-PVTZ-JKFIT

    Orbital Energies [Eh]
    ---------------------

    Doubly Occupied:

       1A    -20.584824     2A    -20.581527     3A    -20.575331
       4A    -20.498869     5A    -15.616632     6A    -15.585958
       7A    -15.538482     8A    -11.367066     9A    -11.342092
      10A    -11.332492    11A    -11.314406    12A    -11.302234
      13A    -11.301737    14A    -11.300923    15A    -11.236237
      16A    -11.233662    17A     -1.452292    18A     -1.378977
      19A     -1.376355    20A     -1.372524    21A     -1.288806
      22A     -1.256334    23A     -1.165542    24A     -1.081415
      25A     -1.067906    26A     -1.027679    27A     -0.924753
      28A     -0.895365    29A     -0.866657    30A     -0.835012
      31A     -0.809734    32A     -0.752061    33A     -0.741519
      34A     -0.725287    35A     -0.706119    36A     -0.699827
      37A     -0.690172    38A     -0.678224    39A     -0.659706
      40A     -0.636759    41A     -0.625715    42A     -0.619600
      43A     -0.606618    44A     -0.598835    45A     -0.590675
      46A     -0.578787    47A     -0.569381    48A     -0.547751
      49A     -0.531208    50A     -0.522416    51A     -0.508190
      52A     -0.492048    53A     -0.480076    54A     -0.472419
      55A     -0.462017    56A     -0.440114    57A     -0.432371
      58A     -0.412663    59A     -0.379503    60A     -0.330179

  @DF-RHF Final Energy:  -811.47097284285553

   => Energetics <=

    Nuclear Repulsion Energy =           1170.6138690745949589
    One-Electron Energy =               -3436.1655546090046300
    Two-Electron Energy =                1454.0807126915537992
    Total Energy =                       -811.4709728428556446
  Basis Set: (AUG-CC-PVTZ AUX)
    Blend: AUG-CC-PVTZ-RI
    Molecular point group: c1

    Geometry (in Angstrom), charge = 0, multiplicity = 1:

       Center              X                  Y                   Z               Mass
    ------------   -----------------  -----------------  -----------------  -----------------
         O            1.359139592022    -0.376057145623    -0.929921249516    15.994914619570
         O            3.199125592022     1.905166854377    -0.297590249516    15.994914619570
         O            2.796475592022    -2.744993145623    -0.398278249516    15.994914619570
         O           -1.365117407978     2.377958854377     0.156705750484    15.994914619570
         N           -0.801175407978     0.203371854377    -0.227333249516    14.003074004430
         N           -3.057103407978     0.809192854377     0.241934750484    14.003074004430
         N           -4.676341407978    -0.808481145623     0.414559750484    14.003074004430
         C            2.698663592022     0.879507854377     0.561396750484    12.000000000000
         C            1.233912592022     1.111179854377     0.889774750484    12.000000000000
         C            2.648887592022    -0.388337145623    -0.283547249516    12.000000000000
         C            0.626500892022     0.612133554377    -0.449379149516    12.000000000000
         C            2.799166592022    -1.656062145623     0.524392750484    12.000000000000
         C           -1.130268407978    -1.111865145623    -0.306353249516    12.000000000000
         C           -1.747619407978     1.207845854377     0.083967750484    12.000000000000
         C           -2.420238407978    -1.500607145623    -0.102619249516    12.000000000000
         C           -3.364923407978    -0.469206145623     0.170433750484    12.000000000000
         H            3.331449592022     0.760738854377     1.452775750484     1.007825032230
         H            0.901775592022     0.447782854377     1.695411750484     1.007825032230
         H            0.982397592022     2.138020854377     1.160069750484     1.007825032230
         H            0.524522592022     1.517207854377    -1.122990249516     1.007825032230
         H            3.414560592022    -0.360329145623    -1.064703249516     1.007825032230
         H            1.967817592022    -1.729230145623     1.245145750484     1.007825032230
         H            3.743157592022    -1.605561145623     1.090211750484     1.007825032230
         H            3.100919592022     2.750277854377     0.179905750484     1.007825032230
         H           -0.313671407978    -1.785247145623    -0.541775249516     1.007825032230
         H            2.907098592022    -3.561118145623     0.121134750484     1.007825032230
         H           -2.706399407978    -2.545130145623    -0.151327249516     1.007825032230
         H           -5.031642407978    -1.633788145623    -0.054796249516     1.007825032230
         H           -5.302402407978    -0.009844145623     0.388023750484     1.007825032230

  Basis Set: AUG-CC-PVTZ
    Blend: AUG-CC-PVTZ
  Basis Set: (AUG-CC-PVTZ AUX)
    Blend: AUG-CC-PVTZ-JKFIT
	 Reference Energy          =    -811.4709728428555309 [Eh]
	 Singles Energy            =      -0.0000000000000000 [Eh]
	 Same-Spin Energy          =      -0.8299947751836706 [Eh]
	 Opposite-Spin Energy      =      -2.5245800041667410 [Eh]
	 Correlation Energy        =      -3.3545747793504117 [Eh]
	 Total Energy              =    -814.8255476222059315 [Eh]

	 ================> DF-SCS-MP2 Energies <==================
	-----------------------------------------------------------
	 SCS Same-Spin Scale       =       0.3333333333333333 [-]
	 SCS Opposite-Spin Scale   =       1.2000000000000000 [-]
	 SCS Same-Spin Energy      =      -0.2766649250612235 [Eh]
	 SCS Opposite-Spin Energy  =      -3.0294960050000892 [Eh]
	 SCS Correlation Energy    =      -3.3061609300613126 [Eh]
	 SCS Total Energy          =    -814.7771337729168408 [Eh]
	-----------------------------------------------------------

  Dipole Moment: [D]
     X:     1.5969      Y:    -4.9092      Z:     2.4099     Total:     5.6972

*** Psi4 exiting successfully. Buy a developer a beer!
