                               Psi4 1.3.2 release

  ==> Input File <==

--------------------------------------------------------------------------
#psi4
#
memory 32 gb

molecule  {
0 1
  O        1.3620710    -0.3800110    -0.9318440
  O        3.2020570     1.9012130    -0.2995130
  O        2.7994070    -2.7489470    -0.4002010
  O       -1.3621860     2.3740050     0.1547830
  N       -0.7982440     0.1994180    -0.2292560
  N       -3.0541720     0.8052390     0.2400120
  N       -4.6734100    -0.8124350     0.4126370
  C        2.7015950     0.8755540     0.5594740
  C        1.2368440     1.1072260     0.8878520
  C        2.6518190    -0.3922910    -0.2854700
  C        0.6675139     0.7159746    -0.4275742
  C        2.8020980    -1.6600160     0.5224700
  C       -1.1273370    -1.1158190    -0.3082760
  C       -1.7446880     1.2038920     0.0820450
  C       -2.4173070    -1.5045610    -0.1045420
  C       -3.3619920    -0.4731600     0.1685110
  H        3.3343810     0.7567850     1.4508530
  H        0.9047070     0.4438290     1.6934890
  H        0.9853290     2.1340670     1.1581470
  H        0.5274540     1.5132540    -1.1249130
  H        3.4174920    -0.3642830    -1.0666260
  H        1.9707490    -1.7331840     1.2432230
  H        3.7460890    -1.6095150     1.0882890
  H        3.1038510     2.7463240     0.1779830
  H       -0.3107400    -1.7892010    -0.5436980
  H        2.9100300    -3.5650720     0.1192120
  H       -2.7034680    -2.5490840    -0.1532500
  H       -5.0287110    -1.6377420    -0.0567190
  H       -5.2994710    -0.0137980     0.3861010
units angstrom
no_reorient  #important for SAPT in psi4, default
symmetry c1  #important for SAPT in psi4, default
}

set PROPERTIES_ORIGIN ["COM"]
properties('MP2/aug-cc-pvtz', properties = ['dipole'])
--------------------------------------------------------------------------

    Molecular point group: c1
  Charge       = 0
  Multiplicity = 1
  Basis Set: AUG-CC-PVTZ
    Blend: AUG-CC-PVTZ
  Basis Set: (AUG-CC-PVTZ AUX)
    Blend: AUG-CC-PVTZ-JKFIT

    Orbital Energies [Eh]
    ---------------------

    Doubly Occupied:

       1A    -20.582022     2A    -20.580179     3A    -20.578655
       4A    -20.497510     5A    -15.612415     6A    -15.584337
       7A    -15.535738     8A    -11.363582     9A    -11.340052
      10A    -11.336416    11A    -11.312626    12A    -11.304925
      13A    -11.299938    14A    -11.297232    15A    -11.239553
      16A    -11.231467    17A     -1.429420    18A     -1.377809
      19A     -1.376518    20A     -1.369687    21A     -1.285748
      22A     -1.248225    23A     -1.162059    24A     -1.086894
      25A     -1.065610    26A     -1.031725    27A     -0.924570
      28A     -0.890841    29A     -0.863227    30A     -0.833760
      31A     -0.811745    32A     -0.747837    33A     -0.736368
      34A     -0.724387    35A     -0.705835    36A     -0.698093
      37A     -0.689960    38A     -0.676736    39A     -0.654694
      40A     -0.637578    41A     -0.624014    42A     -0.617065
      43A     -0.603467    44A     -0.595676    45A     -0.587874
      46A     -0.575595    47A     -0.564299    48A     -0.547668
      49A     -0.535653    50A     -0.522921    51A     -0.517039
      52A     -0.492389    53A     -0.479333    54A     -0.471066
      55A     -0.462273    56A     -0.447481    57A     -0.437437
      58A     -0.408936    59A     -0.380807    60A     -0.329773

  @DF-RHF Final Energy:  -811.47044205838051

   => Energetics <=

    Nuclear Repulsion Energy =           1169.5052253835972351
    One-Electron Energy =               -3434.0978607664774245
    Two-Electron Energy =                1453.1221933244994489
    Total Energy =                       -811.4704420583805131
  Basis Set: (AUG-CC-PVTZ AUX)
    Blend: AUG-CC-PVTZ-RI
    Molecular point group: c1

    Geometry (in Angstrom), charge = 0, multiplicity = 1:

       Center              X                  Y                   Z               Mass
    ------------   -----------------  -----------------  -----------------  -----------------
         O            1.357127271001    -0.381753280850    -0.931175076811    15.994914619570
         O            3.197113271001     1.899470719150    -0.298844076811    15.994914619570
         O            2.794463271001    -2.750689280850    -0.399532076811    15.994914619570
         O           -1.367129728999     2.372262719150     0.155451923189    15.994914619570
         N           -0.803187728999     0.197675719150    -0.228587076811    14.003074004430
         N           -3.059115728999     0.803496719150     0.240680923189    14.003074004430
         N           -4.678353728999    -0.814177280850     0.413305923189    14.003074004430
         C            2.696651271001     0.873811719150     0.560142923189    12.000000000000
         C            1.231900271001     1.105483719150     0.888520923189    12.000000000000
         C            2.646875271001    -0.394033280850    -0.284801076811    12.000000000000
         C            0.662570171001     0.714232319150    -0.426905276811    12.000000000000
         C            2.797154271001    -1.661758280850     0.523138923189    12.000000000000
         C           -1.132280728999    -1.117561280850    -0.307607076811    12.000000000000
         C           -1.749631728999     1.202149719150     0.082713923189    12.000000000000
         C           -2.422250728999    -1.506303280850    -0.103873076811    12.000000000000
         C           -3.366935728999    -0.474902280850     0.169179923189    12.000000000000
         H            3.329437271001     0.755042719150     1.451521923189     1.007825032230
         H            0.899763271001     0.442086719150     1.694157923189     1.007825032230
         H            0.980385271001     2.132324719150     1.158815923189     1.007825032230
         H            0.522510271001     1.511511719150    -1.124244076811     1.007825032230
         H            3.412548271001    -0.366025280850    -1.065957076811     1.007825032230
         H            1.965805271001    -1.734926280850     1.243891923189     1.007825032230
         H            3.741145271001    -1.611257280850     1.088957923189     1.007825032230
         H            3.098907271001     2.744581719150     0.178651923189     1.007825032230
         H           -0.315683728999    -1.790943280850    -0.543029076811     1.007825032230
         H            2.905086271001    -3.566814280850     0.119880923189     1.007825032230
         H           -2.708411728999    -2.550826280850    -0.152581076811     1.007825032230
         H           -5.033654728999    -1.639484280850    -0.056050076811     1.007825032230
         H           -5.304414728999    -0.015540280850     0.386769923189     1.007825032230

  Basis Set: AUG-CC-PVTZ
    Blend: AUG-CC-PVTZ
  Basis Set: (AUG-CC-PVTZ AUX)
    Blend: AUG-CC-PVTZ-JKFIT
	 Reference Energy          =    -811.4704420583805131 [Eh]
	 Singles Energy            =      -0.0000000000000000 [Eh]
	 Same-Spin Energy          =      -0.8301292483694817 [Eh]
	 Opposite-Spin Energy      =      -2.5256895276029612 [Eh]
	 Correlation Energy        =      -3.3558187759724429 [Eh]
	 Total Energy              =    -814.8262608343529791 [Eh]

	 ================> DF-SCS-MP2 Energies <==================
	-----------------------------------------------------------
	 SCS Same-Spin Scale       =       0.3333333333333333 [-]
	 SCS Opposite-Spin Scale   =       1.2000000000000000 [-]
	 SCS Same-Spin Energy      =      -0.2767097494564938 [Eh]
	 SCS Opposite-Spin Energy  =      -3.0308274331235534 [Eh]
	 SCS Correlation Energy    =      -3.3075371825800470 [Eh]
	 SCS Total Energy          =    -814.7779792409605761 [Eh]
	-----------------------------------------------------------

  Dipole Moment: [D]
     X:     1.7032      Y:    -4.6183      Z:     2.4638     Total:     5.5045

*** Psi4 exiting successfully. Buy a developer a beer!
