                               Psi4 1.3.2 release

  ==> Input File <==

--------------------------------------------------------------------------
#psi4
#
memory 32 gb

molecule  {
0 1
  O        1.3620710    -0.3800110    -0.9318440
  O        3.2020570     1.9012130    -0.2995130
  O        2.7994070    -2.7489470    -0.4002010
  O       -1.3621860     2.3740050     0.1547830
  N       -0.7982440     0.1994180    -0.2292560
  N       -3.0541720     0.8052390     0.2400120
  N       -4.6734100    -0.8124350     0.4126370
  C        2.7015950     0.8755540     0.5594740
  C        1.2368440     1.1072260     0.8878520
  C        2.6518190    -0.3922910    -0.2854700
  C        0.5739580     0.6830040    -0.4149160
  C        2.8020980    -1.6600160     0.5224700
  C       -1.1273370    -1.1158190    -0.3082760
  C       -1.7446880     1.2038920     0.0820450
  C       -2.4173070    -1.5045610    -0.1045420
  C       -3.3619920    -0.4731600     0.1685110
  H        3.3343810     0.7567850     1.4508530
  H        0.9047070     0.4438290     1.6934890
  H        0.9853290     2.1340670     1.1581470
  H        0.5274540     1.5132540    -1.1249130
  H        3.5574449    -0.3591636    -1.2094090
  H        1.9707490    -1.7331840     1.2432230
  H        3.7460890    -1.6095150     1.0882890
  H        3.1038510     2.7463240     0.1779830
  H       -0.3107400    -1.7892010    -0.5436980
  H        2.9100300    -3.5650720     0.1192120
  H       -2.7034680    -2.5490840    -0.1532500
  H       -5.0287110    -1.6377420    -0.0567190
  H       -5.2994710    -0.0137980     0.3861010
units angstrom
no_reorient  #important for SAPT in psi4, default
symmetry c1  #important for SAPT in psi4, default
}

set PROPERTIES_ORIGIN ["COM"]
properties('MP2/aug-cc-pvtz', properties = ['dipole'])
--------------------------------------------------------------------------

    Molecular point group: c1
  Charge       = 0
  Multiplicity = 1
  Basis Set: AUG-CC-PVTZ
    Blend: AUG-CC-PVTZ
  Basis Set: (AUG-CC-PVTZ AUX)
    Blend: AUG-CC-PVTZ-JKFIT

    Orbital Energies [Eh]
    ---------------------

    Doubly Occupied:

       1A    -20.577524     2A    -20.575918     3A    -20.573976
       4A    -20.503693     5A    -15.622611     6A    -15.588820
       7A    -15.541381     8A    -11.370586     9A    -11.345602
      10A    -11.332075    11A    -11.318959    12A    -11.313683
      13A    -11.302454    14A    -11.298585    15A    -11.238042
      16A    -11.237647    17A     -1.417993    18A     -1.382866
      19A     -1.373276    20A     -1.366033    21A     -1.292851
      22A     -1.262088    23A     -1.169642    24A     -1.080025
      25A     -1.067596    26A     -1.025416    27A     -0.927657
      28A     -0.897352    29A     -0.868659    30A     -0.831706
      31A     -0.794580    32A     -0.754065    33A     -0.739471
      34A     -0.719563    35A     -0.707254    36A     -0.690424
      37A     -0.686754    38A     -0.673451    39A     -0.657234
      40A     -0.637727    41A     -0.628247    42A     -0.619038
      43A     -0.604696    44A     -0.593738    45A     -0.589278
      46A     -0.573124    47A     -0.555787    48A     -0.543780
      49A     -0.533130    50A     -0.523550    51A     -0.508577
      52A     -0.485027    53A     -0.479202    54A     -0.468037
      55A     -0.458986    56A     -0.442987    57A     -0.435019
      58A     -0.416568    59A     -0.384233    60A     -0.335587

  @DF-RHF Final Energy:  -811.45814527950915

   => Energetics <=

    Nuclear Repulsion Energy =           1168.7615921672968398
    One-Electron Energy =               -3432.5518209174319963
    Two-Electron Energy =                1452.3320834706260030
    Total Energy =                       -811.4581452795091536
  Basis Set: (AUG-CC-PVTZ AUX)
    Blend: AUG-CC-PVTZ-RI
    Molecular point group: c1

    Geometry (in Angstrom), charge = 0, multiplicity = 1:

       Center              X                  Y                   Z               Mass
    ------------   -----------------  -----------------  -----------------  -----------------
         O            1.361449875012    -0.380033756879    -0.931210296755    15.994914619570
         O            3.201435875012     1.901190243121    -0.298879296755    15.994914619570
         O            2.798785875012    -2.748969756879    -0.399567296755    15.994914619570
         O           -1.362807124988     2.373982243121     0.155416703245    15.994914619570
         N           -0.798865124988     0.199395243121    -0.228622296755    14.003074004430
         N           -3.054793124988     0.805216243121     0.240645703245    14.003074004430
         N           -4.674031124988    -0.812457756879     0.413270703245    14.003074004430
         C            2.700973875012     0.875531243121     0.560107703245    12.000000000000
         C            1.236222875012     1.107203243121     0.888485703245    12.000000000000
         C            2.651197875012    -0.392313756879    -0.284836296755    12.000000000000
         C            0.573336875012     0.682981243121    -0.414282296755    12.000000000000
         C            2.801476875012    -1.660038756879     0.523103703245    12.000000000000
         C           -1.127958124988    -1.115841756879    -0.307642296755    12.000000000000
         C           -1.745309124988     1.203869243121     0.082678703245    12.000000000000
         C           -2.417928124988    -1.504583756879    -0.103908296755    12.000000000000
         C           -3.362613124988    -0.473182756879     0.169144703245    12.000000000000
         H            3.333759875012     0.756762243121     1.451486703245     1.007825032230
         H            0.904085875012     0.443806243121     1.694122703245     1.007825032230
         H            0.984707875012     2.134044243121     1.158780703245     1.007825032230
         H            0.526832875012     1.513231243121    -1.124279296755     1.007825032230
         H            3.556823775012    -0.359186356879    -1.208775296755     1.007825032230
         H            1.970127875012    -1.733206756879     1.243856703245     1.007825032230
         H            3.745467875012    -1.609537756879     1.088922703245     1.007825032230
         H            3.103229875012     2.746301243121     0.178616703245     1.007825032230
         H           -0.311361124988    -1.789223756879    -0.543064296755     1.007825032230
         H            2.909408875012    -3.565094756879     0.119845703245     1.007825032230
         H           -2.704089124988    -2.549106756879    -0.152616296755     1.007825032230
         H           -5.029332124988    -1.637764756879    -0.056085296755     1.007825032230
         H           -5.300092124988    -0.013820756879     0.386734703245     1.007825032230

  Basis Set: AUG-CC-PVTZ
    Blend: AUG-CC-PVTZ
  Basis Set: (AUG-CC-PVTZ AUX)
    Blend: AUG-CC-PVTZ-JKFIT
	 Reference Energy          =    -811.4581452795091536 [Eh]
	 Singles Energy            =      -0.0000000000000000 [Eh]
	 Same-Spin Energy          =      -0.8303101367264836 [Eh]
	 Opposite-Spin Energy      =      -2.5275341900864503 [Eh]
	 Correlation Energy        =      -3.3578443268129341 [Eh]
	 Total Energy              =    -814.8159896063220913 [Eh]

	 ================> DF-SCS-MP2 Energies <==================
	-----------------------------------------------------------
	 SCS Same-Spin Scale       =       0.3333333333333333 [-]
	 SCS Opposite-Spin Scale   =       1.2000000000000000 [-]
	 SCS Same-Spin Energy      =      -0.2767700455754945 [Eh]
	 SCS Opposite-Spin Energy  =      -3.0330410281037401 [Eh]
	 SCS Correlation Energy    =      -3.3098110736792345 [Eh]
	 SCS Total Energy          =    -814.7679563531884241 [Eh]
	-----------------------------------------------------------

  Dipole Moment: [D]
     X:     0.9520      Y:    -4.6674      Z:     2.5213     Total:     5.3896

*** Psi4 exiting successfully. Buy a developer a beer!
