                               Psi4 1.3.2 release

  ==> Input File <==

--------------------------------------------------------------------------
#psi4
#
memory 32 gb

molecule  {
0 1
  O        1.3620710    -0.3800110    -0.9318440
  O        3.2020570     1.9012130    -0.2995130
  O        2.7994070    -2.7489470    -0.4002010
  O       -1.3621860     2.3740050     0.1547830
  N       -0.7982440     0.1994180    -0.2292560
  N       -3.0541720     0.8052390     0.2400120
  N       -4.6734100    -0.8124350     0.4126370
  C        2.7015950     0.8755540     0.5594740
  C        1.2368440     1.1072260     0.8878520
  C        2.6680111    -0.4042444    -0.2680689
  C        0.5739580     0.6830040    -0.4149160
  C        2.8020980    -1.6600160     0.5224700
  C       -1.1273370    -1.1158190    -0.3082760
  C       -1.7446880     1.2038920     0.0820450
  C       -2.4173070    -1.5045610    -0.1045420
  C       -3.3619920    -0.4731600     0.1685110
  H        3.3381207     0.7387143     1.4455839
  H        0.9047070     0.4438290     1.6934890
  H        0.9853290     2.1340670     1.1581470
  H        0.5274540     1.5132540    -1.1249130
  H        3.4174920    -0.3642830    -1.0666260
  H        1.9707490    -1.7331840     1.2432230
  H        3.7460890    -1.6095150     1.0882890
  H        3.1038510     2.7463240     0.1779830
  H       -0.3107400    -1.7892010    -0.5436980
  H        2.9100300    -3.5650720     0.1192120
  H       -2.7034680    -2.5490840    -0.1532500
  H       -5.0287110    -1.6377420    -0.0567190
  H       -5.2994710    -0.0137980     0.3861010
units angstrom
no_reorient  #important for SAPT in psi4, default
symmetry c1  #important for SAPT in psi4, default
}

set PROPERTIES_ORIGIN ["COM"]
properties('MP2/aug-cc-pvtz', properties = ['dipole'])
--------------------------------------------------------------------------

    Molecular point group: c1
  Charge       = 0
  Multiplicity = 1
  Basis Set: AUG-CC-PVTZ
    Blend: AUG-CC-PVTZ
  Basis Set: (AUG-CC-PVTZ AUX)
    Blend: AUG-CC-PVTZ-JKFIT

    Orbital Energies [Eh]
    ---------------------

    Doubly Occupied:

       1A    -20.578897     2A    -20.575269     3A    -20.570201
       4A    -20.502550     5A    -15.620977     6A    -15.587981
       7A    -15.540323     8A    -11.369337     9A    -11.344571
      10A    -11.329401    11A    -11.317669    12A    -11.301823
      13A    -11.297692    14A    -11.293747    15A    -11.236893
      16A    -11.236490    17A     -1.411687    18A     -1.381996
      19A     -1.374641    20A     -1.364269    21A     -1.291562
      22A     -1.260392    23A     -1.168544    24A     -1.078753
      25A     -1.070703    26A     -1.029510    27A     -0.928080
      28A     -0.896846    29A     -0.868958    30A     -0.829399
      31A     -0.805620    32A     -0.753743    33A     -0.737428
      34A     -0.721050    35A     -0.707080    36A     -0.692849
      37A     -0.689268    38A     -0.675570    39A     -0.656068
      40A     -0.637228    41A     -0.626498    42A     -0.618393
      43A     -0.605090    44A     -0.594804    45A     -0.587705
      46A     -0.571953    47A     -0.567623    48A     -0.544604
      49A     -0.532298    50A     -0.522848    51A     -0.510635
      52A     -0.485230    53A     -0.482023    54A     -0.469022
      55A     -0.462535    56A     -0.444675    57A     -0.438462
      58A     -0.415844    59A     -0.383311    60A     -0.334402

  @DF-RHF Final Energy:  -811.47798114048646

   => Energetics <=

    Nuclear Repulsion Energy =           1169.6785624603801352
    One-Electron Energy =               -3434.4470538665746062
    Two-Electron Energy =                1453.2905102657082352
    Total Energy =                       -811.4779811404864631
  Basis Set: (AUG-CC-PVTZ AUX)
    Blend: AUG-CC-PVTZ-RI
    Molecular point group: c1

    Geometry (in Angstrom), charge = 0, multiplicity = 1:

       Center              X                  Y                   Z               Mass
    ------------   -----------------  -----------------  -----------------  -----------------
         O            1.361198758824    -0.379299193850    -0.932740096498    15.994914619570
         O            3.201184758824     1.901924806150    -0.300409096498    15.994914619570
         O            2.798534758824    -2.748235193850    -0.401097096498    15.994914619570
         O           -1.363058241176     2.374716806150     0.153886903502    15.994914619570
         N           -0.799116241176     0.200129806150    -0.230152096498    14.003074004430
         N           -3.055044241176     0.805950806150     0.239115903502    14.003074004430
         N           -4.674282241176    -0.811723193850     0.411740903502    14.003074004430
         C            2.700722758824     0.876265806150     0.558577903502    12.000000000000
         C            1.235971758824     1.107937806150     0.886955903502    12.000000000000
         C            2.667138858824    -0.403532593850    -0.268964996498    12.000000000000
         C            0.573085758824     0.683715806150    -0.415812096498    12.000000000000
         C            2.801225758824    -1.659304193850     0.521573903502    12.000000000000
         C           -1.128209241176    -1.115107193850    -0.309172096498    12.000000000000
         C           -1.745560241176     1.204603806150     0.081148903502    12.000000000000
         C           -2.418179241176    -1.503849193850    -0.105438096498    12.000000000000
         C           -3.362864241176    -0.472448193850     0.167614903502    12.000000000000
         H            3.337248458824     0.739426106150     1.444687803502     1.007825032230
         H            0.903834758824     0.444540806150     1.692592903502     1.007825032230
         H            0.984456758824     2.134778806150     1.157250903502     1.007825032230
         H            0.526581758824     1.513965806150    -1.125809096498     1.007825032230
         H            3.416619758824    -0.363571193850    -1.067522096498     1.007825032230
         H            1.969876758824    -1.732472193850     1.242326903502     1.007825032230
         H            3.745216758824    -1.608803193850     1.087392903502     1.007825032230
         H            3.102978758824     2.747035806150     0.177086903502     1.007825032230
         H           -0.311612241176    -1.788489193850    -0.544594096498     1.007825032230
         H            2.909157758824    -3.564360193850     0.118315903502     1.007825032230
         H           -2.704340241176    -2.548372193850    -0.154146096498     1.007825032230
         H           -5.029583241176    -1.637030193850    -0.057615096498     1.007825032230
         H           -5.300343241176    -0.013086193850     0.385204903502     1.007825032230

  Basis Set: AUG-CC-PVTZ
    Blend: AUG-CC-PVTZ
  Basis Set: (AUG-CC-PVTZ AUX)
    Blend: AUG-CC-PVTZ-JKFIT
	 Reference Energy          =    -811.4779811404864631 [Eh]
	 Singles Energy            =      -0.0000000000000000 [Eh]
	 Same-Spin Energy          =      -0.8298687885002769 [Eh]
	 Opposite-Spin Energy      =      -2.5256019089326585 [Eh]
	 Correlation Energy        =      -3.3554706974329354 [Eh]
	 Total Energy              =    -814.8334518379193696 [Eh]

	 ================> DF-SCS-MP2 Energies <==================
	-----------------------------------------------------------
	 SCS Same-Spin Scale       =       0.3333333333333333 [-]
	 SCS Opposite-Spin Scale   =       1.2000000000000000 [-]
	 SCS Same-Spin Energy      =      -0.2766229295000923 [Eh]
	 SCS Opposite-Spin Energy  =      -3.0307222907191900 [Eh]
	 SCS Correlation Energy    =      -3.3073452202192821 [Eh]
	 SCS Total Energy          =    -814.7853263607057670 [Eh]
	-----------------------------------------------------------

  Dipole Moment: [D]
     X:     1.1656      Y:    -4.7147      Z:     2.5188     Total:     5.4709

*** Psi4 exiting successfully. Buy a developer a beer!
