                               Psi4 1.3.2 release

  ==> Input File <==

--------------------------------------------------------------------------
#psi4
#
memory 32 gb

molecule  {
0 1
  O        1.3300066    -0.3822638    -0.8634937
  O        3.2020570     1.9012130    -0.2995130
  O        2.7994070    -2.7489470    -0.4002010
  O       -1.3621860     2.3740050     0.1547830
  N       -0.7982440     0.1994180    -0.2292560
  N       -3.0541720     0.8052390     0.2400120
  N       -4.6734100    -0.8124350     0.4126370
  C        2.7015950     0.8755540     0.5594740
  C        1.2368440     1.1072260     0.8878520
  C        2.6518190    -0.3922910    -0.2854700
  C        0.5739580     0.6830040    -0.4149160
  C        2.8020980    -1.6600160     0.5224700
  C       -1.1273370    -1.1158190    -0.3082760
  C       -1.7446880     1.2038920     0.0820450
  C       -2.4173070    -1.5045610    -0.1045420
  C       -3.3619920    -0.4731600     0.1685110
  H        3.3343810     0.7567850     1.4508530
  H        0.9047070     0.4438290     1.6934890
  H        0.9853290     2.1340670     1.1581470
  H        0.5274540     1.5132540    -1.1249130
  H        3.4573502    -0.3653036    -1.0254940
  H        1.9707490    -1.7331840     1.2432230
  H        3.7460890    -1.6095150     1.0882890
  H        3.1038510     2.7463240     0.1779830
  H       -0.3107400    -1.7892010    -0.5436980
  H        2.9100300    -3.5650720     0.1192120
  H       -2.7034680    -2.5490840    -0.1532500
  H       -5.0287110    -1.6377420    -0.0567190
  H       -5.2994710    -0.0137980     0.3861010
units angstrom
no_reorient  #important for SAPT in psi4, default
symmetry c1  #important for SAPT in psi4, default
}

set PROPERTIES_ORIGIN ["COM"]
properties('MP2/aug-cc-pvtz', properties = ['dipole'])
--------------------------------------------------------------------------

    Molecular point group: c1
  Charge       = 0
  Multiplicity = 1
  Basis Set: AUG-CC-PVTZ
    Blend: AUG-CC-PVTZ
  Basis Set: (AUG-CC-PVTZ AUX)
    Blend: AUG-CC-PVTZ-JKFIT

    Orbital Energies [Eh]
    ---------------------

    Doubly Occupied:

       1A    -20.578386     2A    -20.574487     3A    -20.573565
       4A    -20.502070     5A    -15.619967     6A    -15.587620
       7A    -15.539795     8A    -11.368689     9A    -11.344109
      10A    -11.328479    11A    -11.317122    12A    -11.300149
      13A    -11.296997    14A    -11.296104    15A    -11.236034
      16A    -11.234119    17A     -1.429026    18A     -1.381784
      19A     -1.374080    20A     -1.368546    21A     -1.291234
      22A     -1.260212    23A     -1.168155    24A     -1.076845
      25A     -1.071191    26A     -1.029279    27A     -0.926483
      28A     -0.897090    29A     -0.868782    30A     -0.832083
      31A     -0.807132    32A     -0.753499    33A     -0.740568
      34A     -0.722918    35A     -0.706540    36A     -0.694715
      37A     -0.689077    38A     -0.680124    39A     -0.658601
      40A     -0.636966    41A     -0.626893    42A     -0.618316
      43A     -0.603355    44A     -0.596299    45A     -0.589529
      46A     -0.576008    47A     -0.572572    48A     -0.543400
      49A     -0.531576    50A     -0.523209    51A     -0.509498
      52A     -0.484858    53A     -0.480851    54A     -0.468916
      55A     -0.461884    56A     -0.443356    57A     -0.437186
      58A     -0.415369    59A     -0.382792    60A     -0.333861

  @DF-RHF Final Energy:  -811.47816020639686

   => Energetics <=

    Nuclear Repulsion Energy =           1171.7652285621652481
    One-Electron Energy =               -3438.5620798151921917
    Two-Electron Energy =                1455.3186910466299651
    Total Energy =                       -811.4781602063969785
  Basis Set: (AUG-CC-PVTZ AUX)
    Blend: AUG-CC-PVTZ-RI
    Molecular point group: c1

    Geometry (in Angstrom), charge = 0, multiplicity = 1:

       Center              X                  Y                   Z               Mass
    ------------   -----------------  -----------------  -----------------  -----------------
         O            1.332088119986    -0.382100633779    -0.868490398543    15.994914619570
         O            3.204138519986     1.901376166221    -0.304509698543    15.994914619570
         O            2.801488519986    -2.748783833779    -0.405197698543    15.994914619570
         O           -1.360104480014     2.374168166221     0.149786301457    15.994914619570
         N           -0.796162480014     0.199581166221    -0.234252698543    14.003074004430
         N           -3.052090480014     0.805402166221     0.235015301457    14.003074004430
         N           -4.671328480014    -0.812271833779     0.407640301457    14.003074004430
         C            2.703676519986     0.875717166221     0.554477301457    12.000000000000
         C            1.238925519986     1.107389166221     0.882855301457    12.000000000000
         C            2.653900519986    -0.392127833779    -0.290466698543    12.000000000000
         C            0.576039519986     0.683167166221    -0.419912698543    12.000000000000
         C            2.804179519986    -1.659852833779     0.517473301457    12.000000000000
         C           -1.125255480014    -1.115655833779    -0.313272698543    12.000000000000
         C           -1.742606480014     1.204055166221     0.077048301457    12.000000000000
         C           -2.415225480014    -1.504397833779    -0.109538698543    12.000000000000
         C           -3.359910480014    -0.472996833779     0.163514301457    12.000000000000
         H            3.336462519986     0.756948166221     1.445856301457     1.007825032230
         H            0.906788519986     0.443992166221     1.688492301457     1.007825032230
         H            0.987410519986     2.134230166221     1.153150301457     1.007825032230
         H            0.529535519986     1.513417166221    -1.129909698543     1.007825032230
         H            3.459431719986    -0.365140433779    -1.030490698543     1.007825032230
         H            1.972830519986    -1.733020833779     1.238226301457     1.007825032230
         H            3.748170519986    -1.609351833779     1.083292301457     1.007825032230
         H            3.105932519986     2.746487166221     0.172986301457     1.007825032230
         H           -0.308658480014    -1.789037833779    -0.548694698543     1.007825032230
         H            2.912111519986    -3.564908833779     0.114215301457     1.007825032230
         H           -2.701386480014    -2.548920833779    -0.158246698543     1.007825032230
         H           -5.026629480014    -1.637578833779    -0.061715698543     1.007825032230
         H           -5.297389480014    -0.013634833779     0.381104301457     1.007825032230

  Basis Set: AUG-CC-PVTZ
    Blend: AUG-CC-PVTZ
  Basis Set: (AUG-CC-PVTZ AUX)
    Blend: AUG-CC-PVTZ-JKFIT
	 Reference Energy          =    -811.4781602063968649 [Eh]
	 Singles Energy            =      -0.0000000000000000 [Eh]
	 Same-Spin Energy          =      -0.8296639432138069 [Eh]
	 Opposite-Spin Energy      =      -2.5242538646926276 [Eh]
	 Correlation Energy        =      -3.3539178079064342 [Eh]
	 Total Energy              =    -814.8320780143033062 [Eh]

	 ================> DF-SCS-MP2 Energies <==================
	-----------------------------------------------------------
	 SCS Same-Spin Scale       =       0.3333333333333333 [-]
	 SCS Opposite-Spin Scale   =       1.2000000000000000 [-]
	 SCS Same-Spin Energy      =      -0.2765546477379356 [Eh]
	 SCS Opposite-Spin Energy  =      -3.0291046376311530 [Eh]
	 SCS Correlation Energy    =      -3.3056592853690887 [Eh]
	 SCS Total Energy          =    -814.7838194917659393 [Eh]
	-----------------------------------------------------------

  Dipole Moment: [D]
     X:     1.2250      Y:    -4.7278      Z:     2.3630     Total:     5.4255

*** Psi4 exiting successfully. Buy a developer a beer!
