                               Psi4 1.4a3.dev225

  ==> Input File <==

--------------------------------------------------------------------------
#psi4
#
memory 32 gb

molecule  {
0 1
  O       -1.4695130     0.3030610    -1.0874480
  O       -3.6436400    -1.4204040    -0.2669360
  O       -1.6911330     2.8536240     0.0000030
  O        1.1857770    -2.4961310     0.0874550
  N        0.6842480    -0.3150290    -0.3399290
  N        2.9133760    -0.9647370     0.2108410
  N        4.5636770     0.6178870     0.3785230
  C       -2.7686820    -0.6858470     0.5863090
  C       -1.3787780    -1.3118450     0.6568060
  C       -2.4925280     0.6283540    -0.1295840
  C       -0.6939390    -0.7805590    -0.6115670
  C       -2.0414120     1.7324860     0.8087370
  C        1.0545030     0.9838330    -0.4888120
  C        1.6080830    -1.3384950     0.0010630
  C        2.3487550     1.3478080    -0.2622830
  C        3.2578570     0.3046130     0.0876290
  H       -3.2188600    -0.5381750     1.5798200
  H       -0.8341690    -0.9801840     1.5464130
  H       -1.3950130    -2.4033150     0.6754970
  H       -0.6263030    -1.5384450    -1.3968420
  H       -3.3591510     0.9641520    -0.7058050
  H       -1.1849610     1.3939850     1.4098140
  H       -2.8667900     1.9743150     1.4948250
  H       -3.6905400    -2.3294490     0.0774600
  H        0.2813387     1.6622865    -0.7655343
  H       -1.4321050     3.5760960     0.5972330
  H        2.6621150     2.3809760    -0.3596430
  H        4.9550500     1.4416620    -0.0591730
  H        5.1797170    -0.1867780     0.4106900
units angstrom
no_reorient  #important for SAPT in psi4, default
symmetry c1  #important for SAPT in psi4, default
}

set PROPERTIES_ORIGIN ["COM"]
properties('MP2/aug-cc-pvtz', properties = ['dipole'])
--------------------------------------------------------------------------

    Molecular point group: c1
  Charge       = 0
  Multiplicity = 1
  Basis Set: AUG-CC-PVTZ
    Blend: AUG-CC-PVTZ
  Basis Set: (AUG-CC-PVTZ AUX)
    Blend: AUG-CC-PVTZ-JKFIT

    Orbital Energies [Eh]
    ---------------------

    Doubly Occupied:

       1A    -20.583339     2A    -20.574376     3A    -20.572613
       4A    -20.501897     5A    -15.619053     6A    -15.588975
       7A    -15.539922     8A    -11.368766     9A    -11.345883
      10A    -11.333141    11A    -11.312923    12A    -11.300147
      13A    -11.299465    14A    -11.294684    15A    -11.237225
      16A    -11.235456    17A     -1.418808    18A     -1.381579
      19A     -1.377443    20A     -1.366050    21A     -1.290343
      22A     -1.258766    23A     -1.168569    24A     -1.076385
      25A     -1.068141    26A     -1.024827    27A     -0.930100
      28A     -0.896736    29A     -0.867916    30A     -0.830292
      31A     -0.805295    32A     -0.753758    33A     -0.738441
      34A     -0.725374    35A     -0.708096    36A     -0.702100
      37A     -0.690337    38A     -0.674180    39A     -0.651420
      40A     -0.642082    41A     -0.622775    42A     -0.617956
      43A     -0.606871    44A     -0.596458    45A     -0.588864
      46A     -0.572571    47A     -0.565728    48A     -0.551162
      49A     -0.526765    50A     -0.520542    51A     -0.510907
      52A     -0.485063    53A     -0.480798    54A     -0.472249
      55A     -0.459491    56A     -0.448336    57A     -0.440818
      58A     -0.413711    59A     -0.382465    60A     -0.333999

  @DF-RHF Final Energy:  -811.47946401582203

   => Energetics <=

    Nuclear Repulsion Energy =           1185.2293913434623391
    One-Electron Energy =               -3465.5128387947456758
    Two-Electron Energy =                1468.8039834354613049
    Total Energy =                       -811.4794640158220318
  Basis Set: (AUG-CC-PVTZ AUX)
    Blend: AUG-CC-PVTZ-RI
    Molecular point group: c1

    Geometry (in Angstrom), charge = 0, multiplicity = 1:

       Center              X                  Y                   Z               Mass
    ------------   -----------------  -----------------  -----------------  -----------------
         O           -1.494036678347     0.326832942400    -1.067843772575    15.994914619570
         O           -3.668163678347    -1.396632057600    -0.247331772575    15.994914619570
         O           -1.715656678347     2.877395942400     0.019607227425    15.994914619570
         O            1.161253321653    -2.472359057600     0.107059227425    15.994914619570
         N            0.659724321653    -0.291257057600    -0.320324772575    14.003074004430
         N            2.888852321653    -0.940965057600     0.230445227425    14.003074004430
         N            4.539153321653     0.641658942400     0.398127227425    14.003074004430
         C           -2.793205678347    -0.662075057600     0.605913227425    12.000000000000
         C           -1.403301678347    -1.288073057600     0.676410227425    12.000000000000
         C           -2.517051678347     0.652125942400    -0.109979772575    12.000000000000
         C           -0.718462678347    -0.756787057600    -0.591962772575    12.000000000000
         C           -2.065935678347     1.756257942400     0.828341227425    12.000000000000
         C            1.029979321653     1.007604942400    -0.469207772575    12.000000000000
         C            1.583559321653    -1.314723057600     0.020667227425    12.000000000000
         C            2.324231321653     1.371579942400    -0.242678772575    12.000000000000
         C            3.233333321653     0.328384942400     0.107233227425    12.000000000000
         H           -3.243383678347    -0.514403057600     1.599424227425     1.007825032230
         H           -0.858692678347    -0.956412057600     1.566017227425     1.007825032230
         H           -1.419536678347    -2.379543057600     0.695101227425     1.007825032230
         H           -0.650826678347    -1.514673057600    -1.377237772575     1.007825032230
         H           -3.383674678347     0.987923942400    -0.686200772575     1.007825032230
         H           -1.209484678347     1.417756942400     1.429418227425     1.007825032230
         H           -2.891313678347     1.998086942400     1.514429227425     1.007825032230
         H           -3.715063678347    -2.305677057600     0.097064227425     1.007825032230
         H            0.256815021653     1.686058442400    -0.745930072575     1.007825032230
         H           -1.456628678347     3.599867942400     0.616837227425     1.007825032230
         H            2.637591321653     2.404747942400    -0.340038772575     1.007825032230
         H            4.930526321653     1.465433942400    -0.039568772575     1.007825032230
         H            5.155193321653    -0.163006057600     0.430294227425     1.007825032230

  Basis Set: AUG-CC-PVTZ
    Blend: AUG-CC-PVTZ
  Basis Set: (AUG-CC-PVTZ AUX)
    Blend: AUG-CC-PVTZ-JKFIT
	 Reference Energy          =    -811.4794640158220318 [Eh]
	 Singles Energy            =      -0.0000000000000000 [Eh]
	 Same-Spin Energy          =      -0.8306775759162868 [Eh]
	 Opposite-Spin Energy      =      -2.5268174760964035 [Eh]
	 Correlation Energy        =      -3.3574950520126903 [Eh]
	 Total Energy              =    -814.8369590678347549 [Eh]

	 ================> DF-SCS-MP2 Energies <==================
	-----------------------------------------------------------
	 SCS Same-Spin Scale       =       0.3333333333333333 [-]
	 SCS Opposite-Spin Scale   =       1.2000000000000000 [-]
	 SCS Same-Spin Energy      =      -0.2768925253054289 [Eh]
	 SCS Opposite-Spin Energy  =      -3.0321809713156842 [Eh]
	 SCS Correlation Energy    =      -3.3090734966211133 [Eh]
	 SCS Total Energy          =    -814.7885375124430993 [Eh]
	-----------------------------------------------------------

  Dipole Moment: [D]
     X:    -0.3126      Y:     4.5929      Z:     2.4082     Total:     5.1954

*** Psi4 exiting successfully. Buy a developer a beer!
