                               Psi4 1.3.2 release

  ==> Input File <==

--------------------------------------------------------------------------
#psi4
#
memory 32 gb

molecule  {
0 1
  O        1.3620710    -0.3800110    -0.9318440
  O        3.2020570     1.9012130    -0.2995130
  O        2.7994070    -2.7489470    -0.4002010
  O       -1.3621860     2.3740050     0.1547830
  N       -0.7982440     0.1994180    -0.2292560
  N       -3.0541720     0.8052390     0.2400120
  N       -4.6734100    -0.8124350     0.4126370
  C        2.7015950     0.8755540     0.5594740
  C        1.2368440     1.1072260     0.8878520
  C        2.6518190    -0.3922910    -0.2854700
  C        0.5890162     0.6346613    -0.4224803
  C        2.8020980    -1.6600160     0.5224700
  C       -1.0818495    -1.1258156    -0.3171118
  C       -1.7446880     1.2038920     0.0820450
  C       -2.4173070    -1.5045610    -0.1045420
  C       -3.3619920    -0.4731600     0.1685110
  H        3.3343810     0.7567850     1.4508530
  H        0.9047070     0.4438290     1.6934890
  H        0.9853290     2.1340670     1.1581470
  H        0.5274540     1.5132540    -1.1249130
  H        3.4174920    -0.3642830    -1.0666260
  H        1.9707490    -1.7331840     1.2432230
  H        3.7460890    -1.6095150     1.0882890
  H        3.1038510     2.7463240     0.1779830
  H       -0.3107400    -1.7892010    -0.5436980
  H        2.9100300    -3.5650720     0.1192120
  H       -2.7034680    -2.5490840    -0.1532500
  H       -5.0287110    -1.6377420    -0.0567190
  H       -5.2994710    -0.0137980     0.3861010
units angstrom
no_reorient  #important for SAPT in psi4, default
symmetry c1  #important for SAPT in psi4, default
}

set PROPERTIES_ORIGIN ["COM"]
properties('MP2/aug-cc-pvtz', properties = ['dipole'])
--------------------------------------------------------------------------

    Molecular point group: c1
  Charge       = 0
  Multiplicity = 1
  Basis Set: AUG-CC-PVTZ
    Blend: AUG-CC-PVTZ
  Basis Set: (AUG-CC-PVTZ AUX)
    Blend: AUG-CC-PVTZ-JKFIT

    Orbital Energies [Eh]
    ---------------------

    Doubly Occupied:

       1A    -20.580078     2A    -20.578757     3A    -20.574717
       4A    -20.502596     5A    -15.623956     6A    -15.586464
       7A    -15.540120     8A    -11.371015     9A    -11.343286
      10A    -11.330549    11A    -11.321990    12A    -11.301665
      13A    -11.299604    14A    -11.297267    15A    -11.239246
      16A    -11.236631    17A     -1.432201    18A     -1.382209
      19A     -1.375286    20A     -1.370005    21A     -1.290807
      22A     -1.262185    23A     -1.168094    24A     -1.078410
      25A     -1.065014    26A     -1.025600    27A     -0.926343
      28A     -0.904092    29A     -0.868754    30A     -0.830657
      31A     -0.808264    32A     -0.752406    33A     -0.742383
      34A     -0.723544    35A     -0.709139    36A     -0.696126
      37A     -0.689568    38A     -0.678596    39A     -0.662345
      40A     -0.635459    41A     -0.626828    42A     -0.620787
      43A     -0.606811    44A     -0.597434    45A     -0.592985
      46A     -0.573172    47A     -0.567019    48A     -0.547339
      49A     -0.532504    50A     -0.524038    51A     -0.508136
      52A     -0.489298    53A     -0.480943    54A     -0.470786
      55A     -0.461951    56A     -0.442881    57A     -0.434256
      58A     -0.416806    59A     -0.381622    60A     -0.328386

  @DF-RHF Final Energy:  -811.47218630007160

   => Energetics <=

    Nuclear Repulsion Energy =           1170.2268773190839966
    One-Electron Energy =               -3435.3793053205490651
    Two-Electron Energy =                1453.6802417013934701
    Total Energy =                       -811.4721863000715985
  Basis Set: (AUG-CC-PVTZ AUX)
    Blend: AUG-CC-PVTZ-RI
    Molecular point group: c1

    Geometry (in Angstrom), charge = 0, multiplicity = 1:

       Center              X                  Y                   Z               Mass
    ------------   -----------------  -----------------  -----------------  -----------------
         O            1.358871607357    -0.376928251670    -0.930977346042    15.994914619570
         O            3.198857607357     1.904295748330    -0.298646346042    15.994914619570
         O            2.796207607357    -2.745864251670    -0.399334346042    15.994914619570
         O           -1.365385392643     2.377087748330     0.155649653958    15.994914619570
         N           -0.801443392643     0.202500748330    -0.228389346042    14.003074004430
         N           -3.057371392643     0.808321748330     0.240878653958    14.003074004430
         N           -4.676609392643    -0.809352251670     0.413503653958    14.003074004430
         C            2.698395607357     0.878636748330     0.560340653958    12.000000000000
         C            1.233644607357     1.110308748330     0.888718653958    12.000000000000
         C            2.648619607357    -0.389208251670    -0.284603346042    12.000000000000
         C            0.585816807357     0.637744048330    -0.421613646042    12.000000000000
         C            2.798898607357    -1.656933251670     0.523336653958    12.000000000000
         C           -1.085048892643    -1.122732851670    -0.316245146042    12.000000000000
         C           -1.747887392643     1.206974748330     0.082911653958    12.000000000000
         C           -2.420506392643    -1.501478251670    -0.103675346042    12.000000000000
         C           -3.365191392643    -0.470077251670     0.169377653958    12.000000000000
         H            3.331181607357     0.759867748330     1.451719653958     1.007825032230
         H            0.901507607357     0.446911748330     1.694355653958     1.007825032230
         H            0.982129607357     2.137149748330     1.159013653958     1.007825032230
         H            0.524254607357     1.516336748330    -1.124046346042     1.007825032230
         H            3.414292607357    -0.361200251670    -1.065759346042     1.007825032230
         H            1.967549607357    -1.730101251670     1.244089653958     1.007825032230
         H            3.742889607357    -1.606432251670     1.089155653958     1.007825032230
         H            3.100651607357     2.749406748330     0.178849653958     1.007825032230
         H           -0.313939392643    -1.786118251670    -0.542831346042     1.007825032230
         H            2.906830607357    -3.561989251670     0.120078653958     1.007825032230
         H           -2.706667392643    -2.546001251670    -0.152383346042     1.007825032230
         H           -5.031910392643    -1.634659251670    -0.055852346042     1.007825032230
         H           -5.302670392643    -0.010715251670     0.386967653958     1.007825032230

  Basis Set: AUG-CC-PVTZ
    Blend: AUG-CC-PVTZ
  Basis Set: (AUG-CC-PVTZ AUX)
    Blend: AUG-CC-PVTZ-JKFIT
	 Reference Energy          =    -811.4721863000715985 [Eh]
	 Singles Energy            =      -0.0000000000000000 [Eh]
	 Same-Spin Energy          =      -0.8302992512614320 [Eh]
	 Opposite-Spin Energy      =      -2.5257808001359283 [Eh]
	 Correlation Energy        =      -3.3560800513973605 [Eh]
	 Total Energy              =    -814.8282663514689830 [Eh]

	 ================> DF-SCS-MP2 Energies <==================
	-----------------------------------------------------------
	 SCS Same-Spin Scale       =       0.3333333333333333 [-]
	 SCS Opposite-Spin Scale   =       1.2000000000000000 [-]
	 SCS Same-Spin Energy      =      -0.2767664170871440 [Eh]
	 SCS Opposite-Spin Energy  =      -3.0309369601631140 [Eh]
	 SCS Correlation Energy    =      -3.3077033772502578 [Eh]
	 SCS Total Energy          =    -814.7798896773218758 [Eh]
	-----------------------------------------------------------

  Dipole Moment: [D]
     X:     1.3236      Y:    -4.7827      Z:     2.4582     Total:     5.5379

*** Psi4 exiting successfully. Buy a developer a beer!
