                               Psi4 1.4a3.dev225

  ==> Input File <==

--------------------------------------------------------------------------
#psi4
#
memory 32 gb

molecule  {
0 1
  O       -1.4695130     0.3030610    -1.0874480
  O       -3.6436400    -1.4204040    -0.2669360
  O       -1.6911330     2.8536240     0.0000030
  O        1.1857770    -2.4961310     0.0874550
  N        0.6842480    -0.3150290    -0.3399290
  N        2.9133760    -0.9647370     0.2108410
  N        4.5636770     0.6178870     0.3785230
  C       -2.7686820    -0.6858470     0.5863090
  C       -1.3787780    -1.3118450     0.6568060
  C       -2.4925280     0.6283540    -0.1295840
  C       -0.6939390    -0.7805590    -0.6115670
  C       -2.0414120     1.7324860     0.8087370
  C        1.0545030     0.9838330    -0.4888120
  C        1.6080830    -1.3384950     0.0010630
  C        2.3487550     1.3478080    -0.2622830
  C        3.2578570     0.3046130     0.0876290
  H       -3.2188600    -0.5381750     1.5798200
  H       -0.8341690    -0.9801840     1.5464130
  H       -1.3950130    -2.4033150     0.6754970
  H       -0.6263030    -1.5384450    -1.3968420
  H       -3.3591510     0.9641520    -0.7058050
  H       -1.1849610     1.3939850     1.4098140
  H       -2.8667900     1.9743150     1.4948250
  H       -3.6905400    -2.3294490     0.0774600
  H        0.2523053     1.6877635    -0.7759257
  H       -1.4321050     3.5760960     0.5972330
  H        2.6621150     2.3809760    -0.3596430
  H        4.9550500     1.4416620    -0.0591730
  H        5.1797170    -0.1867780     0.4106900
units angstrom
no_reorient  #important for SAPT in psi4, default
symmetry c1  #important for SAPT in psi4, default
}

set PROPERTIES_ORIGIN ["COM"]
properties('MP2/aug-cc-pvtz', properties = ['dipole'])
--------------------------------------------------------------------------

    Molecular point group: c1
  Charge       = 0
  Multiplicity = 1
  Basis Set: AUG-CC-PVTZ
    Blend: AUG-CC-PVTZ
  Basis Set: (AUG-CC-PVTZ AUX)
    Blend: AUG-CC-PVTZ-JKFIT

    Orbital Energies [Eh]
    ---------------------

    Doubly Occupied:

       1A    -20.583817     2A    -20.574435     3A    -20.572668
       4A    -20.501844     5A    -15.619061     6A    -15.588813
       7A    -15.539695     8A    -11.368729     9A    -11.345702
      10A    -11.333134    11A    -11.316117    12A    -11.300339
      13A    -11.299539    14A    -11.294817    15A    -11.237245
      16A    -11.235133    17A     -1.418887    18A     -1.381789
      19A     -1.377631    20A     -1.366130    21A     -1.290126
      22A     -1.258442    23A     -1.168362    24A     -1.076051
      25A     -1.067608    26A     -1.024772    27A     -0.930096
      28A     -0.893502    29A     -0.867743    30A     -0.830209
      31A     -0.804943    32A     -0.753580    33A     -0.737165
      34A     -0.725388    35A     -0.706642    36A     -0.701809
      37A     -0.690318    38A     -0.672517    39A     -0.650858
      40A     -0.642139    41A     -0.622413    42A     -0.617642
      43A     -0.606614    44A     -0.595238    45A     -0.586024
      46A     -0.572427    47A     -0.565896    48A     -0.551336
      49A     -0.526695    50A     -0.520645    51A     -0.510762
      52A     -0.485109    53A     -0.480682    54A     -0.472543
      55A     -0.459445    56A     -0.448128    57A     -0.440668
      58A     -0.413487    59A     -0.382340    60A     -0.333794

  @DF-RHF Final Energy:  -811.47848022502262

   => Energetics <=

    Nuclear Repulsion Energy =           1185.0619817384356338
    One-Electron Energy =               -3465.2015571697784253
    Two-Electron Energy =                1468.6610952063199420
    Total Energy =                       -811.4784802250226221
  Basis Set: (AUG-CC-PVTZ AUX)
    Blend: AUG-CC-PVTZ-RI
    Molecular point group: c1

    Geometry (in Angstrom), charge = 0, multiplicity = 1:

       Center              X                  Y                   Z               Mass
    ------------   -----------------  -----------------  -----------------  -----------------
         O           -1.493907828511     0.326719875819    -1.067797655683    15.994914619570
         O           -3.668034828511    -1.396745124181    -0.247285655683    15.994914619570
         O           -1.715527828511     2.877282875819     0.019653344317    15.994914619570
         O            1.161382171489    -2.472472124181     0.107105344317    15.994914619570
         N            0.659853171489    -0.291370124181    -0.320278655683    14.003074004430
         N            2.888981171489    -0.941078124181     0.230491344317    14.003074004430
         N            4.539282171489     0.641545875819     0.398173344317    14.003074004430
         C           -2.793076828511    -0.662188124181     0.605959344317    12.000000000000
         C           -1.403172828511    -1.288186124181     0.676456344317    12.000000000000
         C           -2.516922828511     0.652012875819    -0.109933655683    12.000000000000
         C           -0.718333828511    -0.756900124181    -0.591916655683    12.000000000000
         C           -2.065806828511     1.756144875819     0.828387344317    12.000000000000
         C            1.030108171489     1.007491875819    -0.469161655683    12.000000000000
         C            1.583688171489    -1.314836124181     0.020713344317    12.000000000000
         C            2.324360171489     1.371466875819    -0.242632655683    12.000000000000
         C            3.233462171489     0.328271875819     0.107279344317    12.000000000000
         H           -3.243254828511    -0.514516124181     1.599470344317     1.007825032230
         H           -0.858563828511    -0.956525124181     1.566063344317     1.007825032230
         H           -1.419407828511    -2.379656124181     0.695147344317     1.007825032230
         H           -0.650697828511    -1.514786124181    -1.377191655683     1.007825032230
         H           -3.383545828511     0.987810875819    -0.686154655683     1.007825032230
         H           -1.209355828511     1.417643875819     1.429464344317     1.007825032230
         H           -2.891184828511     1.997973875819     1.514475344317     1.007825032230
         H           -3.714934828511    -2.305790124181     0.097110344317     1.007825032230
         H            0.227910471489     1.711422375819    -0.756275355683     1.007825032230
         H           -1.456499828511     3.599754875819     0.616883344317     1.007825032230
         H            2.637720171489     2.404634875819    -0.339992655683     1.007825032230
         H            4.930655171489     1.465320875819    -0.039522655683     1.007825032230
         H            5.155322171489    -0.163119124181     0.430340344317     1.007825032230

  Basis Set: AUG-CC-PVTZ
    Blend: AUG-CC-PVTZ
  Basis Set: (AUG-CC-PVTZ AUX)
    Blend: AUG-CC-PVTZ-JKFIT
	 Reference Energy          =    -811.4784802250226221 [Eh]
	 Singles Energy            =      -0.0000000000000000 [Eh]
	 Same-Spin Energy          =      -0.8309230821099715 [Eh]
	 Opposite-Spin Energy      =      -2.5272130070216177 [Eh]
	 Correlation Energy        =      -3.3581360891315892 [Eh]
	 Total Energy              =    -814.8366163141541847 [Eh]

	 ================> DF-SCS-MP2 Energies <==================
	-----------------------------------------------------------
	 SCS Same-Spin Scale       =       0.3333333333333333 [-]
	 SCS Opposite-Spin Scale   =       1.2000000000000000 [-]
	 SCS Same-Spin Energy      =      -0.2769743607033238 [Eh]
	 SCS Opposite-Spin Energy  =      -3.0326556084259413 [Eh]
	 SCS Correlation Energy    =      -3.3096299691292650 [Eh]
	 SCS Total Energy          =    -814.7881101941518409 [Eh]
	-----------------------------------------------------------

  Dipole Moment: [D]
     X:    -0.3462      Y:     4.6057      Z:     2.4074     Total:     5.2085

*** Psi4 exiting successfully. Buy a developer a beer!
