                               Psi4 1.3.2 release

  ==> Input File <==

--------------------------------------------------------------------------
#psi4
#
memory 32 gb

molecule  {
0 1
  O        1.3620710    -0.3800110    -0.9318440
  O        3.2020570     1.9012130    -0.2995130
  O        2.7994070    -2.7489470    -0.4002010
  O       -1.3621860     2.3740050     0.1547830
  N       -0.7991612     0.1973532    -0.2418545
  N       -3.0541720     0.8052390     0.2400120
  N       -4.6734100    -0.8124350     0.4126370
  C        2.7015950     0.8755540     0.5594740
  C        1.2478623     1.1103951     0.8811459
  C        2.6518190    -0.3922910    -0.2854700
  C        0.5739580     0.6830040    -0.4149160
  C        2.8020980    -1.6600160     0.5224700
  C       -1.1273370    -1.1158190    -0.3082760
  C       -1.7446880     1.2038920     0.0820450
  C       -2.4173070    -1.5045610    -0.1045420
  C       -3.3619920    -0.4731600     0.1685110
  H        3.3343810     0.7567850     1.4508530
  H        0.9047070     0.4438290     1.6934890
  H        0.9853290     2.1340670     1.1581470
  H        0.5274540     1.5132540    -1.1249130
  H        3.4174920    -0.3642830    -1.0666260
  H        1.9707490    -1.7331840     1.2432230
  H        3.7460890    -1.6095150     1.0882890
  H        3.1038510     2.7463240     0.1779830
  H       -0.3107400    -1.7892010    -0.5436980
  H        2.9100300    -3.5650720     0.1192120
  H       -2.7034680    -2.5490840    -0.1532500
  H       -5.0287110    -1.6377420    -0.0567190
  H       -5.2994710    -0.0137980     0.3861010
units angstrom
no_reorient  #important for SAPT in psi4, default
symmetry c1  #important for SAPT in psi4, default
}

set PROPERTIES_ORIGIN ["COM"]
properties('MP2/aug-cc-pvtz', properties = ['dipole'])
--------------------------------------------------------------------------

    Molecular point group: c1
  Charge       = 0
  Multiplicity = 1
  Basis Set: AUG-CC-PVTZ
    Blend: AUG-CC-PVTZ
  Basis Set: (AUG-CC-PVTZ AUX)
    Blend: AUG-CC-PVTZ-JKFIT

    Orbital Energies [Eh]
    ---------------------

    Doubly Occupied:

       1A    -20.577724     2A    -20.574169     3A    -20.572671
       4A    -20.503789     5A    -15.622046     6A    -15.588352
       7A    -15.540863     8A    -11.370527     9A    -11.345058
      10A    -11.330763    11A    -11.318047    12A    -11.300571
      13A    -11.296847    14A    -11.293130    15A    -11.237543
      16A    -11.236697    17A     -1.416812    18A     -1.382499
      19A     -1.373657    20A     -1.365784    21A     -1.292533
      22A     -1.261709    23A     -1.169177    24A     -1.079747
      25A     -1.069386    26A     -1.028037    27A     -0.927286
      28A     -0.897182    29A     -0.868920    30A     -0.830503
      31A     -0.806760    32A     -0.754057    33A     -0.739170
      34A     -0.721080    35A     -0.706903    36A     -0.692801
      37A     -0.689093    38A     -0.675657    39A     -0.656671
      40A     -0.637637    41A     -0.627189    42A     -0.618661
      43A     -0.604341    44A     -0.594931    45A     -0.588798
      46A     -0.573923    47A     -0.568955    48A     -0.544288
      49A     -0.531867    50A     -0.523511    51A     -0.509200
      52A     -0.486476    53A     -0.482825    54A     -0.468557
      55A     -0.462074    56A     -0.444867    57A     -0.437636
      58A     -0.416458    59A     -0.383878    60A     -0.334810

  @DF-RHF Final Energy:  -811.47895442180686

   => Energetics <=

    Nuclear Repulsion Energy =           1169.9646536930604270
    One-Electron Energy =               -3434.9770082843938326
    Two-Electron Energy =                1453.5334001695264305
    Total Energy =                       -811.4789544218069750
  Basis Set: (AUG-CC-PVTZ AUX)
    Blend: AUG-CC-PVTZ-RI
    Molecular point group: c1

    Geometry (in Angstrom), charge = 0, multiplicity = 1:

       Center              X                  Y                   Z               Mass
    ------------   -----------------  -----------------  -----------------  -----------------
         O            1.361545308530    -0.380051178090    -0.930712739201    15.994914619570
         O            3.201531308530     1.901172821910    -0.298381739201    15.994914619570
         O            2.798881308530    -2.748987178090    -0.399069739201    15.994914619570
         O           -1.362711691470     2.373964821910     0.155914260799    15.994914619570
         N           -0.799686891470     0.197313021910    -0.240723239201    14.003074004430
         N           -3.054697691470     0.805198821910     0.241143260799    14.003074004430
         N           -4.673935691470    -0.812475178090     0.413768260799    14.003074004430
         C            2.701069308530     0.875513821910     0.560605260799    12.000000000000
         C            1.247336608530     1.110354921910     0.882277160799    12.000000000000
         C            2.651293308530    -0.392331178090    -0.284338739201    12.000000000000
         C            0.573432308530     0.682963821910    -0.413784739201    12.000000000000
         C            2.801572308530    -1.660056178090     0.523601260799    12.000000000000
         C           -1.127862691470    -1.115859178090    -0.307144739201    12.000000000000
         C           -1.745213691470     1.203851821910     0.083176260799    12.000000000000
         C           -2.417832691470    -1.504601178090    -0.103410739201    12.000000000000
         C           -3.362517691470    -0.473200178090     0.169642260799    12.000000000000
         H            3.333855308530     0.756744821910     1.451984260799     1.007825032230
         H            0.904181308530     0.443788821910     1.694620260799     1.007825032230
         H            0.984803308530     2.134026821910     1.159278260799     1.007825032230
         H            0.526928308530     1.513213821910    -1.123781739201     1.007825032230
         H            3.416966308530    -0.364323178090    -1.065494739201     1.007825032230
         H            1.970223308530    -1.733224178090     1.244354260799     1.007825032230
         H            3.745563308530    -1.609555178090     1.089420260799     1.007825032230
         H            3.103325308530     2.746283821910     0.179114260799     1.007825032230
         H           -0.311265691470    -1.789241178090    -0.542566739201     1.007825032230
         H            2.909504308530    -3.565112178090     0.120343260799     1.007825032230
         H           -2.703993691470    -2.549124178090    -0.152118739201     1.007825032230
         H           -5.029236691470    -1.637782178090    -0.055587739201     1.007825032230
         H           -5.299996691470    -0.013838178090     0.387232260799     1.007825032230

  Basis Set: AUG-CC-PVTZ
    Blend: AUG-CC-PVTZ
  Basis Set: (AUG-CC-PVTZ AUX)
    Blend: AUG-CC-PVTZ-JKFIT
	 Reference Energy          =    -811.4789544218068613 [Eh]
	 Singles Energy            =      -0.0000000000000000 [Eh]
	 Same-Spin Energy          =      -0.8297236843344563 [Eh]
	 Opposite-Spin Energy      =      -2.5251695368616645 [Eh]
	 Correlation Energy        =      -3.3548932211961207 [Eh]
	 Total Energy              =    -814.8338476430029687 [Eh]

	 ================> DF-SCS-MP2 Energies <==================
	-----------------------------------------------------------
	 SCS Same-Spin Scale       =       0.3333333333333333 [-]
	 SCS Opposite-Spin Scale   =       1.2000000000000000 [-]
	 SCS Same-Spin Energy      =      -0.2765745614448187 [Eh]
	 SCS Opposite-Spin Energy  =      -3.0302034442339973 [Eh]
	 SCS Correlation Energy    =      -3.3067780056788161 [Eh]
	 SCS Total Energy          =    -814.7857324274856410 [Eh]
	-----------------------------------------------------------

  Dipole Moment: [D]
     X:     1.0662      Y:    -4.6628      Z:     2.4968     Total:     5.3956

*** Psi4 exiting successfully. Buy a developer a beer!
