                               Psi4 1.3.2 release

  ==> Input File <==

--------------------------------------------------------------------------
#psi4
#
memory 32 gb

molecule  {
0 1
  O        1.3620710    -0.3800110    -0.9318440
  O        3.1831745     1.8969641    -0.3152258
  O        2.7994070    -2.7489470    -0.4002010
  O       -1.3621860     2.3740050     0.1547830
  N       -0.7982440     0.1994180    -0.2292560
  N       -3.0541720     0.8052390     0.2400120
  N       -4.6734100    -0.8124350     0.4126370
  C        2.7015950     0.8755540     0.5594740
  C        1.2368440     1.1072260     0.8878520
  C        2.6518190    -0.3922910    -0.2854700
  C        0.5739580     0.6830040    -0.4149160
  C        2.8020980    -1.6600160     0.5224700
  C       -1.1273370    -1.1158190    -0.3082760
  C       -1.7446880     1.2038920     0.0820450
  C       -2.4173070    -1.5045610    -0.1045420
  C       -3.3619920    -0.4731600     0.1685110
  H        3.3227593     0.7428206     1.4570360
  H        0.9047070     0.4438290     1.6934890
  H        0.9853290     2.1340670     1.1581470
  H        0.5274540     1.5132540    -1.1249130
  H        3.4174920    -0.3642830    -1.0666260
  H        1.9707490    -1.7331840     1.2432230
  H        3.7460890    -1.6095150     1.0882890
  H        3.1038510     2.7463240     0.1779830
  H       -0.3107400    -1.7892010    -0.5436980
  H        2.9100300    -3.5650720     0.1192120
  H       -2.7034680    -2.5490840    -0.1532500
  H       -5.0287110    -1.6377420    -0.0567190
  H       -5.2994710    -0.0137980     0.3861010
units angstrom
no_reorient  #important for SAPT in psi4, default
symmetry c1  #important for SAPT in psi4, default
}

set PROPERTIES_ORIGIN ["COM"]
properties('MP2/aug-cc-pvtz', properties = ['dipole'])
--------------------------------------------------------------------------

    Molecular point group: c1
  Charge       = 0
  Multiplicity = 1
  Basis Set: AUG-CC-PVTZ
    Blend: AUG-CC-PVTZ
  Basis Set: (AUG-CC-PVTZ AUX)
    Blend: AUG-CC-PVTZ-JKFIT

    Orbital Energies [Eh]
    ---------------------

    Doubly Occupied:

       1A    -20.577648     2A    -20.576329     3A    -20.572469
       4A    -20.502781     5A    -15.621421     6A    -15.588171
       7A    -15.540575     8A    -11.369629     9A    -11.344813
      10A    -11.330211    11A    -11.318037    12A    -11.300849
      13A    -11.296696    14A    -11.292658    15A    -11.236782
      16A    -11.236207    17A     -1.416383    18A     -1.382121
      19A     -1.373144    20A     -1.364936    21A     -1.291977
      22A     -1.261156    23A     -1.168885    24A     -1.078565
      25A     -1.068662    26A     -1.027682    27A     -0.926454
      28A     -0.897182    29A     -0.868508    30A     -0.830218
      31A     -0.806242    32A     -0.753956    33A     -0.738714
      34A     -0.720409    35A     -0.706834    36A     -0.692582
      37A     -0.688005    38A     -0.675609    39A     -0.656438
      40A     -0.636578    41A     -0.627221    42A     -0.618455
      43A     -0.604393    44A     -0.594624    45A     -0.588386
      46A     -0.571813    47A     -0.569151    48A     -0.544651
      49A     -0.532669    50A     -0.523382    51A     -0.510193
      52A     -0.486400    53A     -0.481660    54A     -0.468425
      55A     -0.460831    56A     -0.444227    57A     -0.437541
      58A     -0.416080    59A     -0.383501    60A     -0.334663

  @DF-RHF Final Energy:  -811.47803844822056

   => Energetics <=

    Nuclear Repulsion Energy =           1170.2870433891489483
    One-Electron Energy =               -3435.6606026395465960
    Two-Electron Energy =                1453.8955208021770886
    Total Energy =                       -811.4780384482205591
  Basis Set: (AUG-CC-PVTZ AUX)
    Blend: AUG-CC-PVTZ-RI
    Molecular point group: c1

    Geometry (in Angstrom), charge = 0, multiplicity = 1:

       Center              X                  Y                   Z               Mass
    ------------   -----------------  -----------------  -----------------  -----------------
         O            1.363452532276    -0.379649795932    -0.930764689459    15.994914619570
         O            3.184556032276     1.897325304068    -0.314146489459    15.994914619570
         O            2.800788532276    -2.748585795932    -0.399121689459    15.994914619570
         O           -1.360804467724     2.374366204068     0.155862310541    15.994914619570
         N           -0.796862467724     0.199779204068    -0.228176689459    14.003074004430
         N           -3.052790467724     0.805600204068     0.241091310541    14.003074004430
         N           -4.672028467724    -0.812073795932     0.413716310541    14.003074004430
         C            2.702976532276     0.875915204068     0.560553310541    12.000000000000
         C            1.238225532276     1.107587204068     0.888931310541    12.000000000000
         C            2.653200532276    -0.391929795932    -0.284390689459    12.000000000000
         C            0.575339532276     0.683365204068    -0.413836689459    12.000000000000
         C            2.803479532276    -1.659654795932     0.523549310541    12.000000000000
         C           -1.125955467724    -1.115457795932    -0.307196689459    12.000000000000
         C           -1.743306467724     1.204253204068     0.083124310541    12.000000000000
         C           -2.415925467724    -1.504199795932    -0.103462689459    12.000000000000
         C           -3.360610467724    -0.472798795932     0.169590310541    12.000000000000
         H            3.324140832276     0.743181804068     1.458115310541     1.007825032230
         H            0.906088532276     0.444190204068     1.694568310541     1.007825032230
         H            0.986710532276     2.134428204068     1.159226310541     1.007825032230
         H            0.528835532276     1.513615204068    -1.123833689459     1.007825032230
         H            3.418873532276    -0.363921795932    -1.065546689459     1.007825032230
         H            1.972130532276    -1.732822795932     1.244302310541     1.007825032230
         H            3.747470532276    -1.609153795932     1.089368310541     1.007825032230
         H            3.105232532276     2.746685204068     0.179062310541     1.007825032230
         H           -0.309358467724    -1.788839795932    -0.542618689459     1.007825032230
         H            2.911411532276    -3.564710795932     0.120291310541     1.007825032230
         H           -2.702086467724    -2.548722795932    -0.152170689459     1.007825032230
         H           -5.027329467724    -1.637380795932    -0.055639689459     1.007825032230
         H           -5.298089467724    -0.013436795932     0.387180310541     1.007825032230

  Basis Set: AUG-CC-PVTZ
    Blend: AUG-CC-PVTZ
  Basis Set: (AUG-CC-PVTZ AUX)
    Blend: AUG-CC-PVTZ-JKFIT
	 Reference Energy          =    -811.4780384482205591 [Eh]
	 Singles Energy            =      -0.0000000000000000 [Eh]
	 Same-Spin Energy          =      -0.8299010659307127 [Eh]
	 Opposite-Spin Energy      =      -2.5256694032518392 [Eh]
	 Correlation Energy        =      -3.3555704691825516 [Eh]
	 Total Energy              =    -814.8336089174031258 [Eh]

	 ================> DF-SCS-MP2 Energies <==================
	-----------------------------------------------------------
	 SCS Same-Spin Scale       =       0.3333333333333333 [-]
	 SCS Opposite-Spin Scale   =       1.2000000000000000 [-]
	 SCS Same-Spin Energy      =      -0.2766336886435709 [Eh]
	 SCS Opposite-Spin Energy  =      -3.0308032839022068 [Eh]
	 SCS Correlation Energy    =      -3.3074369725457777 [Eh]
	 SCS Total Energy          =    -814.7854754207663746 [Eh]
	-----------------------------------------------------------

  Dipole Moment: [D]
     X:     1.1370      Y:    -4.6600      Z:     2.5098     Total:     5.4137

*** Psi4 exiting successfully. Buy a developer a beer!
