                               Psi4 1.3.2 release

  ==> Input File <==

--------------------------------------------------------------------------
#psi4
#
memory 32 gb

molecule  {
0 1
  O        1.3620710    -0.3800110    -0.9318440
  O        3.2020570     1.9012130    -0.2995130
  O        2.7994070    -2.7489470    -0.4002010
  O       -1.3621860     2.3740050     0.1547830
  N       -0.7982440     0.1994180    -0.2292560
  N       -3.0323905     0.8000794     0.2347974
  N       -4.6678970    -0.8355282     0.4089762
  C        2.7015950     0.8755540     0.5594740
  C        1.2368440     1.1072260     0.8878520
  C        2.6518190    -0.3922910    -0.2854700
  C        0.5739580     0.6830040    -0.4149160
  C        2.8020980    -1.6600160     0.5224700
  C       -1.1273370    -1.1158190    -0.3082760
  C       -1.7446880     1.2038920     0.0820450
  C       -2.4173070    -1.5045610    -0.1045420
  C       -3.3619920    -0.4731600     0.1685110
  H        3.3343810     0.7567850     1.4508530
  H        0.9047070     0.4438290     1.6934890
  H        0.9853290     2.1340670     1.1581470
  H        0.5274540     1.5132540    -1.1249130
  H        3.4174920    -0.3642830    -1.0666260
  H        1.9707490    -1.7331840     1.2432230
  H        3.7460890    -1.6095150     1.0882890
  H        3.1038510     2.7463240     0.1779830
  H       -0.3107400    -1.7892010    -0.5436980
  H        2.9100300    -3.5650720     0.1192120
  H       -2.7034680    -2.5490840    -0.1532500
  H       -5.0287110    -1.6377420    -0.0567190
  H       -5.2994710    -0.0137980     0.3861010
units angstrom
no_reorient  #important for SAPT in psi4, default
symmetry c1  #important for SAPT in psi4, default
}

set PROPERTIES_ORIGIN ["COM"]
properties('MP2/aug-cc-pvtz', properties = ['dipole'])
--------------------------------------------------------------------------

    Molecular point group: c1
  Charge       = 0
  Multiplicity = 1
  Basis Set: AUG-CC-PVTZ
    Blend: AUG-CC-PVTZ
  Basis Set: (AUG-CC-PVTZ AUX)
    Blend: AUG-CC-PVTZ-JKFIT

    Orbital Energies [Eh]
    ---------------------

    Doubly Occupied:

       1A    -20.577455     2A    -20.573964     3A    -20.572275
       4A    -20.501013     5A    -15.620613     6A    -15.590639
       7A    -15.539321     8A    -11.368007     9A    -11.347107
      10A    -11.329947    11A    -11.317475    12A    -11.300433
      13A    -11.296522    14A    -11.292638    15A    -11.236272
      16A    -11.235939    17A     -1.416170    18A     -1.382556
      19A     -1.373240    20A     -1.365369    21A     -1.292475
      22A     -1.260859    23A     -1.174196    24A     -1.078462
      25A     -1.068477    26A     -1.027699    27A     -0.927163
      28A     -0.896281    29A     -0.871779    30A     -0.832044
      31A     -0.805743    32A     -0.754231    33A     -0.738367
      34A     -0.720997    35A     -0.709364    36A     -0.692362
      37A     -0.690153    38A     -0.676579    39A     -0.656138
      40A     -0.637055    41A     -0.627921    42A     -0.616707
      43A     -0.604523    44A     -0.594269    45A     -0.589080
      46A     -0.572387    47A     -0.568502    48A     -0.544549
      49A     -0.532560    50A     -0.523240    51A     -0.510311
      52A     -0.485395    53A     -0.481846    54A     -0.468157
      55A     -0.460672    56A     -0.442805    57A     -0.436032
      58A     -0.415911    59A     -0.385145    60A     -0.334543

  @DF-RHF Final Energy:  -811.47857609357993

   => Energetics <=

    Nuclear Repulsion Energy =           1170.5559285088277193
    One-Electron Energy =               -3436.1851333977533614
    Two-Electron Energy =                1454.1506287953454830
    Total Energy =                       -811.4785760935799317
  Basis Set: (AUG-CC-PVTZ AUX)
    Blend: AUG-CC-PVTZ-RI
    Molecular point group: c1

    Geometry (in Angstrom), charge = 0, multiplicity = 1:

       Center              X                  Y                   Z               Mass
    ------------   -----------------  -----------------  -----------------  -----------------
         O            1.360387925019    -0.378268886390    -0.931296682532    15.994914619570
         O            3.200373925019     1.902955113610    -0.298965682532    15.994914619570
         O            2.797723925019    -2.747204886390    -0.399653682532    15.994914619570
         O           -1.363869074981     2.375747113610     0.155330317468    15.994914619570
         N           -0.799927074981     0.201160113610    -0.228708682532    14.003074004430
         N           -3.034073574981     0.801821513610     0.235344717468    14.003074004430
         N           -4.669580074981    -0.833786086390     0.409523517468    14.003074004430
         C            2.699911925019     0.877296113610     0.560021317468    12.000000000000
         C            1.235160925019     1.108968113610     0.888399317468    12.000000000000
         C            2.650135925019    -0.390548886390    -0.284922682532    12.000000000000
         C            0.572274925019     0.684746113610    -0.414368682532    12.000000000000
         C            2.800414925019    -1.658273886390     0.523017317468    12.000000000000
         C           -1.129020074981    -1.114076886390    -0.307728682532    12.000000000000
         C           -1.746371074981     1.205634113610     0.082592317468    12.000000000000
         C           -2.418990074981    -1.502818886390    -0.103994682532    12.000000000000
         C           -3.363675074981    -0.471417886390     0.169058317468    12.000000000000
         H            3.332697925019     0.758527113610     1.451400317468     1.007825032230
         H            0.903023925019     0.445571113610     1.694036317468     1.007825032230
         H            0.983645925019     2.135809113610     1.158694317468     1.007825032230
         H            0.525770925019     1.514996113610    -1.124365682532     1.007825032230
         H            3.415808925019    -0.362540886390    -1.066078682532     1.007825032230
         H            1.969065925019    -1.731441886390     1.243770317468     1.007825032230
         H            3.744405925019    -1.607772886390     1.088836317468     1.007825032230
         H            3.102167925019     2.748066113610     0.178530317468     1.007825032230
         H           -0.312423074981    -1.787458886390    -0.543150682532     1.007825032230
         H            2.908346925019    -3.563329886390     0.119759317468     1.007825032230
         H           -2.705151074981    -2.547341886390    -0.152702682532     1.007825032230
         H           -5.030394074981    -1.635999886390    -0.056171682532     1.007825032230
         H           -5.301154074981    -0.012055886390     0.386648317468     1.007825032230

  Basis Set: AUG-CC-PVTZ
    Blend: AUG-CC-PVTZ
  Basis Set: (AUG-CC-PVTZ AUX)
    Blend: AUG-CC-PVTZ-JKFIT
	 Reference Energy          =    -811.4785760935799317 [Eh]
	 Singles Energy            =      -0.0000000000000000 [Eh]
	 Same-Spin Energy          =      -0.8298002959571260 [Eh]
	 Opposite-Spin Energy      =      -2.5249075044271940 [Eh]
	 Correlation Energy        =      -3.3547078003843200 [Eh]
	 Total Energy              =    -814.8332838939642215 [Eh]

	 ================> DF-SCS-MP2 Energies <==================
	-----------------------------------------------------------
	 SCS Same-Spin Scale       =       0.3333333333333333 [-]
	 SCS Opposite-Spin Scale   =       1.2000000000000000 [-]
	 SCS Same-Spin Energy      =      -0.2766000986523753 [Eh]
	 SCS Opposite-Spin Energy  =      -3.0298890053126328 [Eh]
	 SCS Correlation Energy    =      -3.3064891039650082 [Eh]
	 SCS Total Energy          =    -814.7850651975448955 [Eh]
	-----------------------------------------------------------

  Dipole Moment: [D]
     X:     0.9655      Y:    -4.6934      Z:     2.5006     Total:     5.4050

*** Psi4 exiting successfully. Buy a developer a beer!
