                               Psi4 1.3.2 release

  ==> Input File <==

--------------------------------------------------------------------------
#psi4
#
memory 32 gb

molecule  {
0 1
  O        1.3620710    -0.3800110    -0.9318440
  O        3.2020570     1.9012130    -0.2995130
  O        2.7994070    -2.7489470    -0.4002010
  O       -1.3621860     2.3740050     0.1547830
  N       -0.7982440     0.1994180    -0.2292560
  N       -3.0541720     0.8052390     0.2400120
  N       -4.6734100    -0.8124350     0.4126370
  C        2.7015950     0.8755540     0.5594740
  C        1.2368440     1.1072260     0.8878520
  C        2.7179300    -0.4116821    -0.3243214
  C        0.5739580     0.6830040    -0.4149160
  C        2.8020980    -1.6600160     0.5224700
  C       -1.1273370    -1.1158190    -0.3082760
  C       -1.7446880     1.2038920     0.0820450
  C       -2.4173070    -1.5045610    -0.1045420
  C       -3.3619920    -0.4731600     0.1685110
  H        3.3343810     0.7567850     1.4508530
  H        0.9047070     0.4438290     1.6934890
  H        0.9853290     2.1340670     1.1581470
  H        0.5274540     1.5132540    -1.1249130
  H        3.4174920    -0.3642830    -1.0666260
  H        1.9931921    -1.7830489     1.2617356
  H        3.7460890    -1.6095150     1.0882890
  H        3.1038510     2.7463240     0.1779830
  H       -0.3107400    -1.7892010    -0.5436980
  H        2.9100300    -3.5650720     0.1192120
  H       -2.7034680    -2.5490840    -0.1532500
  H       -5.0287110    -1.6377420    -0.0567190
  H       -5.2994710    -0.0137980     0.3861010
units angstrom
no_reorient  #important for SAPT in psi4, default
symmetry c1  #important for SAPT in psi4, default
}

set PROPERTIES_ORIGIN ["COM"]
properties('MP2/aug-cc-pvtz', properties = ['dipole'])
--------------------------------------------------------------------------

    Molecular point group: c1
  Charge       = 0
  Multiplicity = 1
  Basis Set: AUG-CC-PVTZ
    Blend: AUG-CC-PVTZ
  Basis Set: (AUG-CC-PVTZ AUX)
    Blend: AUG-CC-PVTZ-JKFIT

    Orbital Energies [Eh]
    ---------------------

    Doubly Occupied:

       1A    -20.576946     2A    -20.573889     3A    -20.566835
       4A    -20.502027     5A    -15.620426     6A    -15.587566
       7A    -15.539845     8A    -11.368860     9A    -11.344066
      10A    -11.328475    11A    -11.316978    12A    -11.302893
      13A    -11.298661    14A    -11.294676    15A    -11.235938
      16A    -11.235852    17A     -1.405990    18A     -1.381017
      19A     -1.373775    20A     -1.361246    21A     -1.290856
      22A     -1.259307    23A     -1.167967    24A     -1.075167
      25A     -1.065890    26A     -1.028520    27A     -0.924828
      28A     -0.896351    29A     -0.867953    30A     -0.826878
      31A     -0.815825    32A     -0.753768    33A     -0.736012
      34A     -0.717993    35A     -0.705570    36A     -0.694702
      37A     -0.688056    38A     -0.674896    39A     -0.654842
      40A     -0.634307    41A     -0.625201    42A     -0.617372
      43A     -0.605884    44A     -0.595444    45A     -0.584315
      46A     -0.575830    47A     -0.569800    48A     -0.544611
      49A     -0.530097    50A     -0.519927    51A     -0.512772
      52A     -0.483430    53A     -0.479842    54A     -0.467076
      55A     -0.461912    56A     -0.444111    57A     -0.436231
      58A     -0.415446    59A     -0.382746    60A     -0.333780

  @DF-RHF Final Energy:  -811.47107803586596

   => Energetics <=

    Nuclear Repulsion Energy =           1168.2037139420326639
    One-Electron Energy =               -3431.5866287251851645
    Two-Electron Energy =                1451.9118367472865430
    Total Energy =                       -811.4710780358659576
  Basis Set: (AUG-CC-PVTZ AUX)
    Blend: AUG-CC-PVTZ-RI
    Molecular point group: c1

    Geometry (in Angstrom), charge = 0, multiplicity = 1:

       Center              X                  Y                   Z               Mass
    ------------   -----------------  -----------------  -----------------  -----------------
         O            1.358477921684    -0.378765066117    -0.929873125384    15.994914619570
         O            3.198463921684     1.902458933883    -0.297542125384    15.994914619570
         O            2.795813921684    -2.747701066117    -0.398230125384    15.994914619570
         O           -1.365779078316     2.375250933883     0.156753874616    15.994914619570
         N           -0.801837078316     0.200663933883    -0.227285125384    14.003074004430
         N           -3.057765078316     0.806484933883     0.241982874616    14.003074004430
         N           -4.677003078316    -0.811189066117     0.414607874616    14.003074004430
         C            2.698001921684     0.876799933883     0.561444874616    12.000000000000
         C            1.233250921684     1.108471933883     0.889822874616    12.000000000000
         C            2.714336921684    -0.410436166117    -0.322350525384    12.000000000000
         C            0.570364921684     0.684249933883    -0.412945125384    12.000000000000
         C            2.798504921684    -1.658770066117     0.524440874616    12.000000000000
         C           -1.130930078316    -1.114573066117    -0.306305125384    12.000000000000
         C           -1.748281078316     1.205137933883     0.084015874616    12.000000000000
         C           -2.420900078316    -1.503315066117    -0.102571125384    12.000000000000
         C           -3.365585078316    -0.471914066117     0.170481874616    12.000000000000
         H            3.330787921684     0.758030933883     1.452823874616     1.007825032230
         H            0.901113921684     0.445074933883     1.695459874616     1.007825032230
         H            0.981735921684     2.135312933883     1.160117874616     1.007825032230
         H            0.523860921684     1.514499933883    -1.122942125384     1.007825032230
         H            3.413898921684    -0.363037066117    -1.064655125384     1.007825032230
         H            1.989599021684    -1.781802966117     1.263706474616     1.007825032230
         H            3.742495921684    -1.608269066117     1.090259874616     1.007825032230
         H            3.100257921684     2.747569933883     0.179953874616     1.007825032230
         H           -0.314333078316    -1.787955066117    -0.541727125384     1.007825032230
         H            2.906436921684    -3.563826066117     0.121182874616     1.007825032230
         H           -2.707061078316    -2.547838066117    -0.151279125384     1.007825032230
         H           -5.032304078316    -1.636496066117    -0.054748125384     1.007825032230
         H           -5.303064078316    -0.012552066117     0.388071874616     1.007825032230

  Basis Set: AUG-CC-PVTZ
    Blend: AUG-CC-PVTZ
  Basis Set: (AUG-CC-PVTZ AUX)
    Blend: AUG-CC-PVTZ-JKFIT
	 Reference Energy          =    -811.4710780358659576 [Eh]
	 Singles Energy            =      -0.0000000000000000 [Eh]
	 Same-Spin Energy          =      -0.8292462948237305 [Eh]
	 Opposite-Spin Energy      =      -2.5253417448516564 [Eh]
	 Correlation Energy        =      -3.3545880396753871 [Eh]
	 Total Energy              =    -814.8256660755413350 [Eh]

	 ================> DF-SCS-MP2 Energies <==================
	-----------------------------------------------------------
	 SCS Same-Spin Scale       =       0.3333333333333333 [-]
	 SCS Opposite-Spin Scale   =       1.2000000000000000 [-]
	 SCS Same-Spin Energy      =      -0.2764154316079102 [Eh]
	 SCS Opposite-Spin Energy  =      -3.0304100938219878 [Eh]
	 SCS Correlation Energy    =      -3.3068255254298977 [Eh]
	 SCS Total Energy          =    -814.7779035612958296 [Eh]
	-----------------------------------------------------------

  Dipole Moment: [D]
     X:     1.2661      Y:    -4.7395      Z:     2.4929     Total:     5.5028

*** Psi4 exiting successfully. Buy a developer a beer!
