                               Psi4 1.3.2 release

  ==> Input File <==

--------------------------------------------------------------------------
#psi4
#
memory 32 gb

molecule  {
0 1
  O        1.3599895    -0.3865140    -0.9214960
  O        3.2020570     1.9012130    -0.2995130
  O        2.7994070    -2.7489470    -0.4002010
  O       -1.3621860     2.3740050     0.1547830
  N       -0.7982440     0.1994180    -0.2292560
  N       -3.0541720     0.8052390     0.2400120
  N       -4.6734100    -0.8124350     0.4126370
  C        2.7015950     0.8755540     0.5594740
  C        1.2368440     1.1072260     0.8878520
  C        2.6518190    -0.3922910    -0.2854700
  C        0.5739580     0.6830040    -0.4149160
  C        2.8020980    -1.6600160     0.5224700
  C       -1.1273370    -1.1158190    -0.3082760
  C       -1.7446880     1.2038920     0.0820450
  C       -2.4173070    -1.5045610    -0.1045420
  C       -3.3619920    -0.4731600     0.1685110
  H        3.3343810     0.7567850     1.4508530
  H        0.9047070     0.4438290     1.6934890
  H        0.9853290     2.1340670     1.1581470
  H        0.5219470     1.5181054    -1.1188151
  H        3.4174920    -0.3642830    -1.0666260
  H        1.9707490    -1.7331840     1.2432230
  H        3.7460890    -1.6095150     1.0882890
  H        3.1038510     2.7463240     0.1779830
  H       -0.3107400    -1.7892010    -0.5436980
  H        2.9100300    -3.5650720     0.1192120
  H       -2.7034680    -2.5490840    -0.1532500
  H       -5.0287110    -1.6377420    -0.0567190
  H       -5.2994710    -0.0137980     0.3861010
units angstrom
no_reorient  #important for SAPT in psi4, default
symmetry c1  #important for SAPT in psi4, default
}

set PROPERTIES_ORIGIN ["COM"]
properties('MP2/aug-cc-pvtz', properties = ['dipole'])
--------------------------------------------------------------------------

    Molecular point group: c1
  Charge       = 0
  Multiplicity = 1
  Basis Set: AUG-CC-PVTZ
    Blend: AUG-CC-PVTZ
  Basis Set: (AUG-CC-PVTZ AUX)
    Blend: AUG-CC-PVTZ-JKFIT

    Orbital Energies [Eh]
    ---------------------

    Doubly Occupied:

       1A    -20.577612     2A    -20.574367     3A    -20.573146
       4A    -20.503122     5A    -15.621677     6A    -15.588318
       7A    -15.540768     8A    -11.369905     9A    -11.344987
      10A    -11.331018    11A    -11.318132    12A    -11.300767
      13A    -11.296539    14A    -11.292933    15A    -11.236928
      16A    -11.236569    17A     -1.417515    18A     -1.382506
      19A     -1.373512    20A     -1.365873    21A     -1.292230
      22A     -1.261443    23A     -1.169108    24A     -1.078921
      25A     -1.068825    26A     -1.028081    27A     -0.926717
      28A     -0.897475    29A     -0.869009    30A     -0.830878
      31A     -0.806515    32A     -0.754140    33A     -0.738768
      34A     -0.721022    35A     -0.706743    36A     -0.692833
      37A     -0.689090    38A     -0.676213    39A     -0.656915
      40A     -0.637120    41A     -0.627627    42A     -0.618410
      43A     -0.604633    44A     -0.595168    45A     -0.588598
      46A     -0.572874    47A     -0.569376    48A     -0.544676
      49A     -0.532518    50A     -0.523947    51A     -0.510233
      52A     -0.485736    53A     -0.482006    54A     -0.468372
      55A     -0.461138    56A     -0.444475    57A     -0.437839
      58A     -0.416377    59A     -0.383702    60A     -0.334899

  @DF-RHF Final Energy:  -811.47935886316691

   => Energetics <=

    Nuclear Repulsion Energy =           1170.1364507560683705
    One-Electron Energy =               -3435.3299324926774716
    Two-Electron Energy =                1453.7141228734421929
    Total Energy =                       -811.4793588631669081
  Basis Set: (AUG-CC-PVTZ AUX)
    Blend: AUG-CC-PVTZ-RI
    Molecular point group: c1

    Geometry (in Angstrom), charge = 0, multiplicity = 1:

       Center              X                  Y                   Z               Mass
    ------------   -----------------  -----------------  -----------------  -----------------
         O            1.360160532585    -0.386077534770    -0.922251879882    15.994914619570
         O            3.202228032585     1.901649465230    -0.300268879882    15.994914619570
         O            2.799578032585    -2.748510534770    -0.400956879882    15.994914619570
         O           -1.362014967415     2.374441465230     0.154027120118    15.994914619570
         N           -0.798072967415     0.199854465230    -0.230011879882    14.003074004430
         N           -3.054000967415     0.805675465230     0.239256120118    14.003074004430
         N           -4.673238967415    -0.811998534770     0.411881120118    14.003074004430
         C            2.701766032585     0.875990465230     0.558718120118    12.000000000000
         C            1.237015032585     1.107662465230     0.887096120118    12.000000000000
         C            2.651990032585    -0.391854534770    -0.286225879882    12.000000000000
         C            0.574129032585     0.683440465230    -0.415671879882    12.000000000000
         C            2.802269032585    -1.659579534770     0.521714120118    12.000000000000
         C           -1.127165967415    -1.115382534770    -0.309031879882    12.000000000000
         C           -1.744516967415     1.204328465230     0.081289120118    12.000000000000
         C           -2.417135967415    -1.504124534770    -0.105297879882    12.000000000000
         C           -3.361820967415    -0.472723534770     0.167755120118    12.000000000000
         H            3.334552032585     0.757221465230     1.450097120118     1.007825032230
         H            0.904878032585     0.444265465230     1.692733120118     1.007825032230
         H            0.985500032585     2.134503465230     1.157391120118     1.007825032230
         H            0.522118032585     1.518541865230    -1.119570979882     1.007825032230
         H            3.417663032585    -0.363846534770    -1.067381879882     1.007825032230
         H            1.970920032585    -1.732747534770     1.242467120118     1.007825032230
         H            3.746260032585    -1.609078534770     1.087533120118     1.007825032230
         H            3.104022032585     2.746760465230     0.177227120118     1.007825032230
         H           -0.310568967415    -1.788764534770    -0.544453879882     1.007825032230
         H            2.910201032585    -3.564635534770     0.118456120118     1.007825032230
         H           -2.703296967415    -2.548647534770    -0.154005879882     1.007825032230
         H           -5.028539967415    -1.637305534770    -0.057474879882     1.007825032230
         H           -5.299299967415    -0.013361534770     0.385345120118     1.007825032230

  Basis Set: AUG-CC-PVTZ
    Blend: AUG-CC-PVTZ
  Basis Set: (AUG-CC-PVTZ AUX)
    Blend: AUG-CC-PVTZ-JKFIT
	 Reference Energy          =    -811.4793588631669081 [Eh]
	 Singles Energy            =      -0.0000000000000000 [Eh]
	 Same-Spin Energy          =      -0.8296814709630405 [Eh]
	 Opposite-Spin Energy      =      -2.5251014704652244 [Eh]
	 Correlation Energy        =      -3.3547829414282648 [Eh]
	 Total Energy              =    -814.8341418045952196 [Eh]

	 ================> DF-SCS-MP2 Energies <==================
	-----------------------------------------------------------
	 SCS Same-Spin Scale       =       0.3333333333333333 [-]
	 SCS Opposite-Spin Scale   =       1.2000000000000000 [-]
	 SCS Same-Spin Energy      =      -0.2765604903210135 [Eh]
	 SCS Opposite-Spin Energy  =      -3.0301217645582690 [Eh]
	 SCS Correlation Energy    =      -3.3066822548792825 [Eh]
	 SCS Total Energy          =    -814.7860411180462279 [Eh]
	-----------------------------------------------------------

  Dipole Moment: [D]
     X:     1.0727      Y:    -4.6674      Z:     2.4709     Total:     5.3889

*** Psi4 exiting successfully. Buy a developer a beer!
