                               Psi4 1.3.2 release

  ==> Input File <==

--------------------------------------------------------------------------
#psi4
#
memory 32 gb

molecule  {
0 1
  O        1.3620710    -0.3800110    -0.9318440
  O        3.2020570     1.9012130    -0.2995130
  O        2.7994070    -2.7489470    -0.4002010
  O       -1.3621860     2.3740050     0.1547830
  N       -0.8435090     0.2092865    -0.2192157
  N       -3.0541720     0.8052390     0.2400120
  N       -4.6734100    -0.8124350     0.4126370
  C        2.7015950     0.8755540     0.5594740
  C        1.2368440     1.1072260     0.8878520
  C        2.6518190    -0.3922910    -0.2854700
  C        0.5739580     0.6830040    -0.4149160
  C        2.8020980    -1.6600160     0.5224700
  C       -1.1273370    -1.1158190    -0.3082760
  C       -1.7446880     1.2038920     0.0820450
  C       -2.4173070    -1.5045610    -0.1045420
  C       -3.3619920    -0.4731600     0.1685110
  H        3.3343810     0.7567850     1.4508530
  H        0.9047070     0.4438290     1.6934890
  H        0.9853290     2.1340670     1.1581470
  H        0.5274540     1.5132540    -1.1249130
  H        3.4174920    -0.3642830    -1.0666260
  H        1.9707490    -1.7331840     1.2432230
  H        3.7460890    -1.6095150     1.0882890
  H        3.1038510     2.7463240     0.1779830
  H       -0.3350372    -1.8181732    -0.5420646
  H        2.9100300    -3.5650720     0.1192120
  H       -2.7034680    -2.5490840    -0.1532500
  H       -5.0287110    -1.6377420    -0.0567190
  H       -5.2994710    -0.0137980     0.3861010
units angstrom
no_reorient  #important for SAPT in psi4, default
symmetry c1  #important for SAPT in psi4, default
}

set PROPERTIES_ORIGIN ["COM"]
properties('MP2/aug-cc-pvtz', properties = ['dipole'])
--------------------------------------------------------------------------

    Molecular point group: c1
  Charge       = 0
  Multiplicity = 1
  Basis Set: AUG-CC-PVTZ
    Blend: AUG-CC-PVTZ
  Basis Set: (AUG-CC-PVTZ AUX)
    Blend: AUG-CC-PVTZ-JKFIT

    Orbital Energies [Eh]
    ---------------------

    Doubly Occupied:

       1A    -20.578393     2A    -20.574889     3A    -20.574671
       4A    -20.498687     5A    -15.622401     6A    -15.587050
       7A    -15.538724     8A    -11.365079     9A    -11.343215
      10A    -11.334050    11A    -11.318421    12A    -11.301604
      13A    -11.297561    14A    -11.294168    15A    -11.237823
      16A    -11.237499    17A     -1.416491    18A     -1.384052
      19A     -1.374193    20A     -1.366234    21A     -1.292201
      22A     -1.259960    23A     -1.166519    24A     -1.078983
      25A     -1.068966    26A     -1.030969    27A     -0.924826
      28A     -0.902509    29A     -0.868620    30A     -0.829791
      31A     -0.807140    32A     -0.755125    33A     -0.738799
      34A     -0.721723    35A     -0.705999    36A     -0.692824
      37A     -0.688631    38A     -0.675969    39A     -0.658649
      40A     -0.637397    41A     -0.629633    42A     -0.617927
      43A     -0.605490    44A     -0.595313    45A     -0.589081
      46A     -0.570047    47A     -0.566867    48A     -0.544987
      49A     -0.532611    50A     -0.522793    51A     -0.510996
      52A     -0.486574    53A     -0.480137    54A     -0.469142
      55A     -0.461631    56A     -0.443399    57A     -0.437715
      58A     -0.414794    59A     -0.382617    60A     -0.336068

  @DF-RHF Final Energy:  -811.47691142841040

   => Energetics <=

    Nuclear Repulsion Energy =           1169.7682853997232542
    One-Electron Energy =               -3434.5931324394227886
    Two-Electron Energy =                1453.3479356112889036
    Total Energy =                       -811.4769114284104035
  Basis Set: (AUG-CC-PVTZ AUX)
    Blend: AUG-CC-PVTZ-RI
    Molecular point group: c1

    Geometry (in Angstrom), charge = 0, multiplicity = 1:

       Center              X                  Y                   Z               Mass
    ------------   -----------------  -----------------  -----------------  -----------------
         O            1.364969987630    -0.380490979526    -0.932470329180    15.994914619570
         O            3.204955987630     1.900733020474    -0.300139329180    15.994914619570
         O            2.802305987630    -2.749426979526    -0.400827329180    15.994914619570
         O           -1.359287012370     2.373525020474     0.154156670820    15.994914619570
         N           -0.840610012370     0.208806520474    -0.219842029180    14.003074004430
         N           -3.051273012370     0.804759020474     0.239385670820    14.003074004430
         N           -4.670511012370    -0.812914979526     0.412010670820    14.003074004430
         C            2.704493987630     0.875074020474     0.558847670820    12.000000000000
         C            1.239742987630     1.106746020474     0.887225670820    12.000000000000
         C            2.654717987630    -0.392770979526    -0.286096329180    12.000000000000
         C            0.576856987630     0.682524020474    -0.415542329180    12.000000000000
         C            2.804996987630    -1.660495979526     0.521843670820    12.000000000000
         C           -1.124438012370    -1.116298979526    -0.308902329180    12.000000000000
         C           -1.741789012370     1.203412020474     0.081418670820    12.000000000000
         C           -2.414408012370    -1.505040979526    -0.105168329180    12.000000000000
         C           -3.359093012370    -0.473639979526     0.167884670820    12.000000000000
         H            3.337279987630     0.756305020474     1.450226670820     1.007825032230
         H            0.907605987630     0.443349020474     1.692862670820     1.007825032230
         H            0.988227987630     2.133587020474     1.157520670820     1.007825032230
         H            0.530352987630     1.512774020474    -1.125539329180     1.007825032230
         H            3.420390987630    -0.364762979526    -1.067252329180     1.007825032230
         H            1.973647987630    -1.733663979526     1.242596670820     1.007825032230
         H            3.748987987630    -1.609994979526     1.087662670820     1.007825032230
         H            3.106749987630     2.745844020474     0.177356670820     1.007825032230
         H           -0.332138212370    -1.818653179526    -0.542690929180     1.007825032230
         H            2.912928987630    -3.565551979526     0.118585670820     1.007825032230
         H           -2.700569012370    -2.549563979526    -0.153876329180     1.007825032230
         H           -5.025812012370    -1.638221979526    -0.057345329180     1.007825032230
         H           -5.296572012370    -0.014277979526     0.385474670820     1.007825032230

  Basis Set: AUG-CC-PVTZ
    Blend: AUG-CC-PVTZ
  Basis Set: (AUG-CC-PVTZ AUX)
    Blend: AUG-CC-PVTZ-JKFIT
	 Reference Energy          =    -811.4769114284104035 [Eh]
	 Singles Energy            =      -0.0000000000000000 [Eh]
	 Same-Spin Energy          =      -0.8296236753117305 [Eh]
	 Opposite-Spin Energy      =      -2.5250751609266553 [Eh]
	 Correlation Energy        =      -3.3546988362383861 [Eh]
	 Total Energy              =    -814.8316102646488162 [Eh]

	 ================> DF-SCS-MP2 Energies <==================
	-----------------------------------------------------------
	 SCS Same-Spin Scale       =       0.3333333333333333 [-]
	 SCS Opposite-Spin Scale   =       1.2000000000000000 [-]
	 SCS Same-Spin Energy      =      -0.2765412251039102 [Eh]
	 SCS Opposite-Spin Energy  =      -3.0300901931119864 [Eh]
	 SCS Correlation Energy    =      -3.3066314182158965 [Eh]
	 SCS Total Energy          =    -814.7835428466263465 [Eh]
	-----------------------------------------------------------

  Dipole Moment: [D]
     X:     1.1964      Y:    -4.8173      Z:     2.4608     Total:     5.5402

*** Psi4 exiting successfully. Buy a developer a beer!
