                               Psi4 1.3.2 release

  ==> Input File <==

--------------------------------------------------------------------------
#psi4
#
memory 32 gb

molecule  {
0 1
  O        1.3620710    -0.3800110    -0.9318440
  O        3.2020570     1.9012130    -0.2995130
  O        2.7994070    -2.7489470    -0.4002010
  O       -1.3621860     2.3740050     0.1547830
  N       -0.7982440     0.1994180    -0.2292560
  N       -3.0651709     0.8077109     0.2422432
  N       -4.6734100    -0.8124350     0.4126370
  C        2.7015950     0.8755540     0.5594740
  C        1.2368440     1.1072260     0.8878520
  C        2.6518190    -0.3922910    -0.2854700
  C        0.5739580     0.6830040    -0.4149160
  C        2.8020980    -1.6600160     0.5224700
  C       -1.1273370    -1.1158190    -0.3082760
  C       -1.7446880     1.2038920     0.0820450
  C       -2.4263903    -1.5130172    -0.1037428
  C       -3.3619920    -0.4731600     0.1685110
  H        3.3343810     0.7567850     1.4508530
  H        0.9047070     0.4438290     1.6934890
  H        0.9853290     2.1340670     1.1581470
  H        0.5274540     1.5132540    -1.1249130
  H        3.4174920    -0.3642830    -1.0666260
  H        1.9707490    -1.7331840     1.2432230
  H        3.7460890    -1.6095150     1.0882890
  H        3.1038510     2.7463240     0.1779830
  H       -0.3107400    -1.7892010    -0.5436980
  H        2.9100300    -3.5650720     0.1192120
  H       -2.7034680    -2.5490840    -0.1532500
  H       -5.0287110    -1.6377420    -0.0567190
  H       -5.2994710    -0.0137980     0.3861010
units angstrom
no_reorient  #important for SAPT in psi4, default
symmetry c1  #important for SAPT in psi4, default
}

set PROPERTIES_ORIGIN ["COM"]
properties('MP2/aug-cc-pvtz', properties = ['dipole'])
--------------------------------------------------------------------------

    Molecular point group: c1
  Charge       = 0
  Multiplicity = 1
  Basis Set: AUG-CC-PVTZ
    Blend: AUG-CC-PVTZ
  Basis Set: (AUG-CC-PVTZ AUX)
    Blend: AUG-CC-PVTZ-JKFIT

    Orbital Energies [Eh]
    ---------------------

    Doubly Occupied:

       1A    -20.578012     2A    -20.574722     3A    -20.573444
       4A    -20.504434     5A    -15.623330     6A    -15.586550
       7A    -15.541794     8A    -11.371250     9A    -11.343787
      10A    -11.331563    11A    -11.320455    12A    -11.301288
      13A    -11.297175    14A    -11.293488    15A    -11.237349
      16A    -11.237230    17A     -1.417190    18A     -1.382654
      19A     -1.373886    20A     -1.366086    21A     -1.291798
      22A     -1.261639    23A     -1.166788    24A     -1.078800
      25A     -1.068265    26A     -1.027994    27A     -0.926854
      28A     -0.898383    29A     -0.867923    30A     -0.830377
      31A     -0.806650    32A     -0.752898    33A     -0.739413
      34A     -0.721320    35A     -0.705995    36A     -0.693099
      37A     -0.689388    38A     -0.675367    39A     -0.657105
      40A     -0.638742    41A     -0.627398    42A     -0.619311
      43A     -0.604432    44A     -0.593816    45A     -0.588790
      46A     -0.573028    47A     -0.569028    48A     -0.545157
      49A     -0.532544    50A     -0.524368    51A     -0.510643
      52A     -0.486291    53A     -0.481949    54A     -0.468785
      55A     -0.461420    56A     -0.445819    57A     -0.438670
      58A     -0.416759    59A     -0.383185    60A     -0.334156

  @DF-RHF Final Energy:  -811.47839927738619

   => Energetics <=

    Nuclear Repulsion Energy =           1169.3661941867892438
    One-Electron Energy =               -3433.7691217978658642
    Two-Electron Energy =                1452.9245283336906596
    Total Energy =                       -811.4783992773861883
  Basis Set: (AUG-CC-PVTZ AUX)
    Blend: AUG-CC-PVTZ-RI
    Molecular point group: c1

    Geometry (in Angstrom), charge = 0, multiplicity = 1:

       Center              X                  Y                   Z               Mass
    ------------   -----------------  -----------------  -----------------  -----------------
         O            1.363229191444    -0.379716616236    -0.932023779724    15.994914619570
         O            3.203215191444     1.901507383764    -0.299692779724    15.994914619570
         O            2.800565191444    -2.748652616236    -0.400380779724    15.994914619570
         O           -1.361027808556     2.374299383764     0.154603220276    15.994914619570
         N           -0.797085808556     0.199712383764    -0.229435779724    14.003074004430
         N           -3.064012708556     0.808005283764     0.242063420276    14.003074004430
         N           -4.672251808556    -0.812140616236     0.412457220276    14.003074004430
         C            2.702753191444     0.875848383764     0.559294220276    12.000000000000
         C            1.238002191444     1.107520383764     0.887672220276    12.000000000000
         C            2.652977191444    -0.391996616236    -0.285649779724    12.000000000000
         C            0.575116191444     0.683298383764    -0.415095779724    12.000000000000
         C            2.803256191444    -1.659721616236     0.522290220276    12.000000000000
         C           -1.126178808556    -1.115524616236    -0.308455779724    12.000000000000
         C           -1.743529808556     1.204186383764     0.081865220276    12.000000000000
         C           -2.425232108556    -1.512722816236    -0.103922579724    12.000000000000
         C           -3.360833808556    -0.472865616236     0.168331220276    12.000000000000
         H            3.335539191444     0.757079383764     1.450673220276     1.007825032230
         H            0.905865191444     0.444123383764     1.693309220276     1.007825032230
         H            0.986487191444     2.134361383764     1.157967220276     1.007825032230
         H            0.528612191444     1.513548383764    -1.125092779724     1.007825032230
         H            3.418650191444    -0.363988616236    -1.066805779724     1.007825032230
         H            1.971907191444    -1.732889616236     1.243043220276     1.007825032230
         H            3.747247191444    -1.609220616236     1.088109220276     1.007825032230
         H            3.105009191444     2.746618383764     0.177803220276     1.007825032230
         H           -0.309581808556    -1.788906616236    -0.543877779724     1.007825032230
         H            2.911188191444    -3.564777616236     0.119032220276     1.007825032230
         H           -2.702309808556    -2.548789616236    -0.153429779724     1.007825032230
         H           -5.027552808556    -1.637447616236    -0.056898779724     1.007825032230
         H           -5.298312808556    -0.013503616236     0.385921220276     1.007825032230

  Basis Set: AUG-CC-PVTZ
    Blend: AUG-CC-PVTZ
  Basis Set: (AUG-CC-PVTZ AUX)
    Blend: AUG-CC-PVTZ-JKFIT
	 Reference Energy          =    -811.4783992773861883 [Eh]
	 Singles Energy            =      -0.0000000000000000 [Eh]
	 Same-Spin Energy          =      -0.8296844317444499 [Eh]
	 Opposite-Spin Energy      =      -2.5254718210783325 [Eh]
	 Correlation Energy        =      -3.3551562528227823 [Eh]
	 Total Energy              =    -814.8335555302089688 [Eh]

	 ================> DF-SCS-MP2 Energies <==================
	-----------------------------------------------------------
	 SCS Same-Spin Scale       =       0.3333333333333333 [-]
	 SCS Opposite-Spin Scale   =       1.2000000000000000 [-]
	 SCS Same-Spin Energy      =      -0.2765614772481499 [Eh]
	 SCS Opposite-Spin Energy  =      -3.0305661852939987 [Eh]
	 SCS Correlation Energy    =      -3.3071276625421486 [Eh]
	 SCS Total Energy          =    -814.7855269399283316 [Eh]
	-----------------------------------------------------------

  Dipole Moment: [D]
     X:     1.1578      Y:    -4.6489      Z:     2.4822     Total:     5.3957

*** Psi4 exiting successfully. Buy a developer a beer!
