                               Psi4 1.3.2 release

  ==> Input File <==

--------------------------------------------------------------------------
#psi4
#
memory 32 gb

molecule  {
0 1
  O        1.3620710    -0.3800110    -0.9318440
  O        3.2020570     1.9012130    -0.2995130
  O        2.7994070    -2.7489470    -0.4002010
  O       -1.3621860     2.3740050     0.1547830
  N       -0.7982440     0.1994180    -0.2292560
  N       -3.0541720     0.8052390     0.2400120
  N       -4.6734100    -0.8124350     0.4126370
  C        2.6914863     0.8709871     0.5668175
  C        1.2368440     1.1072260     0.8878520
  C        2.6518190    -0.3922910    -0.2854700
  C        0.5739580     0.6830040    -0.4149160
  C        2.8020980    -1.6600160     0.5224700
  C       -1.1273370    -1.1158190    -0.3082760
  C       -1.7446880     1.2038920     0.0820450
  C       -2.4173070    -1.5045610    -0.1045420
  C       -3.3619920    -0.4731600     0.1685110
  H        3.3343810     0.7567850     1.4508530
  H        0.9047070     0.4438290     1.6934890
  H        0.9853290     2.1340670     1.1581470
  H        0.5274540     1.5132540    -1.1249130
  H        3.4146206    -0.3728588    -1.0696896
  H        1.9707490    -1.7331840     1.2432230
  H        3.7460890    -1.6095150     1.0882890
  H        3.1038510     2.7463240     0.1779830
  H       -0.3107400    -1.7892010    -0.5436980
  H        2.9100300    -3.5650720     0.1192120
  H       -2.7034680    -2.5490840    -0.1532500
  H       -5.0287110    -1.6377420    -0.0567190
  H       -5.2994710    -0.0137980     0.3861010
units angstrom
no_reorient  #important for SAPT in psi4, default
symmetry c1  #important for SAPT in psi4, default
}

set PROPERTIES_ORIGIN ["COM"]
properties('MP2/aug-cc-pvtz', properties = ['dipole'])
--------------------------------------------------------------------------

    Molecular point group: c1
  Charge       = 0
  Multiplicity = 1
  Basis Set: AUG-CC-PVTZ
    Blend: AUG-CC-PVTZ
  Basis Set: (AUG-CC-PVTZ AUX)
    Blend: AUG-CC-PVTZ-JKFIT

    Orbital Energies [Eh]
    ---------------------

    Doubly Occupied:

       1A    -20.577873     2A    -20.573124     3A    -20.572933
       4A    -20.503204     5A    -15.621877     6A    -15.588455
       7A    -15.540917     8A    -11.370040     9A    -11.345155
      10A    -11.331030    11A    -11.318414    12A    -11.300952
      13A    -11.296839    14A    -11.293325    15A    -11.237149
      16A    -11.236969    17A     -1.416609    18A     -1.382148
      19A     -1.372301    20A     -1.363482    21A     -1.292357
      22A     -1.261561    23A     -1.169232    24A     -1.080501
      25A     -1.069454    26A     -1.028656    27A     -0.927071
      28A     -0.897515    29A     -0.868744    30A     -0.830785
      31A     -0.806764    32A     -0.754343    33A     -0.738951
      34A     -0.721355    35A     -0.706247    36A     -0.692849
      37A     -0.687456    38A     -0.675853    39A     -0.656654
      40A     -0.637270    41A     -0.627479    42A     -0.618397
      43A     -0.604670    44A     -0.594548    45A     -0.588648
      46A     -0.572678    47A     -0.568454    48A     -0.544732
      49A     -0.531636    50A     -0.524231    51A     -0.509940
      52A     -0.487195    53A     -0.482756    54A     -0.468762
      55A     -0.461903    56A     -0.444943    57A     -0.437817
      58A     -0.416511    59A     -0.383904    60A     -0.335091

  @DF-RHF Final Energy:  -811.47890490058535

   => Energetics <=

    Nuclear Repulsion Energy =           1170.0190296745881824
    One-Electron Energy =               -3435.0944507460635577
    Two-Electron Energy =                1453.5965161708900268
    Total Energy =                       -811.4789049005853485
  Basis Set: (AUG-CC-PVTZ AUX)
    Blend: AUG-CC-PVTZ-RI
    Molecular point group: c1

    Geometry (in Angstrom), charge = 0, multiplicity = 1:

       Center              X                  Y                   Z               Mass
    ------------   -----------------  -----------------  -----------------  -----------------
         O            1.362617894727    -0.379731652064    -0.932218417315    15.994914619570
         O            3.202603894727     1.901492347936    -0.299887417315    15.994914619570
         O            2.799953894727    -2.748667652064    -0.400575417315    15.994914619570
         O           -1.361639105273     2.374284347936     0.154408582685    15.994914619570
         N           -0.797697105273     0.199697347936    -0.229630417315    14.003074004430
         N           -3.053625105273     0.805518347936     0.239637582685    14.003074004430
         N           -4.672863105273    -0.812155652064     0.412262582685    14.003074004430
         C            2.692033194727     0.871266447936     0.566443082685    12.000000000000
         C            1.237390894727     1.107505347936     0.887477582685    12.000000000000
         C            2.652365894727    -0.392011652064    -0.285844417315    12.000000000000
         C            0.574504894727     0.683283347936    -0.415290417315    12.000000000000
         C            2.802644894727    -1.659736652064     0.522095582685    12.000000000000
         C           -1.126790105273    -1.115539652064    -0.308650417315    12.000000000000
         C           -1.744141105273     1.204171347936     0.081670582685    12.000000000000
         C           -2.416760105273    -1.504281652064    -0.104916417315    12.000000000000
         C           -3.361445105273    -0.472880652064     0.168136582685    12.000000000000
         H            3.334927894727     0.757064347936     1.450478582685     1.007825032230
         H            0.905253894727     0.444108347936     1.693114582685     1.007825032230
         H            0.985875894727     2.134346347936     1.157772582685     1.007825032230
         H            0.528000894727     1.513533347936    -1.125287417315     1.007825032230
         H            3.415167494727    -0.372579452064    -1.070064017315     1.007825032230
         H            1.971295894727    -1.732904652064     1.242848582685     1.007825032230
         H            3.746635894727    -1.609235652064     1.087914582685     1.007825032230
         H            3.104397894727     2.746603347936     0.177608582685     1.007825032230
         H           -0.310193105273    -1.788921652064    -0.544072417315     1.007825032230
         H            2.910576894727    -3.564792652064     0.118837582685     1.007825032230
         H           -2.702921105273    -2.548804652064    -0.153624417315     1.007825032230
         H           -5.028164105273    -1.637462652064    -0.057093417315     1.007825032230
         H           -5.298924105273    -0.013518652064     0.385726582685     1.007825032230

  Basis Set: AUG-CC-PVTZ
    Blend: AUG-CC-PVTZ
  Basis Set: (AUG-CC-PVTZ AUX)
    Blend: AUG-CC-PVTZ-JKFIT
	 Reference Energy          =    -811.4789049005853485 [Eh]
	 Singles Energy            =      -0.0000000000000000 [Eh]
	 Same-Spin Energy          =      -0.8297217467932517 [Eh]
	 Opposite-Spin Energy      =      -2.5253538044222359 [Eh]
	 Correlation Energy        =      -3.3550755512154877 [Eh]
	 Total Energy              =    -814.8339804518008123 [Eh]

	 ================> DF-SCS-MP2 Energies <==================
	-----------------------------------------------------------
	 SCS Same-Spin Scale       =       0.3333333333333333 [-]
	 SCS Opposite-Spin Scale   =       1.2000000000000000 [-]
	 SCS Same-Spin Energy      =      -0.2765739155977506 [Eh]
	 SCS Opposite-Spin Energy  =      -3.0304245653066828 [Eh]
	 SCS Correlation Energy    =      -3.3069984809044333 [Eh]
	 SCS Total Energy          =    -814.7859033814897884 [Eh]
	-----------------------------------------------------------

  Dipole Moment: [D]
     X:     1.0412      Y:    -4.7121      Z:     2.5053     Total:     5.4374

*** Psi4 exiting successfully. Buy a developer a beer!
