                               Psi4 1.3.2 release

  ==> Input File <==

--------------------------------------------------------------------------
#psi4
#
memory 32 gb

molecule  {
0 1
  O        1.3620710    -0.3800110    -0.9318440
  O        3.2020570     1.9012130    -0.2995130
  O        2.7994070    -2.7489470    -0.4002010
  O       -1.3621860     2.3740050     0.1547830
  N       -0.7982440     0.1994180    -0.2292560
  N       -3.0541720     0.8052390     0.2400120
  N       -4.6734100    -0.8124350     0.4126370
  C        2.6864035     0.9282611     0.6103020
  C        1.2368440     1.1072260     0.8878520
  C        2.6518190    -0.3922910    -0.2854700
  C        0.5739580     0.6830040    -0.4149160
  C        2.8020980    -1.6600160     0.5224700
  C       -1.1273370    -1.1158190    -0.3082760
  C       -1.7446880     1.2038920     0.0820450
  C       -2.4173070    -1.5045610    -0.1045420
  C       -3.3619920    -0.4731600     0.1685110
  H        3.3343810     0.7567850     1.4508530
  H        0.9047070     0.4438290     1.6934890
  H        0.9853290     2.1340670     1.1581470
  H        0.5274540     1.5132540    -1.1249130
  H        3.4174920    -0.3642830    -1.0666260
  H        1.9707490    -1.7331840     1.2432230
  H        3.7460890    -1.6095150     1.0882890
  H        3.0837064     2.7203498     0.2170792
  H       -0.3107400    -1.7892010    -0.5436980
  H        2.9100300    -3.5650720     0.1192120
  H       -2.7034680    -2.5490840    -0.1532500
  H       -5.0287110    -1.6377420    -0.0567190
  H       -5.2994710    -0.0137980     0.3861010
units angstrom
no_reorient  #important for SAPT in psi4, default
symmetry c1  #important for SAPT in psi4, default
}

set PROPERTIES_ORIGIN ["COM"]
properties('MP2/aug-cc-pvtz', properties = ['dipole'])
--------------------------------------------------------------------------

    Molecular point group: c1
  Charge       = 0
  Multiplicity = 1
  Basis Set: AUG-CC-PVTZ
    Blend: AUG-CC-PVTZ
  Basis Set: (AUG-CC-PVTZ AUX)
    Blend: AUG-CC-PVTZ-JKFIT

    Orbital Energies [Eh]
    ---------------------

    Doubly Occupied:

       1A    -20.577917     2A    -20.576538     3A    -20.572501
       4A    -20.503343     5A    -15.622303     6A    -15.588647
       7A    -15.541101     8A    -11.370262     9A    -11.345388
      10A    -11.331810    11A    -11.318639    12A    -11.300512
      13A    -11.294972    14A    -11.293529    15A    -11.237387
      16A    -11.237038    17A     -1.415317    18A     -1.383241
      19A     -1.375132    20A     -1.366537    21A     -1.292526
      22A     -1.261681    23A     -1.169407    24A     -1.080959
      25A     -1.064888    26A     -1.026874    27A     -0.926605
      28A     -0.896673    29A     -0.865998    30A     -0.829382
      31A     -0.808585    32A     -0.754561    33A     -0.739995
      34A     -0.719592    35A     -0.706244    36A     -0.691729
      37A     -0.684953    38A     -0.675747    39A     -0.657263
      40A     -0.639103    41A     -0.630380    42A     -0.620928
      43A     -0.604868    44A     -0.594428    45A     -0.590108
      46A     -0.575504    47A     -0.571079    48A     -0.544325
      49A     -0.533859    50A     -0.521075    51A     -0.511275
      52A     -0.484526    53A     -0.473471    54A     -0.468869
      55A     -0.463546    56A     -0.445448    57A     -0.436200
      58A     -0.416659    59A     -0.384321    60A     -0.335482

  @DF-RHF Final Energy:  -811.47227662600005

   => Energetics <=

    Nuclear Repulsion Energy =           1169.2873182198823088
    One-Electron Energy =               -3433.6167302178164391
    Two-Electron Energy =                1452.8571353719339641
    Total Energy =                       -811.4722766260001663
  Basis Set: (AUG-CC-PVTZ AUX)
    Blend: AUG-CC-PVTZ-RI
    Molecular point group: c1

    Geometry (in Angstrom), charge = 0, multiplicity = 1:

       Center              X                  Y                   Z               Mass
    ------------   -----------------  -----------------  -----------------  -----------------
         O            1.362963140023    -0.382680930632    -0.934703344860    15.994914619570
         O            3.202949140023     1.898543069368    -0.302372344860    15.994914619570
         O            2.800299140023    -2.751616930632    -0.403060344860    15.994914619570
         O           -1.361293859977     2.371335069368     0.151923655140    15.994914619570
         N           -0.797351859977     0.196748069368    -0.232115344860    14.003074004430
         N           -3.053279859977     0.802569069368     0.237152655140    14.003074004430
         N           -4.672517859977    -0.815104930632     0.409777655140    14.003074004430
         C            2.687295640023     0.925591169368     0.607442655140    12.000000000000
         C            1.237736140023     1.104556069368     0.884992655140    12.000000000000
         C            2.652711140023    -0.394960930632    -0.288329344860    12.000000000000
         C            0.574850140023     0.680334069368    -0.417775344860    12.000000000000
         C            2.802990140023    -1.662685930632     0.519610655140    12.000000000000
         C           -1.126444859977    -1.118488930632    -0.311135344860    12.000000000000
         C           -1.743795859977     1.201222069368     0.079185655140    12.000000000000
         C           -2.416414859977    -1.507230930632    -0.107401344860    12.000000000000
         C           -3.361099859977    -0.475829930632     0.165651655140    12.000000000000
         H            3.335273140023     0.754115069368     1.447993655140     1.007825032230
         H            0.905599140023     0.441159069368     1.690629655140     1.007825032230
         H            0.986221140023     2.131397069368     1.155287655140     1.007825032230
         H            0.528346140023     1.510584069368    -1.127772344860     1.007825032230
         H            3.418384140023    -0.366952930632    -1.069485344860     1.007825032230
         H            1.971641140023    -1.735853930632     1.240363655140     1.007825032230
         H            3.746981140023    -1.612184930632     1.085429655140     1.007825032230
         H            3.084598540023     2.717679869368     0.214219855140     1.007825032230
         H           -0.309847859977    -1.791870930632    -0.546557344860     1.007825032230
         H            2.910922140023    -3.567741930632     0.116352655140     1.007825032230
         H           -2.702575859977    -2.551753930632    -0.156109344860     1.007825032230
         H           -5.027818859977    -1.640411930632    -0.059578344860     1.007825032230
         H           -5.298578859977    -0.016467930632     0.383241655140     1.007825032230

  Basis Set: AUG-CC-PVTZ
    Blend: AUG-CC-PVTZ
  Basis Set: (AUG-CC-PVTZ AUX)
    Blend: AUG-CC-PVTZ-JKFIT
	 Reference Energy          =    -811.4722766260000526 [Eh]
	 Singles Energy            =      -0.0000000000000000 [Eh]
	 Same-Spin Energy          =      -0.8300361596586432 [Eh]
	 Opposite-Spin Energy      =      -2.5261783589381404 [Eh]
	 Correlation Energy        =      -3.3562145185967838 [Eh]
	 Total Energy              =    -814.8284911445967964 [Eh]

	 ================> DF-SCS-MP2 Energies <==================
	-----------------------------------------------------------
	 SCS Same-Spin Scale       =       0.3333333333333333 [-]
	 SCS Opposite-Spin Scale   =       1.2000000000000000 [-]
	 SCS Same-Spin Energy      =      -0.2766787198862144 [Eh]
	 SCS Opposite-Spin Energy  =      -3.0314140307257684 [Eh]
	 SCS Correlation Energy    =      -3.3080927506119826 [Eh]
	 SCS Total Energy          =    -814.7803693766120432 [Eh]
	-----------------------------------------------------------

  Dipole Moment: [D]
     X:     1.0024      Y:    -4.6656      Z:     2.5488     Total:     5.4101

*** Psi4 exiting successfully. Buy a developer a beer!
