                               Psi4 1.3.2 release

  ==> Input File <==

--------------------------------------------------------------------------
#psi4
#
memory 32 gb

molecule  {
0 1
  O       -1.3597980    -1.1437690     0.1887320
  O        1.4419330     1.0393260     0.2985870
  O        1.2366830    -1.0978030    -0.4508720
  C       -0.7366276     0.1372854     0.2952307
  C       -1.3431230     1.2084980    -0.4569850
  C        0.7367530    -0.0975110     0.0221890
  H       -0.7373290     0.3987270     1.4472430
  H       -1.2930290     0.9302150    -1.5111840
  H       -0.8256550     2.1573260    -0.3051780
  H       -2.3949050     1.3388590    -0.1830910
  H       -2.2729280    -1.0415480     0.5084360
  H        2.3630120     0.8399890     0.0298380
units angstrom
no_reorient  #important for SAPT in psi4, default
symmetry c1  #important for SAPT in psi4, default
}

set PROPERTIES_ORIGIN ["COM"]
properties('MP2/aug-cc-pvtz', properties = ['dipole'])
--------------------------------------------------------------------------

    Molecular point group: c1
  Charge       = 0
  Multiplicity = 1
  Basis Set: AUG-CC-PVTZ
    Blend: AUG-CC-PVTZ
  Basis Set: (AUG-CC-PVTZ AUX)
    Blend: AUG-CC-PVTZ-JKFIT

    Orbital Energies [Eh]
    ---------------------

    Doubly Occupied:

       1A    -20.619984     2A    -20.574444     3A    -20.555380
       4A    -11.391757     5A    -11.317640     6A    -11.237376
       7A     -1.463551     8A     -1.378427     9A     -1.356654
      10A     -1.072315    11A     -0.923375    12A     -0.798873
      13A     -0.720840    14A     -0.704338    15A     -0.664214
      16A     -0.658011    17A     -0.617291    18A     -0.603998
      19A     -0.569687    20A     -0.558727    21A     -0.517235
      22A     -0.485601    23A     -0.465717    24A     -0.444405

  @DF-RHF Final Energy:  -341.81759122744489

   => Energetics <=

    Nuclear Repulsion Energy =            249.1648818610657088
    One-Electron Energy =                -962.5652644900632140
    Two-Electron Energy =                 371.5827914015525835
    Total Energy =                       -341.8175912274448933
  Basis Set: (AUG-CC-PVTZ AUX)
    Blend: AUG-CC-PVTZ-RI
    Molecular point group: c1

    Geometry (in Angstrom), charge = 0, multiplicity = 1:

       Center              X                  Y                   Z               Mass
    ------------   -----------------  -----------------  -----------------  -----------------
         O           -1.357323231687    -1.148314002193     0.201015029972    15.994914619570
         O            1.444407768313     1.034780997807     0.310870029972    15.994914619570
         O            1.239157768313    -1.102348002193    -0.438588970028    15.994914619570
         C           -0.734152831687     0.132740397807     0.307513729972    12.000000000000
         C           -1.340648231687     1.203952997807    -0.444701970028    12.000000000000
         C            0.739227768313    -0.102056002193     0.034472029972    12.000000000000
         H           -0.734854231687     0.394181997807     1.459526029972     1.007825032230
         H           -1.290554231687     0.925669997807    -1.498900970028     1.007825032230
         H           -0.823180231687     2.152780997807    -0.292894970028     1.007825032230
         H           -2.392430231687     1.334313997807    -0.170807970028     1.007825032230
         H           -2.270453231687    -1.046093002193     0.520719029972     1.007825032230
         H            2.365486768313     0.835443997807     0.042121029972     1.007825032230

  Basis Set: AUG-CC-PVTZ
    Blend: AUG-CC-PVTZ
  Basis Set: (AUG-CC-PVTZ AUX)
    Blend: AUG-CC-PVTZ-JKFIT
	 Reference Energy          =    -341.8175912274448933 [Eh]
	 Singles Energy            =      -0.0000000000000000 [Eh]
	 Same-Spin Energy          =      -0.3276764568671247 [Eh]
	 Opposite-Spin Energy      =      -1.0138408653184114 [Eh]
	 Correlation Energy        =      -1.3415173221855361 [Eh]
	 Total Energy              =    -343.1591085496304459 [Eh]

	 ================> DF-SCS-MP2 Energies <==================
	-----------------------------------------------------------
	 SCS Same-Spin Scale       =       0.3333333333333333 [-]
	 SCS Opposite-Spin Scale   =       1.2000000000000000 [-]
	 SCS Same-Spin Energy      =      -0.1092254856223749 [Eh]
	 SCS Opposite-Spin Energy  =      -1.2166090383820938 [Eh]
	 SCS Correlation Energy    =      -1.3258345240044687 [Eh]
	 SCS Total Energy          =    -343.1434257514493424 [Eh]
	-----------------------------------------------------------

  Dipole Moment: [D]
     X:    -1.3318      Y:     2.8157      Z:     0.8855     Total:     3.2382

*** Psi4 exiting successfully. Buy a developer a beer!
