                               Psi4 1.3.2 release

  ==> Input File <==

--------------------------------------------------------------------------
#psi4
#
memory 32 gb

molecule  {
0 1
  O       -1.3597980    -1.1437690     0.1887320
  O        1.4419330     1.0393260     0.2985870
  O        1.2366830    -1.0978030    -0.4508720
  C       -0.7644790     0.1884359     0.1569993
  C       -1.3431230     1.2084980    -0.4569850
  C        0.7367530    -0.0975110     0.0221890
  H       -0.7373290     0.3987270     1.4472430
  H       -1.2930290     0.9302150    -1.5111840
  H       -0.8256550     2.1573260    -0.3051780
  H       -2.3949050     1.3388590    -0.1830910
  H       -2.2729280    -1.0415480     0.5084360
  H        2.3630120     0.8399890     0.0298380
units angstrom
no_reorient  #important for SAPT in psi4, default
symmetry c1  #important for SAPT in psi4, default
}

set PROPERTIES_ORIGIN ["COM"]
properties('MP2/aug-cc-pvtz', properties = ['dipole'])
--------------------------------------------------------------------------

    Molecular point group: c1
  Charge       = 0
  Multiplicity = 1
  Basis Set: AUG-CC-PVTZ
    Blend: AUG-CC-PVTZ
  Basis Set: (AUG-CC-PVTZ AUX)
    Blend: AUG-CC-PVTZ-JKFIT

    Orbital Energies [Eh]
    ---------------------

    Doubly Occupied:

       1A    -20.620112     2A    -20.574518     3A    -20.556034
       4A    -11.396192     5A    -11.327153     6A    -11.235658
       7A     -1.463659     8A     -1.372040     9A     -1.355156
      10A     -1.107250    11A     -0.923339    12A     -0.794041
      13A     -0.714121    14A     -0.704594    15A     -0.675125
      16A     -0.662723    17A     -0.622861    18A     -0.608916
      19A     -0.577115    20A     -0.554065    21A     -0.518781
      22A     -0.485970    23A     -0.462553    24A     -0.417097

  @DF-RHF Final Energy:  -341.76112974270262

   => Energetics <=

    Nuclear Repulsion Energy =            249.6930105000747062
    One-Electron Energy =                -963.4501298565413663
    Two-Electron Energy =                 371.9959896137640385
    Total Energy =                       -341.7611297427026216
  Basis Set: (AUG-CC-PVTZ AUX)
    Blend: AUG-CC-PVTZ-RI
    Molecular point group: c1

    Geometry (in Angstrom), charge = 0, multiplicity = 1:

       Center              X                  Y                   Z               Mass
    ------------   -----------------  -----------------  -----------------  -----------------
         O           -1.353611018965    -1.155131667977     0.219439395053    15.994914619570
         O            1.448119981035     1.027963332023     0.329294395053    15.994914619570
         O            1.242869981035    -1.109165667977    -0.420164604947    15.994914619570
         C           -0.758292018965     0.177073232023     0.187706695053    12.000000000000
         C           -1.336936018965     1.197135332023    -0.426277604947    12.000000000000
         C            0.742939981035    -0.108873667977     0.052896395053    12.000000000000
         H           -0.731142018965     0.387364332023     1.477950395053     1.007825032230
         H           -1.286842018965     0.918852332023    -1.480476604947     1.007825032230
         H           -0.819468018965     2.145963332023    -0.274470604947     1.007825032230
         H           -2.388718018965     1.327496332023    -0.152383604947     1.007825032230
         H           -2.266741018965    -1.052910667977     0.539143395053     1.007825032230
         H            2.369198981035     0.828626332023     0.060545395053     1.007825032230

  Basis Set: AUG-CC-PVTZ
    Blend: AUG-CC-PVTZ
  Basis Set: (AUG-CC-PVTZ AUX)
    Blend: AUG-CC-PVTZ-JKFIT
	 Reference Energy          =    -341.7611297427026216 [Eh]
	 Singles Energy            =      -0.0000000000000000 [Eh]
	 Same-Spin Energy          =      -0.3300740667863462 [Eh]
	 Opposite-Spin Energy      =      -1.0182469714805849 [Eh]
	 Correlation Energy        =      -1.3483210382669311 [Eh]
	 Total Energy              =    -343.1094507809695529 [Eh]

	 ================> DF-SCS-MP2 Energies <==================
	-----------------------------------------------------------
	 SCS Same-Spin Scale       =       0.3333333333333333 [-]
	 SCS Opposite-Spin Scale   =       1.2000000000000000 [-]
	 SCS Same-Spin Energy      =      -0.1100246889287821 [Eh]
	 SCS Opposite-Spin Energy  =      -1.2218963657767017 [Eh]
	 SCS Correlation Energy    =      -1.3319210547054838 [Eh]
	 SCS Total Energy          =    -343.0930507974081252 [Eh]
	-----------------------------------------------------------

  Dipole Moment: [D]
     X:    -1.3837      Y:     2.9835      Z:     0.5559     Total:     3.3354

*** Psi4 exiting successfully. Buy a developer a beer!
