                               Psi4 1.3.2 release

  ==> Input File <==

--------------------------------------------------------------------------
#psi4
#
memory 32 gb

molecule  {
0 1
  O       -1.3597980    -1.1437690     0.1887320
  O        1.4419330     1.0393260     0.2985870
  O        1.2366830    -1.0978030    -0.4508720
  C       -0.7551952     0.1713857     0.2030764
  C       -1.3431230     1.2084980    -0.4569850
  C        0.7367530    -0.0975110     0.0221890
  H       -0.7373290     0.3987270     1.4472430
  H       -1.2930290     0.9302150    -1.5111840
  H       -0.8256550     2.1573260    -0.3051780
  H       -2.3949050     1.3388590    -0.1830910
  H       -2.2729280    -1.0415480     0.5084360
  H        2.3630120     0.8399890     0.0298380
units angstrom
no_reorient  #important for SAPT in psi4, default
symmetry c1  #important for SAPT in psi4, default
}

set PROPERTIES_ORIGIN ["COM"]
properties('MP2/aug-cc-pvtz', properties = ['dipole'])
--------------------------------------------------------------------------

    Molecular point group: c1
  Charge       = 0
  Multiplicity = 1
  Basis Set: AUG-CC-PVTZ
    Blend: AUG-CC-PVTZ
  Basis Set: (AUG-CC-PVTZ AUX)
    Blend: AUG-CC-PVTZ-JKFIT

    Orbital Energies [Eh]
    ---------------------

    Doubly Occupied:

       1A    -20.620112     2A    -20.574379     3A    -20.555847
       4A    -11.394392     5A    -11.323586     6A    -11.236044
       7A     -1.463672     8A     -1.374242     9A     -1.355908
      10A     -1.094228    11A     -0.923803    12A     -0.795618
      13A     -0.715372    14A     -0.703978    15A     -0.670477
      16A     -0.661757    17A     -0.621012    18A     -0.606844
      19A     -0.574968    20A     -0.556208    21A     -0.517814
      22A     -0.485865    23A     -0.464000    24A     -0.428074

  @DF-RHF Final Energy:  -341.78541008323282

   => Energetics <=

    Nuclear Repulsion Energy =            249.5356889423791245
    One-Electron Energy =                -963.2058007099852830
    Two-Electron Energy =                 371.8847016843733400
    Total Energy =                       -341.7854100832328186
  Basis Set: (AUG-CC-PVTZ AUX)
    Blend: AUG-CC-PVTZ-RI
    Molecular point group: c1

    Geometry (in Angstrom), charge = 0, multiplicity = 1:

       Center              X                  Y                   Z               Mass
    ------------   -----------------  -----------------  -----------------  -----------------
         O           -1.354848423206    -1.152859108273     0.213297944469    15.994914619570
         O            1.446882576794     1.030235891727     0.323152944469    15.994914619570
         O            1.241632576794    -1.106893108273    -0.426306055531    15.994914619570
         C           -0.750245623206     0.162295591727     0.227642344469    12.000000000000
         C           -1.338173423206     1.199407891727    -0.432419055531    12.000000000000
         C            0.741702576794    -0.106601108273     0.046754944469    12.000000000000
         H           -0.732379423206     0.389636891727     1.471808944469     1.007825032230
         H           -1.288079423206     0.921124891727    -1.486618055531     1.007825032230
         H           -0.820705423206     2.148235891727    -0.280612055531     1.007825032230
         H           -2.389955423206     1.329768891727    -0.158525055531     1.007825032230
         H           -2.267978423206    -1.050638108273     0.533001944469     1.007825032230
         H            2.367961576794     0.830898891727     0.054403944469     1.007825032230

  Basis Set: AUG-CC-PVTZ
    Blend: AUG-CC-PVTZ
  Basis Set: (AUG-CC-PVTZ AUX)
    Blend: AUG-CC-PVTZ-JKFIT
	 Reference Energy          =    -341.7854100832328186 [Eh]
	 Singles Energy            =      -0.0000000000000000 [Eh]
	 Same-Spin Energy          =      -0.3291091420446788 [Eh]
	 Opposite-Spin Energy      =      -1.0164548712224024 [Eh]
	 Correlation Energy        =      -1.3455640132670812 [Eh]
	 Total Energy              =    -343.1309740964999264 [Eh]

	 ================> DF-SCS-MP2 Energies <==================
	-----------------------------------------------------------
	 SCS Same-Spin Scale       =       0.3333333333333333 [-]
	 SCS Opposite-Spin Scale   =       1.2000000000000000 [-]
	 SCS Same-Spin Energy      =      -0.1097030473482263 [Eh]
	 SCS Opposite-Spin Energy  =      -1.2197458454668828 [Eh]
	 SCS Correlation Energy    =      -1.3294488928151091 [Eh]
	 SCS Total Energy          =    -343.1148589760479126 [Eh]
	-----------------------------------------------------------

  Dipole Moment: [D]
     X:    -1.3620      Y:     2.9236      Z:     0.6767     Total:     3.2955

*** Psi4 exiting successfully. Buy a developer a beer!
