                               Psi4 1.3.2 release

  ==> Input File <==

--------------------------------------------------------------------------
#psi4
#
memory 32 gb

molecule  {
0 1
  O       -1.3597980    -1.1437690     0.1887320
  O        1.4419330     1.0393260     0.2985870
  O        1.2366830    -1.0978030    -0.4508720
  C       -0.7273438     0.1202352     0.3413079
  C       -1.3431230     1.2084980    -0.4569850
  C        0.7367530    -0.0975110     0.0221890
  H       -0.7373290     0.3987270     1.4472430
  H       -1.2930290     0.9302150    -1.5111840
  H       -0.8256550     2.1573260    -0.3051780
  H       -2.3949050     1.3388590    -0.1830910
  H       -2.2729280    -1.0415480     0.5084360
  H        2.3630120     0.8399890     0.0298380
units angstrom
no_reorient  #important for SAPT in psi4, default
symmetry c1  #important for SAPT in psi4, default
}

set PROPERTIES_ORIGIN ["COM"]
properties('MP2/aug-cc-pvtz', properties = ['dipole'])
--------------------------------------------------------------------------

    Molecular point group: c1
  Charge       = 0
  Multiplicity = 1
  Basis Set: AUG-CC-PVTZ
    Blend: AUG-CC-PVTZ
  Basis Set: (AUG-CC-PVTZ AUX)
    Blend: AUG-CC-PVTZ-JKFIT

    Orbital Energies [Eh]
    ---------------------

    Doubly Occupied:

       1A    -20.619860     2A    -20.574706     3A    -20.555108
       4A    -11.390947     5A    -11.315329     6A    -11.238187
       7A     -1.463417     8A     -1.380206     9A     -1.356787
      10A     -1.063384    11A     -0.922599    12A     -0.800652
      13A     -0.725433    14A     -0.704656    15A     -0.663225
      16A     -0.654459    17A     -0.615518    18A     -0.603162
      19A     -0.567104    20A     -0.558906    21A     -0.518795
      22A     -0.485444    23A     -0.465210    24A     -0.449085

  @DF-RHF Final Energy:  -341.82582755254055

   => Energetics <=

    Nuclear Repulsion Energy =            248.9477313955221973
    One-Electron Energy =                -962.1627588654231431
    Two-Electron Energy =                 371.3891999173604290
    Total Energy =                       -341.8258275525405452
  Basis Set: (AUG-CC-PVTZ AUX)
    Blend: AUG-CC-PVTZ-RI
    Molecular point group: c1

    Geometry (in Angstrom), charge = 0, multiplicity = 1:

       Center              X                  Y                   Z               Mass
    ------------   -----------------  -----------------  -----------------  -----------------
         O           -1.358560635927    -1.146041442489     0.194873566060    15.994914619570
         O            1.443170364073     1.037053557511     0.304728566060    15.994914619570
         O            1.237920364073    -1.100075442489    -0.444730433940    15.994914619570
         C           -0.726106435927     0.117962757511     0.347449466060    12.000000000000
         C           -1.341885635927     1.206225557511    -0.450843433940    12.000000000000
         C            0.737990364073    -0.099783442489     0.028330566060    12.000000000000
         H           -0.736091635927     0.396454557511     1.453384566060     1.007825032230
         H           -1.291791635927     0.927942557511    -1.505042433940     1.007825032230
         H           -0.824417635927     2.155053557511    -0.299036433940     1.007825032230
         H           -2.393667635927     1.336586557511    -0.176949433940     1.007825032230
         H           -2.271690635927    -1.043820442489     0.514577566060     1.007825032230
         H            2.364249364073     0.837716557511     0.035979566060     1.007825032230

  Basis Set: AUG-CC-PVTZ
    Blend: AUG-CC-PVTZ
  Basis Set: (AUG-CC-PVTZ AUX)
    Blend: AUG-CC-PVTZ-JKFIT
	 Reference Energy          =    -341.8258275525405452 [Eh]
	 Singles Energy            =      -0.0000000000000000 [Eh]
	 Same-Spin Energy          =      -0.3271980054785815 [Eh]
	 Opposite-Spin Energy      =      -1.0130256734523948 [Eh]
	 Correlation Energy        =      -1.3402236789309763 [Eh]
	 Total Energy              =    -343.1660512314714992 [Eh]

	 ================> DF-SCS-MP2 Energies <==================
	-----------------------------------------------------------
	 SCS Same-Spin Scale       =       0.3333333333333333 [-]
	 SCS Opposite-Spin Scale   =       1.2000000000000000 [-]
	 SCS Same-Spin Energy      =      -0.1090660018261938 [Eh]
	 SCS Opposite-Spin Energy  =      -1.2156308081428737 [Eh]
	 SCS Correlation Energy    =      -1.3246968099690675 [Eh]
	 SCS Total Energy          =    -343.1505243625096000 [Eh]
	-----------------------------------------------------------

  Dipole Moment: [D]
     X:    -1.3221      Y:     2.7649      Z:     0.9766     Total:     3.2166

*** Psi4 exiting successfully. Buy a developer a beer!
