                               Psi4 1.3.2 release

  ==> Input File <==

--------------------------------------------------------------------------
#psi4
#
memory 32 gb

molecule  {
0 1
  O       -1.3597980    -1.1437690     0.1887320
  O        1.4419330     1.0393260     0.2985870
  O        1.2366830    -1.0978030    -0.4508720
  C       -0.7459114     0.1543355     0.2491536
  C       -1.3431230     1.2084980    -0.4569850
  C        0.7367530    -0.0975110     0.0221890
  H       -0.7373290     0.3987270     1.4472430
  H       -1.2930290     0.9302150    -1.5111840
  H       -0.8256550     2.1573260    -0.3051780
  H       -2.3949050     1.3388590    -0.1830910
  H       -2.2729280    -1.0415480     0.5084360
  H        2.3630120     0.8399890     0.0298380
units angstrom
no_reorient  #important for SAPT in psi4, default
symmetry c1  #important for SAPT in psi4, default
}

set PROPERTIES_ORIGIN ["COM"]
properties('MP2/aug-cc-pvtz', properties = ['dipole'])
--------------------------------------------------------------------------

    Molecular point group: c1
  Charge       = 0
  Multiplicity = 1
  Basis Set: AUG-CC-PVTZ
    Blend: AUG-CC-PVTZ
  Basis Set: (AUG-CC-PVTZ AUX)
    Blend: AUG-CC-PVTZ-JKFIT

    Orbital Energies [Eh]
    ---------------------

    Doubly Occupied:

       1A    -20.620068     2A    -20.574345     3A    -20.555627
       4A    -11.392909     5A    -11.320404     6A    -11.236642
       7A     -1.463636     8A     -1.376410     9A     -1.356380
      10A     -1.082583    11A     -0.923799    12A     -0.797216
      13A     -0.717523    14A     -0.704018    15A     -0.666550
      16A     -0.660508    17A     -0.619135    18A     -0.605204
      19A     -0.572420    20A     -0.557787    21A     -0.517113
      22A     -0.485744    23A     -0.465145    24A     -0.437322

  @DF-RHF Final Energy:  -341.80416700710555

   => Energetics <=

    Nuclear Repulsion Energy =            249.3602849951678309
    One-Electron Energy =                -962.9119250442340672
    Two-Electron Energy =                 371.7474730419606885
    Total Energy =                       -341.8041670071055478
  Basis Set: (AUG-CC-PVTZ AUX)
    Blend: AUG-CC-PVTZ-RI
    Molecular point group: c1

    Geometry (in Angstrom), charge = 0, multiplicity = 1:

       Center              X                  Y                   Z               Mass
    ------------   -----------------  -----------------  -----------------  -----------------
         O           -1.356085827446    -1.150586548568     0.207156480556    15.994914619570
         O            1.445645172554     1.032508451432     0.317011480556    15.994914619570
         O            1.240395172554    -1.104620548568    -0.432447519444    15.994914619570
         C           -0.742199227446     0.147517951432     0.267578080556    12.000000000000
         C           -1.339410827446     1.201680451432    -0.438560519444    12.000000000000
         C            0.740465172554    -0.104328548568     0.040613480556    12.000000000000
         H           -0.733616827446     0.391909451432     1.465667480556     1.007825032230
         H           -1.289316827446     0.923397451432    -1.492759519444     1.007825032230
         H           -0.821942827446     2.150508451432    -0.286753519444     1.007825032230
         H           -2.391192827446     1.332041451432    -0.164666519444     1.007825032230
         H           -2.269215827446    -1.048365548568     0.526860480556     1.007825032230
         H            2.366724172554     0.833171451432     0.048262480556     1.007825032230

  Basis Set: AUG-CC-PVTZ
    Blend: AUG-CC-PVTZ
  Basis Set: (AUG-CC-PVTZ AUX)
    Blend: AUG-CC-PVTZ-JKFIT
	 Reference Energy          =    -341.8041670071055478 [Eh]
	 Singles Energy            =      -0.0000000000000000 [Eh]
	 Same-Spin Energy          =      -0.3283115381243767 [Eh]
	 Opposite-Spin Energy      =      -1.0149847191399921 [Eh]
	 Correlation Energy        =      -1.3432962572643687 [Eh]
	 Total Energy              =    -343.1474632643698897 [Eh]

	 ================> DF-SCS-MP2 Energies <==================
	-----------------------------------------------------------
	 SCS Same-Spin Scale       =       0.3333333333333333 [-]
	 SCS Opposite-Spin Scale   =       1.2000000000000000 [-]
	 SCS Same-Spin Energy      =      -0.1094371793747922 [Eh]
	 SCS Opposite-Spin Energy  =      -1.2179816629679905 [Eh]
	 SCS Correlation Energy    =      -1.3274188423427826 [Eh]
	 SCS Total Energy          =    -343.1315858494483564 [Eh]
	-----------------------------------------------------------

  Dipole Moment: [D]
     X:    -1.3449      Y:     2.8682      Z:     0.7860     Total:     3.2639

*** Psi4 exiting successfully. Buy a developer a beer!
