                               Psi4 1.3.2 release

  ==> Input File <==

--------------------------------------------------------------------------
#psi4
#
memory 32 gb

molecule  {
0 1
  O       -1.3597980    -1.1437690     0.1887320
  O        1.4419330     1.0393260     0.2985870
  O        1.2366830    -1.0978030    -0.4508720
  C       -0.7737628     0.2054861     0.1109222
  C       -1.3431230     1.2084980    -0.4569850
  C        0.7367530    -0.0975110     0.0221890
  H       -0.7373290     0.3987270     1.4472430
  H       -1.2930290     0.9302150    -1.5111840
  H       -0.8256550     2.1573260    -0.3051780
  H       -2.3949050     1.3388590    -0.1830910
  H       -2.2729280    -1.0415480     0.5084360
  H        2.3630120     0.8399890     0.0298380
units angstrom
no_reorient  #important for SAPT in psi4, default
symmetry c1  #important for SAPT in psi4, default
}

set PROPERTIES_ORIGIN ["COM"]
properties('MP2/aug-cc-pvtz', properties = ['dipole'])
--------------------------------------------------------------------------

    Molecular point group: c1
  Charge       = 0
  Multiplicity = 1
  Basis Set: AUG-CC-PVTZ
    Blend: AUG-CC-PVTZ
  Basis Set: (AUG-CC-PVTZ AUX)
    Blend: AUG-CC-PVTZ-JKFIT

    Orbital Energies [Eh]
    ---------------------

    Doubly Occupied:

       1A    -20.620069     2A    -20.574733     3A    -20.556185
       4A    -11.398293     5A    -11.331072     6A    -11.235584
       7A     -1.463593     8A     -1.369947     9A     -1.354028
      10A     -1.121608    11A     -0.922379    12A     -0.792473
      13A     -0.713524    14A     -0.706166    15A     -0.680052
      16A     -0.664014    17A     -0.624596    18A     -0.611347
      19A     -0.578756    20A     -0.551415    21A     -0.519670
      22A     -0.486062    23A     -0.460875    24A     -0.404835

  @DF-RHF Final Energy:  -341.73110239649020

   => Energetics <=

    Nuclear Repulsion Energy =            249.8342615773929083
    One-Electron Energy =                -963.6481768880416894
    Two-Electron Energy =                 372.0828129141585805
    Total Energy =                       -341.7311023964902006
  Basis Set: (AUG-CC-PVTZ AUX)
    Blend: AUG-CC-PVTZ-RI
    Molecular point group: c1

    Geometry (in Angstrom), charge = 0, multiplicity = 1:

       Center              X                  Y                   Z               Mass
    ------------   -----------------  -----------------  -----------------  -----------------
         O           -1.352373614725    -1.157404227681     0.225580845636    15.994914619570
         O            1.449357385275     1.025690772319     0.335435845636    15.994914619570
         O            1.244107385275    -1.111438227681    -0.414023154364    15.994914619570
         C           -0.766338414725     0.191850872319     0.147771045636    12.000000000000
         C           -1.335698614725     1.194862772319    -0.420136154364    12.000000000000
         C            0.744177385275    -0.111146227681     0.059037845636    12.000000000000
         H           -0.729904614725     0.385091772319     1.484091845636     1.007825032230
         H           -1.285604614725     0.916579772319    -1.474335154364     1.007825032230
         H           -0.818230614725     2.143690772319    -0.268329154364     1.007825032230
         H           -2.387480614725     1.325223772319    -0.146242154364     1.007825032230
         H           -2.265503614725    -1.055183227681     0.545284845636     1.007825032230
         H            2.370436385275     0.826353772319     0.066686845636     1.007825032230

  Basis Set: AUG-CC-PVTZ
    Blend: AUG-CC-PVTZ
  Basis Set: (AUG-CC-PVTZ AUX)
    Blend: AUG-CC-PVTZ-JKFIT
	 Reference Energy          =    -341.7311023964902006 [Eh]
	 Singles Energy            =      -0.0000000000000000 [Eh]
	 Same-Spin Energy          =      -0.3312085001662277 [Eh]
	 Opposite-Spin Energy      =      -1.0203520444757928 [Eh]
	 Correlation Energy        =      -1.3515605446420205 [Eh]
	 Total Energy              =    -343.0826629411322415 [Eh]

	 ================> DF-SCS-MP2 Energies <==================
	-----------------------------------------------------------
	 SCS Same-Spin Scale       =       0.3333333333333333 [-]
	 SCS Opposite-Spin Scale   =       1.2000000000000000 [-]
	 SCS Same-Spin Energy      =      -0.1104028333887425 [Eh]
	 SCS Opposite-Spin Energy  =      -1.2244224533709513 [Eh]
	 SCS Correlation Energy    =      -1.3348252867596939 [Eh]
	 SCS Total Energy          =    -343.0659276832498676 [Eh]
	-----------------------------------------------------------

  Dipole Moment: [D]
     X:    -1.4108      Y:     3.0495      Z:     0.4217     Total:     3.3864

*** Psi4 exiting successfully. Buy a developer a beer!
