                               Psi4 1.4a3.dev225

  ==> Input File <==

--------------------------------------------------------------------------
#psi4
#
memory 32 gb

molecule  {
0 1
  O       -0.4083860    -1.2037120     0.0000020
  O        1.7243640     1.6671510     0.0000140
  N        2.2253870    -0.5811730    -0.0000150
  C       -2.3031430     0.0242890     0.0000050
  C       -0.0581500     0.1228580    -0.0000120
  C       -1.1822370     0.9067590    -0.0000090
  C       -1.8774617    -1.2443588     0.0000095
  C        1.3735220     0.4821180    -0.0000010
  C       -3.7529710     0.3950310    -0.0000010
  C        3.6643050    -0.4088610     0.0000040
  H       -1.1841660     1.9889020    -0.0000190
  H       -2.2178060    -2.2289420     0.0000270
  H       -4.0072870     0.9882130    -0.8832630
  H       -4.3837090    -0.4981310     0.0000100
  H       -4.0072900     0.9882370     0.8832440
  H        1.8267750    -1.5109680    -0.0000190
  H        4.1132610    -0.8568050    -0.8912560
  H        4.1132390    -0.8567810     0.8912880
  H        3.8584940     0.6633720    -0.0000070
units angstrom
no_reorient  #important for SAPT in psi4, default
symmetry c1  #important for SAPT in psi4, default
}

set PROPERTIES_ORIGIN ["COM"]
properties('MP2/aug-cc-pvtz', properties = ['dipole'])
--------------------------------------------------------------------------

    Molecular point group: c1
  Charge       = 0
  Multiplicity = 1
  Basis Set: AUG-CC-PVTZ
    Blend: AUG-CC-PVTZ
  Basis Set: (AUG-CC-PVTZ AUX)
    Blend: AUG-CC-PVTZ-JKFIT

    Orbital Energies [Eh]
    ---------------------

    Doubly Occupied:

       1A    -20.620937     2A    -20.516334     3A    -15.587890
       4A    -11.359491     5A    -11.303659     6A    -11.296796
       7A    -11.258342     8A    -11.254267     9A    -11.243892
      10A    -11.239301    11A     -1.432062    12A     -1.369642
      13A     -1.229815    14A     -1.116773    15A     -1.036796
      16A     -0.973066    17A     -0.942057    18A     -0.845667
      19A     -0.788895    20A     -0.773995    21A     -0.729625
      22A     -0.661885    23A     -0.641236    24A     -0.635762
      25A     -0.614029    26A     -0.611042    27A     -0.590024
      28A     -0.579696    29A     -0.569197    30A     -0.546251
      31A     -0.540282    32A     -0.532703    33A     -0.526932
      34A     -0.433081    35A     -0.401420    36A     -0.388975
      37A     -0.329850

  @DF-RHF Final Energy:  -474.64291661378411

   => Energetics <=

    Nuclear Repulsion Energy =            508.2427687367811018
    One-Electron Energy =               -1654.7280395403524835
    Two-Electron Energy =                 671.8423541897873292
    Total Energy =                       -474.6429166137841094
  Basis Set: (AUG-CC-PVTZ AUX)
    Blend: AUG-CC-PVTZ-RI
    Molecular point group: c1

    Geometry (in Angstrom), charge = 0, multiplicity = 1:

       Center              X                  Y                   Z               Mass
    ------------   -----------------  -----------------  -----------------  -----------------
         O           -0.413235011746    -1.212882112371     0.000002022208    15.994914619570
         O            1.719514988254     1.657980887629     0.000014022208    15.994914619570
         N            2.220537988254    -0.590343112371    -0.000014977792    14.003074004430
         C           -2.307992011746     0.015118887629     0.000005022208    12.000000000000
         C           -0.062999011746     0.113687887629    -0.000011977792    12.000000000000
         C           -1.187086011746     0.897588887629    -0.000008977792    12.000000000000
         C           -1.882310711746    -1.253528912371     0.000009522208    12.000000000000
         C            1.368672988254     0.472947887629    -0.000000977792    12.000000000000
         C           -3.757820011746     0.385860887629    -0.000000977792    12.000000000000
         C            3.659455988254    -0.418031112371     0.000004022208    12.000000000000
         H           -1.189015011746     1.979731887629    -0.000018977792     1.007825032230
         H           -2.222655011746    -2.238112112371     0.000027022208     1.007825032230
         H           -4.012136011746     0.979042887629    -0.883262977792     1.007825032230
         H           -4.388558011746    -0.507301112371     0.000010022208     1.007825032230
         H           -4.012139011746     0.979066887629     0.883244022208     1.007825032230
         H            1.821925988254    -1.520138112371    -0.000018977792     1.007825032230
         H            4.108411988254    -0.865975112371    -0.891255977792     1.007825032230
         H            4.108389988254    -0.865951112371     0.891288022208     1.007825032230
         H            3.853644988254     0.654201887629    -0.000006977792     1.007825032230

  Basis Set: AUG-CC-PVTZ
    Blend: AUG-CC-PVTZ
  Basis Set: (AUG-CC-PVTZ AUX)
    Blend: AUG-CC-PVTZ-JKFIT
	 Reference Energy          =    -474.6429166137841094 [Eh]
	 Singles Energy            =      -0.0000000000000000 [Eh]
	 Same-Spin Energy          =      -0.4907423562259387 [Eh]
	 Opposite-Spin Energy      =      -1.5284194661429011 [Eh]
	 Correlation Energy        =      -2.0191618223688397 [Eh]
	 Total Energy              =    -476.6620784361529672 [Eh]

	 ================> DF-SCS-MP2 Energies <==================
	-----------------------------------------------------------
	 SCS Same-Spin Scale       =       0.3333333333333333 [-]
	 SCS Opposite-Spin Scale   =       1.2000000000000000 [-]
	 SCS Same-Spin Energy      =      -0.1635807854086462 [Eh]
	 SCS Opposite-Spin Energy  =      -1.8341033593714813 [Eh]
	 SCS Correlation Energy    =      -1.9976841447801275 [Eh]
	 SCS Total Energy          =    -476.6406007585642328 [Eh]
	-----------------------------------------------------------

  Dipole Moment: [D]
     X:    -1.4016      Y:    -3.0979      Z:    -0.0000     Total:     3.4003

*** Psi4 exiting successfully. Buy a developer a beer!
