                               Psi4 1.4a3.dev225

  ==> Input File <==

--------------------------------------------------------------------------
#psi4
#
memory 32 gb

molecule  {
0 1
  O       -0.4083860    -1.2037120     0.0000020
  O        1.7243640     1.6671510     0.0000140
  N        2.2253870    -0.5811730    -0.0000150
  C       -2.3031430     0.0242890     0.0000050
  C       -0.0581500     0.1228580    -0.0000120
  C       -1.1822370     0.9067590    -0.0000090
  C       -1.7775000    -1.2415930     0.0000090
  C        1.3109974     0.5601607     0.0000000
  C       -3.7529710     0.3950310    -0.0000010
  C        3.6643050    -0.4088610     0.0000040
  H       -1.1841660     1.9889020    -0.0000190
  H       -2.2178060    -2.2289420     0.0000270
  H       -4.0072870     0.9882130    -0.8832630
  H       -4.3837090    -0.4981310     0.0000100
  H       -4.0072900     0.9882370     0.8832440
  H        1.8267750    -1.5109680    -0.0000190
  H        4.1132610    -0.8568050    -0.8912560
  H        4.1132390    -0.8567810     0.8912880
  H        3.8584940     0.6633720    -0.0000070
units angstrom
no_reorient  #important for SAPT in psi4, default
symmetry c1  #important for SAPT in psi4, default
}

set PROPERTIES_ORIGIN ["COM"]
properties('MP2/aug-cc-pvtz', properties = ['dipole'])
--------------------------------------------------------------------------

    Molecular point group: c1
  Charge       = 0
  Multiplicity = 1
  Basis Set: AUG-CC-PVTZ
    Blend: AUG-CC-PVTZ
  Basis Set: (AUG-CC-PVTZ AUX)
    Blend: AUG-CC-PVTZ-JKFIT

    Orbital Energies [Eh]
    ---------------------

    Doubly Occupied:

       1A    -20.641211     2A    -20.529811     3A    -15.565231
       4A    -11.359553     5A    -11.306826     6A    -11.299624
       7A    -11.253711     8A    -11.252081     9A    -11.246510
      10A    -11.241460    11A     -1.471421    12A     -1.407012
      13A     -1.195695    14A     -1.117879    15A     -1.049981
      16A     -0.970979    17A     -0.926719    18A     -0.848480
      19A     -0.803070    20A     -0.752432    21A     -0.734794
      22A     -0.674102    23A     -0.659342    24A     -0.636877
      25A     -0.604776    26A     -0.604612    27A     -0.599055
      28A     -0.582715    29A     -0.581809    30A     -0.553830
      31A     -0.547431    32A     -0.534458    33A     -0.522755
      34A     -0.439101    35A     -0.401270    36A     -0.378823
      37A     -0.328333

  @DF-RHF Final Energy:  -474.64387443733523

   => Energetics <=

    Nuclear Repulsion Energy =            509.7799320283332349
    One-Electron Energy =               -1657.6000777830618063
    Two-Electron Energy =                 673.1762713173934571
    Total Energy =                       -474.6438744373351710
  Basis Set: (AUG-CC-PVTZ AUX)
    Blend: AUG-CC-PVTZ-RI
    Molecular point group: c1

    Geometry (in Angstrom), charge = 0, multiplicity = 1:

       Center              X                  Y                   Z               Mass
    ------------   -----------------  -----------------  -----------------  -----------------
         O           -0.416465519779    -1.219855208803     0.000001979062    15.994914619570
         O            1.716284480221     1.651007791197     0.000013979062    15.994914619570
         N            2.217307480221    -0.597316208803    -0.000015020938    14.003074004430
         C           -2.311222519779     0.008145791197     0.000004979062    12.000000000000
         C           -0.066229519779     0.106714791197    -0.000012020938    12.000000000000
         C           -1.190316519779     0.890615791197    -0.000009020938    12.000000000000
         C           -1.785579519779    -1.257736208803     0.000008979062    12.000000000000
         C            1.302917880221     0.544017491197    -0.000000020938    12.000000000000
         C           -3.761050519779     0.378887791197    -0.000001020938    12.000000000000
         C            3.656225480221    -0.425004208803     0.000003979062    12.000000000000
         H           -1.192245519779     1.972758791197    -0.000019020938     1.007825032230
         H           -2.225885519779    -2.245085208803     0.000026979062     1.007825032230
         H           -4.015366519779     0.972069791197    -0.883263020938     1.007825032230
         H           -4.391788519779    -0.514274208803     0.000009979062     1.007825032230
         H           -4.015369519779     0.972093791197     0.883243979062     1.007825032230
         H            1.818695480221    -1.527111208803    -0.000019020938     1.007825032230
         H            4.105181480221    -0.872948208803    -0.891256020938     1.007825032230
         H            4.105159480221    -0.872924208803     0.891287979062     1.007825032230
         H            3.850414480221     0.647228791197    -0.000007020938     1.007825032230

  Basis Set: AUG-CC-PVTZ
    Blend: AUG-CC-PVTZ
  Basis Set: (AUG-CC-PVTZ AUX)
    Blend: AUG-CC-PVTZ-JKFIT
	 Reference Energy          =    -474.6438744373352279 [Eh]
	 Singles Energy            =      -0.0000000000000000 [Eh]
	 Same-Spin Energy          =      -0.4905527718953224 [Eh]
	 Opposite-Spin Energy      =      -1.5259075767915173 [Eh]
	 Correlation Energy        =      -2.0164603486868398 [Eh]
	 Total Energy              =    -476.6603347860220765 [Eh]

	 ================> DF-SCS-MP2 Energies <==================
	-----------------------------------------------------------
	 SCS Same-Spin Scale       =       0.3333333333333333 [-]
	 SCS Opposite-Spin Scale   =       1.2000000000000000 [-]
	 SCS Same-Spin Energy      =      -0.1635175906317741 [Eh]
	 SCS Opposite-Spin Energy  =      -1.8310890921498206 [Eh]
	 SCS Correlation Energy    =      -1.9946066827815947 [Eh]
	 SCS Total Energy          =    -476.6384811201168077 [Eh]
	-----------------------------------------------------------

  Dipole Moment: [D]
     X:    -2.0320      Y:    -2.5060      Z:    -0.0000     Total:     3.2264

*** Psi4 exiting successfully. Buy a developer a beer!
