                               Psi4 1.4a3.dev225

  ==> Input File <==

--------------------------------------------------------------------------
#psi4
#
memory 32 gb

molecule  {
0 1
  O       -0.4083860    -1.2037120     0.0000020
  O        1.7243640     1.6671510     0.0000140
  N        2.2253870    -0.5811730    -0.0000150
  C       -2.3031430     0.0242890     0.0000050
  C       -0.0581500     0.1228580    -0.0000120
  C       -1.1822370     0.9067590    -0.0000090
  C       -1.7775000    -1.2415930     0.0000090
  C        1.2484727     0.6382035     0.0000011
  C       -3.7529710     0.3950310    -0.0000010
  C        3.6643050    -0.4088610     0.0000040
  H       -1.1841660     1.9889020    -0.0000190
  H       -2.2178060    -2.2289420     0.0000270
  H       -4.0072870     0.9882130    -0.8832630
  H       -4.3837090    -0.4981310     0.0000100
  H       -4.0072900     0.9882370     0.8832440
  H        1.8267750    -1.5109680    -0.0000190
  H        4.1132610    -0.8568050    -0.8912560
  H        4.1132390    -0.8567810     0.8912880
  H        3.8584940     0.6633720    -0.0000070
units angstrom
no_reorient  #important for SAPT in psi4, default
symmetry c1  #important for SAPT in psi4, default
}

set PROPERTIES_ORIGIN ["COM"]
properties('MP2/aug-cc-pvtz', properties = ['dipole'])
--------------------------------------------------------------------------

    Molecular point group: c1
  Charge       = 0
  Multiplicity = 1
  Basis Set: AUG-CC-PVTZ
    Blend: AUG-CC-PVTZ
  Basis Set: (AUG-CC-PVTZ AUX)
    Blend: AUG-CC-PVTZ-JKFIT

    Orbital Energies [Eh]
    ---------------------

    Doubly Occupied:

       1A    -20.646037     2A    -20.545247     3A    -15.541178
       4A    -11.361455     5A    -11.313162     6A    -11.302543
       7A    -11.258818     8A    -11.257123     9A    -11.244419
      10A    -11.234958    11A     -1.475648    12A     -1.448129
      13A     -1.164008    14A     -1.123586    15A     -1.059976
      16A     -0.971989    17A     -0.913947    18A     -0.854615
      19A     -0.809345    20A     -0.747383    21A     -0.726625
      22A     -0.679502    23A     -0.664410    24A     -0.655094
      25A     -0.606278    26A     -0.601192    27A     -0.594629
      28A     -0.584833    29A     -0.584677    30A     -0.560107
      31A     -0.556206    32A     -0.532611    33A     -0.520301
      34A     -0.431001    35A     -0.406115    36A     -0.364508
      37A     -0.330582

  @DF-RHF Final Energy:  -474.61311341876251

   => Energetics <=

    Nuclear Repulsion Energy =            509.9892350667111032
    One-Electron Energy =               -1657.8602244262599470
    Two-Electron Energy =                 673.2578759407862208
    Total Energy =                       -474.6131134187625094
  Basis Set: (AUG-CC-PVTZ AUX)
    Blend: AUG-CC-PVTZ-RI
    Molecular point group: c1

    Geometry (in Angstrom), charge = 0, multiplicity = 1:

       Center              X                  Y                   Z               Mass
    ------------   -----------------  -----------------  -----------------  -----------------
         O           -0.411070162082    -1.226589648500     0.000001884142    15.994914619570
         O            1.721679837918     1.644273351500     0.000013884142    15.994914619570
         N            2.222702837918    -0.604050648500    -0.000015115858    14.003074004430
         C           -2.305827162082     0.001411351500     0.000004884142    12.000000000000
         C           -0.060834162082     0.099980351500    -0.000012115858    12.000000000000
         C           -1.184921162082     0.883881351500    -0.000009115858    12.000000000000
         C           -1.780184162082    -1.264470648500     0.000008884142    12.000000000000
         C            1.245788537918     0.615325851500     0.000000984142    12.000000000000
         C           -3.755655162082     0.372153351500    -0.000001115858    12.000000000000
         C            3.661620837918    -0.431738648500     0.000003884142    12.000000000000
         H           -1.186850162082     1.966024351500    -0.000019115858     1.007825032230
         H           -2.220490162082    -2.251819648500     0.000026884142     1.007825032230
         H           -4.009971162082     0.965335351500    -0.883263115858     1.007825032230
         H           -4.386393162082    -0.521008648500     0.000009884142     1.007825032230
         H           -4.009974162082     0.965359351500     0.883243884142     1.007825032230
         H            1.824090837918    -1.533845648500    -0.000019115858     1.007825032230
         H            4.110576837918    -0.879682648500    -0.891256115858     1.007825032230
         H            4.110554837918    -0.879658648500     0.891287884142     1.007825032230
         H            3.855809837918     0.640494351500    -0.000007115858     1.007825032230

  Basis Set: AUG-CC-PVTZ
    Blend: AUG-CC-PVTZ
  Basis Set: (AUG-CC-PVTZ AUX)
    Blend: AUG-CC-PVTZ-JKFIT
	 Reference Energy          =    -474.6131134187625094 [Eh]
	 Singles Energy            =      -0.0000000000000000 [Eh]
	 Same-Spin Energy          =      -0.4907758033445634 [Eh]
	 Opposite-Spin Energy      =      -1.5263219760021218 [Eh]
	 Correlation Energy        =      -2.0170977793466851 [Eh]
	 Total Energy              =    -476.6302111981091798 [Eh]

	 ================> DF-SCS-MP2 Energies <==================
	-----------------------------------------------------------
	 SCS Same-Spin Scale       =       0.3333333333333333 [-]
	 SCS Opposite-Spin Scale   =       1.2000000000000000 [-]
	 SCS Same-Spin Energy      =      -0.1635919344481878 [Eh]
	 SCS Opposite-Spin Energy  =      -1.8315863712025462 [Eh]
	 SCS Correlation Energy    =      -1.9951783056507340 [Eh]
	 SCS Total Energy          =    -476.6082917244132204 [Eh]
	-----------------------------------------------------------

  Dipole Moment: [D]
     X:    -2.8273      Y:    -1.8386      Z:     0.0000     Total:     3.3725

*** Psi4 exiting successfully. Buy a developer a beer!
