                               Psi4 1.4a3.dev225

  ==> Input File <==

--------------------------------------------------------------------------
#psi4
#
memory 32 gb

molecule  {
0 1
  O       -0.4083860    -1.2037120     0.0000020
  O        1.7243640     1.6671510     0.0000140
  N        2.2253870    -0.5811730    -0.0000150
  C       -2.3031430     0.0242890     0.0000050
  C       -0.0581500     0.1228580    -0.0000120
  C       -1.1822370     0.9067590    -0.0000090
  C       -1.7775000    -1.2415930     0.0000090
  C        1.3735220     0.4821180    -0.0000010
  C       -3.7529710     0.3950310    -0.0000010
  C        3.6643050    -0.4088610     0.0000040
  H       -1.1841660     1.9889020    -0.0000190
  H       -2.2178060    -2.2289420     0.0000270
  H       -4.0072870     0.9882130    -0.8832630
  H       -4.3837090    -0.4981310     0.0000100
  H       -4.0072900     0.9882370     0.8832440
  H        1.8267750    -1.5109680    -0.0000190
  H        4.1132610    -0.8568050    -0.8912560
  H        4.1487571    -0.7515050     0.9189504
  H        3.8584940     0.6633720    -0.0000070
units angstrom
no_reorient  #important for SAPT in psi4, default
symmetry c1  #important for SAPT in psi4, default
}

set PROPERTIES_ORIGIN ["COM"]
properties('MP2/aug-cc-pvtz', properties = ['dipole'])
--------------------------------------------------------------------------

    Molecular point group: c1
  Charge       = 0
  Multiplicity = 1
  Basis Set: AUG-CC-PVTZ
    Blend: AUG-CC-PVTZ
  Basis Set: (AUG-CC-PVTZ AUX)
    Blend: AUG-CC-PVTZ-JKFIT

    Orbital Energies [Eh]
    ---------------------

    Doubly Occupied:

       1A    -20.636875     2A    -20.514406     3A    -15.587828
       4A    -11.358691     5A    -11.301037     6A    -11.299145
       7A    -11.257373     8A    -11.250273     9A    -11.246619
      10A    -11.238814    11A     -1.468095    12A     -1.369111
      13A     -1.229415    14A     -1.113219    15A     -1.041052
      16A     -0.973367    17A     -0.940857    18A     -0.840671
      19A     -0.796713    20A     -0.772926    21A     -0.737137
      22A     -0.667787    23A     -0.656286    24A     -0.638057
      25A     -0.619258    26A     -0.596596    27A     -0.591056
      28A     -0.580293    29A     -0.578437    30A     -0.551206
      31A     -0.539756    32A     -0.532184    33A     -0.520989
      34A     -0.432111    35A     -0.399438    36A     -0.389907
      37A     -0.324181

  @DF-RHF Final Energy:  -474.65274546481419

   => Energetics <=

    Nuclear Repulsion Energy =            509.6190948301739922
    One-Electron Energy =               -1657.3613430635341501
    Two-Electron Energy =                 673.0895027685460263
    Total Energy =                       -474.6527454648141884
  Basis Set: (AUG-CC-PVTZ AUX)
    Blend: AUG-CC-PVTZ-RI
    Molecular point group: c1

    Geometry (in Angstrom), charge = 0, multiplicity = 1:

       Center              X                  Y                   Z               Mass
    ------------   -----------------  -----------------  -----------------  -----------------
         O           -0.422118276969    -1.213883737959    -0.000198410641    15.994914619570
         O            1.710631723031     1.656979262041    -0.000186410641    15.994914619570
         N            2.211654723031    -0.591344737959    -0.000215410641    14.003074004430
         C           -2.316875276969     0.014117262041    -0.000195410641    12.000000000000
         C           -0.071882276969     0.112686262041    -0.000212410641    12.000000000000
         C           -1.195969276969     0.896587262041    -0.000209410641    12.000000000000
         C           -1.791232276969    -1.251764737959    -0.000191410641    12.000000000000
         C            1.359789723031     0.471946262041    -0.000201410641    12.000000000000
         C           -3.766703276969     0.384859262041    -0.000201410641    12.000000000000
         C            3.650572723031    -0.419032737959    -0.000196410641    12.000000000000
         H           -1.197898276969     1.978730262041    -0.000219410641     1.007825032230
         H           -2.231538276969    -2.239113737959    -0.000173410641     1.007825032230
         H           -4.021019276969     0.978041262041    -0.883463410641     1.007825032230
         H           -4.397441276969    -0.508302737959    -0.000190410641     1.007825032230
         H           -4.021022276969     0.978065262041     0.883043589359     1.007825032230
         H            1.813042723031    -1.521139737959    -0.000219410641     1.007825032230
         H            4.099528723031    -0.866976737959    -0.891456410641     1.007825032230
         H            4.135024823031    -0.761676737959     0.918749989359     1.007825032230
         H            3.844761723031     0.653200262041    -0.000207410641     1.007825032230

  Basis Set: AUG-CC-PVTZ
    Blend: AUG-CC-PVTZ
  Basis Set: (AUG-CC-PVTZ AUX)
    Blend: AUG-CC-PVTZ-JKFIT
	 Reference Energy          =    -474.6527454648141884 [Eh]
	 Singles Energy            =      -0.0000000000000000 [Eh]
	 Same-Spin Energy          =      -0.4909507453954368 [Eh]
	 Opposite-Spin Energy      =      -1.5266033029405464 [Eh]
	 Correlation Energy        =      -2.0175540483359833 [Eh]
	 Total Energy              =    -476.6702995131501552 [Eh]

	 ================> DF-SCS-MP2 Energies <==================
	-----------------------------------------------------------
	 SCS Same-Spin Scale       =       0.3333333333333333 [-]
	 SCS Opposite-Spin Scale   =       1.2000000000000000 [-]
	 SCS Same-Spin Energy      =      -0.1636502484651456 [Eh]
	 SCS Opposite-Spin Energy  =      -1.8319239635286555 [Eh]
	 SCS Correlation Energy    =      -1.9955742119938011 [Eh]
	 SCS Total Energy          =    -476.6483196768080006 [Eh]
	-----------------------------------------------------------

  Dipole Moment: [D]
     X:    -1.3056      Y:    -3.0943      Z:     0.0155     Total:     3.3585

*** Psi4 exiting successfully. Buy a developer a beer!
