                               Psi4 1.4a3.dev225

  ==> Input File <==

--------------------------------------------------------------------------
#psi4
#
memory 32 gb

molecule  {
0 1
  O       -0.4083860    -1.2037120     0.0000020
  O        1.7243640     1.6671510     0.0000140
  N        2.2253870    -0.5811730    -0.0000150
  C       -2.2388545    -0.0517518     0.0000050
  C       -0.0581500     0.1228580    -0.0000120
  C       -1.1822370     0.9067590    -0.0000090
  C       -1.7775000    -1.2415930     0.0000090
  C        1.3735220     0.4821180    -0.0000010
  C       -3.7529710     0.3950310    -0.0000010
  C        3.6643050    -0.4088610     0.0000040
  H       -1.1841660     1.9889020    -0.0000190
  H       -2.2178060    -2.2289420     0.0000270
  H       -4.0072870     0.9882130    -0.8832630
  H       -4.3837090    -0.4981310     0.0000100
  H       -4.0072900     0.9882370     0.8832440
  H        1.8267750    -1.5109680    -0.0000190
  H        4.1132610    -0.8568050    -0.8912560
  H        4.1132390    -0.8567810     0.8912880
  H        3.8584940     0.6633720    -0.0000070
units angstrom
no_reorient  #important for SAPT in psi4, default
symmetry c1  #important for SAPT in psi4, default
}

set PROPERTIES_ORIGIN ["COM"]
properties('MP2/aug-cc-pvtz', properties = ['dipole'])
--------------------------------------------------------------------------

    Molecular point group: c1
  Charge       = 0
  Multiplicity = 1
  Basis Set: AUG-CC-PVTZ
    Blend: AUG-CC-PVTZ
  Basis Set: (AUG-CC-PVTZ AUX)
    Blend: AUG-CC-PVTZ-JKFIT

    Orbital Energies [Eh]
    ---------------------

    Doubly Occupied:

       1A    -20.629369     2A    -20.515451     3A    -15.587786
       4A    -11.358771     5A    -11.300385     6A    -11.286179
       7A    -11.258406     8A    -11.245317     9A    -11.240966
      10A    -11.239626    11A     -1.468173    12A     -1.369951
      13A     -1.230191    14A     -1.116958    15A     -1.044252
      16A     -0.966095    17A     -0.943287    18A     -0.844620
      19A     -0.800798    20A     -0.773317    21A     -0.729873
      22A     -0.669444    23A     -0.657760    24A     -0.635787
      25A     -0.618023    26A     -0.601290    27A     -0.589551
      28A     -0.578092    29A     -0.572968    30A     -0.548171
      31A     -0.537260    32A     -0.534853    33A     -0.511931
      34A     -0.432690    35A     -0.405664    36A     -0.389870
      37A     -0.336329

  @DF-RHF Final Energy:  -474.64424232330168

   => Energetics <=

    Nuclear Repulsion Energy =            510.8885669772256506
    One-Electron Energy =               -1659.9267123617430570
    Two-Electron Energy =                 674.3939030612158376
    Total Energy =                       -474.6442423233016825
  Basis Set: (AUG-CC-PVTZ AUX)
    Blend: AUG-CC-PVTZ-RI
    Molecular point group: c1

    Geometry (in Angstrom), charge = 0, multiplicity = 1:

       Center              X                  Y                   Z               Mass
    ------------   -----------------  -----------------  -----------------  -----------------
         O           -0.427408427705    -1.206559093864     0.000002065354    15.994914619570
         O            1.705341572295     1.664303906136     0.000014065354    15.994914619570
         N            2.206364572295    -0.584020093864    -0.000014934646    14.003074004430
         C           -2.257876927705    -0.054598893864     0.000005065354    12.000000000000
         C           -0.077172427705     0.120010906136    -0.000011934646    12.000000000000
         C           -1.201259427705     0.903911906136    -0.000008934646    12.000000000000
         C           -1.796522427705    -1.244440093864     0.000009065354    12.000000000000
         C            1.354499572295     0.479270906136    -0.000000934646    12.000000000000
         C           -3.771993427705     0.392183906136    -0.000000934646    12.000000000000
         C            3.645282572295    -0.411708093864     0.000004065354    12.000000000000
         H           -1.203188427705     1.986054906136    -0.000018934646     1.007825032230
         H           -2.236828427705    -2.231789093864     0.000027065354     1.007825032230
         H           -4.026309427705     0.985365906136    -0.883262934646     1.007825032230
         H           -4.402731427705    -0.500978093864     0.000010065354     1.007825032230
         H           -4.026312427705     0.985389906136     0.883244065354     1.007825032230
         H            1.807752572295    -1.513815093864    -0.000018934646     1.007825032230
         H            4.094238572295    -0.859652093864    -0.891255934646     1.007825032230
         H            4.094216572295    -0.859628093864     0.891288065354     1.007825032230
         H            3.839471572295     0.660524906136    -0.000006934646     1.007825032230

  Basis Set: AUG-CC-PVTZ
    Blend: AUG-CC-PVTZ
  Basis Set: (AUG-CC-PVTZ AUX)
    Blend: AUG-CC-PVTZ-JKFIT
	 Reference Energy          =    -474.6442423233016825 [Eh]
	 Singles Energy            =      -0.0000000000000000 [Eh]
	 Same-Spin Energy          =      -0.4890691855283349 [Eh]
	 Opposite-Spin Energy      =      -1.5239725952457612 [Eh]
	 Correlation Energy        =      -2.0130417807740963 [Eh]
	 Total Energy              =    -476.6572841040757567 [Eh]

	 ================> DF-SCS-MP2 Energies <==================
	-----------------------------------------------------------
	 SCS Same-Spin Scale       =       0.3333333333333333 [-]
	 SCS Opposite-Spin Scale   =       1.2000000000000000 [-]
	 SCS Same-Spin Energy      =      -0.1630230618427783 [Eh]
	 SCS Opposite-Spin Energy  =      -1.8287671142949133 [Eh]
	 SCS Correlation Energy    =      -1.9917901761376917 [Eh]
	 SCS Total Energy          =    -476.6360324994393523 [Eh]
	-----------------------------------------------------------

  Dipole Moment: [D]
     X:    -1.1787      Y:    -3.1493      Z:    -0.0000     Total:     3.3627

*** Psi4 exiting successfully. Buy a developer a beer!
