                               Psi4 1.4a3.dev225

  ==> Input File <==

--------------------------------------------------------------------------
#psi4
#
memory 32 gb

molecule  {
0 1
  O       -0.4083860    -1.2037120     0.0000020
  O        1.7243640     1.6671510     0.0000140
  N        2.2253870    -0.5811730    -0.0000150
  C       -2.3031430     0.0242890     0.0000050
  C       -0.0581500     0.1228580    -0.0000120
  C       -1.1822370     0.9067590    -0.0000090
  C       -1.7775000    -1.2415930     0.0000090
  C        1.3735220     0.4821180    -0.0000010
  C       -3.7529710     0.3950310    -0.0000010
  C        3.6643050    -0.4088610     0.0000040
  H       -1.1841303     1.9689020    -0.0000188
  H       -2.2178060    -2.2289420     0.0000270
  H       -4.0072870     0.9882130    -0.8832630
  H       -4.3837090    -0.4981310     0.0000100
  H       -4.0072900     0.9882370     0.8832440
  H        1.8267750    -1.5109680    -0.0000190
  H        4.1132610    -0.8568050    -0.8912560
  H        4.1132390    -0.8567810     0.8912880
  H        3.8584940     0.6633720    -0.0000070
units angstrom
no_reorient  #important for SAPT in psi4, default
symmetry c1  #important for SAPT in psi4, default
}

set PROPERTIES_ORIGIN ["COM"]
properties('MP2/aug-cc-pvtz', properties = ['dipole'])
--------------------------------------------------------------------------

    Molecular point group: c1
  Charge       = 0
  Multiplicity = 1
  Basis Set: AUG-CC-PVTZ
    Blend: AUG-CC-PVTZ
  Basis Set: (AUG-CC-PVTZ AUX)
    Blend: AUG-CC-PVTZ-JKFIT

    Orbital Energies [Eh]
    ---------------------

    Doubly Occupied:

       1A    -20.636697     2A    -20.514217     3A    -15.587163
       4A    -11.358414     5A    -11.300822     6A    -11.298936
       7A    -11.258067     8A    -11.250025     9A    -11.244343
      10A    -11.238753    11A     -1.467914    12A     -1.369026
      13A     -1.229564    14A     -1.113338    15A     -1.041216
      16A     -0.973543    17A     -0.940827    18A     -0.840384
      19A     -0.798312    20A     -0.773148    21A     -0.737686
      22A     -0.668627    23A     -0.656004    24A     -0.635977
      25A     -0.617381    26A     -0.597611    27A     -0.591450
      28A     -0.580655    29A     -0.580142    30A     -0.551404
      31A     -0.543348    32A     -0.534127    33A     -0.521814
      34A     -0.431946    35A     -0.398937    36A     -0.388948
      37A     -0.323969

  @DF-RHF Final Energy:  -474.65417439041636

   => Energetics <=

    Nuclear Repulsion Energy =            509.7560835793208298
    One-Electron Energy =               -1657.6310461753207619
    Two-Electron Energy =                 673.2207882055836308
    Total Energy =                       -474.6541743904163013
  Basis Set: (AUG-CC-PVTZ AUX)
    Blend: AUG-CC-PVTZ-RI
    Molecular point group: c1

    Geometry (in Angstrom), charge = 0, multiplicity = 1:

       Center              X                  Y                   Z               Mass
    ------------   -----------------  -----------------  -----------------  -----------------
         O           -0.421861127574    -1.212975832977     0.000002063905    15.994914619570
         O            1.710888872426     1.657887167023     0.000014063905    15.994914619570
         N            2.211911872426    -0.590436832977    -0.000014936095    14.003074004430
         C           -2.316618127574     0.015025167023     0.000005063905    12.000000000000
         C           -0.071625127574     0.113594167023    -0.000011936095    12.000000000000
         C           -1.195712127574     0.897495167023    -0.000008936095    12.000000000000
         C           -1.790975127574    -1.250856832977     0.000009063905    12.000000000000
         C            1.360046872426     0.472854167023    -0.000000936095    12.000000000000
         C           -3.766446127574     0.385767167023    -0.000000936095    12.000000000000
         C            3.650829872426    -0.418124832977     0.000004063905    12.000000000000
         H           -1.197605427574     1.959638167023    -0.000018736095     1.007825032230
         H           -2.231281127574    -2.238205832977     0.000027063905     1.007825032230
         H           -4.020762127574     0.978949167023    -0.883262936095     1.007825032230
         H           -4.397184127574    -0.507394832977     0.000010063905     1.007825032230
         H           -4.020765127574     0.978973167023     0.883244063905     1.007825032230
         H            1.813299872426    -1.520231832977    -0.000018936095     1.007825032230
         H            4.099785872426    -0.866068832977    -0.891255936095     1.007825032230
         H            4.099763872426    -0.866044832977     0.891288063905     1.007825032230
         H            3.845018872426     0.654108167023    -0.000006936095     1.007825032230

  Basis Set: AUG-CC-PVTZ
    Blend: AUG-CC-PVTZ
  Basis Set: (AUG-CC-PVTZ AUX)
    Blend: AUG-CC-PVTZ-JKFIT
	 Reference Energy          =    -474.6541743904163582 [Eh]
	 Singles Energy            =      -0.0000000000000000 [Eh]
	 Same-Spin Energy          =      -0.4908042604670795 [Eh]
	 Opposite-Spin Energy      =      -1.5263456942501827 [Eh]
	 Correlation Energy        =      -2.0171499547172624 [Eh]
	 Total Energy              =    -476.6713243451335984 [Eh]

	 ================> DF-SCS-MP2 Energies <==================
	-----------------------------------------------------------
	 SCS Same-Spin Scale       =       0.3333333333333333 [-]
	 SCS Opposite-Spin Scale   =       1.2000000000000000 [-]
	 SCS Same-Spin Energy      =      -0.1636014201556932 [Eh]
	 SCS Opposite-Spin Energy  =      -1.8316148331002191 [Eh]
	 SCS Correlation Energy    =      -1.9952162532559123 [Eh]
	 SCS Total Energy          =    -476.6493906436722909 [Eh]
	-----------------------------------------------------------

  Dipole Moment: [D]
     X:    -1.2929      Y:    -3.1514      Z:    -0.0000     Total:     3.4063

*** Psi4 exiting successfully. Buy a developer a beer!
