                               Psi4 1.4a3.dev225

  ==> Input File <==

--------------------------------------------------------------------------
#psi4
#
memory 32 gb

molecule  {
0 1
  O       -0.4083860    -1.2037120     0.0000020
  O        1.7243640     1.6671510     0.0000140
  N        2.2253870    -0.5811730    -0.0000150
  C       -2.3031430     0.0242890     0.0000050
  C       -0.0581500     0.1228580    -0.0000120
  C       -1.1822370     0.9067590    -0.0000090
  C       -1.7775000    -1.2415930     0.0000090
  C        1.3735220     0.4821180    -0.0000010
  C       -3.6560884     0.3702567    -0.0000006
  C        3.6643050    -0.4088610     0.0000040
  H       -1.1841660     1.9889020    -0.0000190
  H       -2.2178060    -2.2289420     0.0000270
  H       -4.0072870     0.9882130    -0.8832630
  H       -4.3837090    -0.4981310     0.0000100
  H       -4.0072900     0.9882370     0.8832440
  H        1.8267750    -1.5109680    -0.0000190
  H        4.1132610    -0.8568050    -0.8912560
  H        4.1132390    -0.8567810     0.8912880
  H        3.8584940     0.6633720    -0.0000070
units angstrom
no_reorient  #important for SAPT in psi4, default
symmetry c1  #important for SAPT in psi4, default
}

set PROPERTIES_ORIGIN ["COM"]
properties('MP2/aug-cc-pvtz', properties = ['dipole'])
--------------------------------------------------------------------------

    Molecular point group: c1
  Charge       = 0
  Multiplicity = 1
  Basis Set: AUG-CC-PVTZ
    Blend: AUG-CC-PVTZ
  Basis Set: (AUG-CC-PVTZ AUX)
    Blend: AUG-CC-PVTZ-JKFIT

    Orbital Energies [Eh]
    ---------------------

    Doubly Occupied:

       1A    -20.637399     2A    -20.514772     3A    -15.587694
       4A    -11.358983     5A    -11.301915     6A    -11.299996
       7A    -11.258430     8A    -11.247132     9A    -11.245480
      10A    -11.242072    11A     -1.468831    12A     -1.369559
      13A     -1.230083    14A     -1.124538    15A     -1.044054
      16A     -0.975518    17A     -0.939803    18A     -0.841485
      19A     -0.797131    20A     -0.774111    21A     -0.740579
      22A     -0.669210    23A     -0.657247    24A     -0.638804
      25A     -0.617872    26A     -0.597949    27A     -0.594990
      28A     -0.578982    29A     -0.572253    30A     -0.567576
      31A     -0.543163    32A     -0.534416    33A     -0.504481
      34A     -0.432477    35A     -0.396059    36A     -0.388327
      37A     -0.323648

  @DF-RHF Final Energy:  -474.64147636459143

   => Energetics <=

    Nuclear Repulsion Energy =            511.4240812201250037
    One-Electron Energy =               -1660.8970840174411023
    Two-Electron Energy =                 674.8315264327245586
    Total Energy =                       -474.6414763645914263
  Basis Set: (AUG-CC-PVTZ AUX)
    Blend: AUG-CC-PVTZ-RI
    Molecular point group: c1

    Geometry (in Angstrom), charge = 0, multiplicity = 1:

       Center              X                  Y                   Z               Mass
    ------------   -----------------  -----------------  -----------------  -----------------
         O           -0.430221025419    -1.210982963237     0.000002030837    15.994914619570
         O            1.702528974581     1.659880036763     0.000014030837    15.994914619570
         N            2.203551974581    -0.588443963237    -0.000014969163    14.003074004430
         C           -2.324978025419     0.017018036763     0.000005030837    12.000000000000
         C           -0.079985025419     0.115587036763    -0.000011969163    12.000000000000
         C           -1.204072025419     0.899488036763    -0.000008969163    12.000000000000
         C           -1.799335025419    -1.248863963237     0.000009030837    12.000000000000
         C            1.351686974581     0.474847036763    -0.000000969163    12.000000000000
         C           -3.677923425419     0.362985736763    -0.000000569163    12.000000000000
         C            3.642469974581    -0.416131963237     0.000004030837    12.000000000000
         H           -1.206001025419     1.981631036763    -0.000018969163     1.007825032230
         H           -2.239641025419    -2.236212963237     0.000027030837     1.007825032230
         H           -4.029122025419     0.980942036763    -0.883262969163     1.007825032230
         H           -4.405544025419    -0.505401963237     0.000010030837     1.007825032230
         H           -4.029125025419     0.980966036763     0.883244030837     1.007825032230
         H            1.804939974581    -1.518238963237    -0.000018969163     1.007825032230
         H            4.091425974581    -0.864075963237    -0.891255969163     1.007825032230
         H            4.091403974581    -0.864051963237     0.891288030837     1.007825032230
         H            3.836658974581     0.656101036763    -0.000006969163     1.007825032230

  Basis Set: AUG-CC-PVTZ
    Blend: AUG-CC-PVTZ
  Basis Set: (AUG-CC-PVTZ AUX)
    Blend: AUG-CC-PVTZ-JKFIT
	 Reference Energy          =    -474.6414763645914263 [Eh]
	 Singles Energy            =      -0.0000000000000000 [Eh]
	 Same-Spin Energy          =      -0.4920465084281346 [Eh]
	 Opposite-Spin Energy      =      -1.5279678477205780 [Eh]
	 Correlation Energy        =      -2.0200143561487125 [Eh]
	 Total Energy              =    -476.6614907207401188 [Eh]

	 ================> DF-SCS-MP2 Energies <==================
	-----------------------------------------------------------
	 SCS Same-Spin Scale       =       0.3333333333333333 [-]
	 SCS Opposite-Spin Scale   =       1.2000000000000000 [-]
	 SCS Same-Spin Energy      =      -0.1640155028093782 [Eh]
	 SCS Opposite-Spin Energy  =      -1.8335614172646935 [Eh]
	 SCS Correlation Energy    =      -1.9975769200740716 [Eh]
	 SCS Total Energy          =    -476.6390532846655219 [Eh]
	-----------------------------------------------------------

  Dipole Moment: [D]
     X:    -1.2396      Y:    -3.1553      Z:    -0.0000     Total:     3.3901

*** Psi4 exiting successfully. Buy a developer a beer!
