                               Psi4 1.4a3.dev225

  ==> Input File <==

--------------------------------------------------------------------------
#psi4
#
memory 32 gb

molecule  {
0 1
  O       -0.4083860    -1.2037120     0.0000020
  O        1.7243640     1.6671510     0.0000140
  N        2.2253870    -0.5811730    -0.0000150
  C       -2.3031430     0.0242890     0.0000050
  C       -0.0581500     0.1228580    -0.0000120
  C       -1.1822370     0.9067590    -0.0000090
  C       -1.7775000    -1.2415930     0.0000090
  C        1.3735220     0.4821180    -0.0000010
  C       -3.7529710     0.3950310    -0.0000010
  C        3.6643050    -0.4088610     0.0000040
  H       -1.1839877     1.8889022    -0.0000181
  H       -2.2178060    -2.2289420     0.0000270
  H       -4.0072870     0.9882130    -0.8832630
  H       -4.3837090    -0.4981310     0.0000100
  H       -4.0072900     0.9882370     0.8832440
  H        1.8267750    -1.5109680    -0.0000190
  H        4.1132610    -0.8568050    -0.8912560
  H        4.1132390    -0.8567810     0.8912880
  H        3.8584940     0.6633720    -0.0000070
units angstrom
no_reorient  #important for SAPT in psi4, default
symmetry c1  #important for SAPT in psi4, default
}

set PROPERTIES_ORIGIN ["COM"]
properties('MP2/aug-cc-pvtz', properties = ['dipole'])
--------------------------------------------------------------------------

    Molecular point group: c1
  Charge       = 0
  Multiplicity = 1
  Basis Set: AUG-CC-PVTZ
    Blend: AUG-CC-PVTZ
  Basis Set: (AUG-CC-PVTZ AUX)
    Blend: AUG-CC-PVTZ-JKFIT

    Orbital Energies [Eh]
    ---------------------

    Doubly Occupied:

       1A    -20.636494     2A    -20.514445     3A    -15.587266
       4A    -11.358546     5A    -11.300521     6A    -11.298857
       7A    -11.258140     8A    -11.249598     9A    -11.238815
      10A    -11.235624    11A     -1.467703    12A     -1.369223
      13A     -1.229676    14A     -1.114614    15A     -1.042297
      16A     -0.974139    17A     -0.940945    18A     -0.843447
      19A     -0.806194    20A     -0.773439    21A     -0.740334
      22A     -0.670949    23A     -0.655834    24A     -0.636085
      25A     -0.617433    26A     -0.604497    27A     -0.591699
      28A     -0.585527    29A     -0.580218    30A     -0.551336
      31A     -0.543590    32A     -0.534253    33A     -0.521976
      34A     -0.432153    35A     -0.398907    36A     -0.389038
      37A     -0.323854

  @DF-RHF Final Energy:  -474.64791391309944

   => Energetics <=

    Nuclear Repulsion Energy =            510.2033819871411424
    One-Electron Energy =               -1658.4672554760429648
    Two-Electron Energy =                 673.6159595758025489
    Total Energy =                       -474.6479139130993872
  Basis Set: (AUG-CC-PVTZ AUX)
    Blend: AUG-CC-PVTZ-RI
    Molecular point group: c1

    Geometry (in Angstrom), charge = 0, multiplicity = 1:

       Center              X                  Y                   Z               Mass
    ------------   -----------------  -----------------  -----------------  -----------------
         O           -0.421862161030    -1.212396055390     0.000002058832    15.994914619570
         O            1.710887838970     1.658466944610     0.000014058832    15.994914619570
         N            2.211910838970    -0.589857055390    -0.000014941168    14.003074004430
         C           -2.316619161030     0.015604944610     0.000005058832    12.000000000000
         C           -0.071626161030     0.114173944610    -0.000011941168    12.000000000000
         C           -1.195713161030     0.898074944610    -0.000008941168    12.000000000000
         C           -1.790976161030    -1.250277055390     0.000009058832    12.000000000000
         C            1.360045838970     0.473433944610    -0.000000941168    12.000000000000
         C           -3.766447161030     0.386346944610    -0.000000941168    12.000000000000
         C            3.650828838970    -0.417545055390     0.000004058832    12.000000000000
         H           -1.197463861030     1.880218144610    -0.000018041168     1.007825032230
         H           -2.231282161030    -2.237626055390     0.000027058832     1.007825032230
         H           -4.020763161030     0.979528944610    -0.883262941168     1.007825032230
         H           -4.397185161030    -0.506815055390     0.000010058832     1.007825032230
         H           -4.020766161030     0.979552944610     0.883244058832     1.007825032230
         H            1.813298838970    -1.519652055390    -0.000018941168     1.007825032230
         H            4.099784838970    -0.865489055390    -0.891255941168     1.007825032230
         H            4.099762838970    -0.865465055390     0.891288058832     1.007825032230
         H            3.845017838970     0.654687944610    -0.000006941168     1.007825032230

  Basis Set: AUG-CC-PVTZ
    Blend: AUG-CC-PVTZ
  Basis Set: (AUG-CC-PVTZ AUX)
    Blend: AUG-CC-PVTZ-JKFIT
	 Reference Energy          =    -474.6479139130994440 [Eh]
	 Singles Energy            =      -0.0000000000000000 [Eh]
	 Same-Spin Energy          =      -0.4906759567009968 [Eh]
	 Opposite-Spin Energy      =      -1.5259580602413014 [Eh]
	 Correlation Energy        =      -2.0166340169422980 [Eh]
	 Total Energy              =    -476.6645479300417492 [Eh]

	 ================> DF-SCS-MP2 Energies <==================
	-----------------------------------------------------------
	 SCS Same-Spin Scale       =       0.3333333333333333 [-]
	 SCS Opposite-Spin Scale   =       1.2000000000000000 [-]
	 SCS Same-Spin Energy      =      -0.1635586522336656 [Eh]
	 SCS Opposite-Spin Energy  =      -1.8311496722895617 [Eh]
	 SCS Correlation Energy    =      -1.9947083245232273 [Eh]
	 SCS Total Energy          =    -476.6426222376226747 [Eh]
	-----------------------------------------------------------

  Dipole Moment: [D]
     X:    -1.2893      Y:    -3.1697      Z:    -0.0000     Total:     3.4219

*** Psi4 exiting successfully. Buy a developer a beer!
