                               Psi4 1.4a3.dev225

  ==> Input File <==

--------------------------------------------------------------------------
#psi4
#
memory 32 gb

molecule  {
0 1
  O       -0.4083860    -1.2037120     0.0000020
  O        1.7243640     1.6671510     0.0000140
  N        2.2253870    -0.5811730    -0.0000150
  C       -2.3031430     0.0242890     0.0000050
  C       -0.0581500     0.1228580    -0.0000120
  C       -1.1822370     0.9067590    -0.0000090
  C       -1.7775000    -1.2415930     0.0000090
  C        1.3735220     0.4821180    -0.0000010
  C       -3.7529710     0.3950310    -0.0000010
  C        3.6643050    -0.4088610     0.0000040
  H       -1.1841660     1.9889020    -0.0000190
  H       -2.2178060    -2.2289420     0.0000270
  H       -4.0072870     0.9882130    -0.8832630
  H       -4.3837090    -0.4981310     0.0000100
  H       -4.0072900     0.9882370     0.8832440
  H        1.8267750    -1.5109680    -0.0000190
  H        4.1132610    -0.8568050    -0.8912560
  H        4.1195114    -0.8395453     0.8965861
  H        3.8584940     0.6633720    -0.0000070
units angstrom
no_reorient  #important for SAPT in psi4, default
symmetry c1  #important for SAPT in psi4, default
}

set PROPERTIES_ORIGIN ["COM"]
properties('MP2/aug-cc-pvtz', properties = ['dipole'])
--------------------------------------------------------------------------

    Molecular point group: c1
  Charge       = 0
  Multiplicity = 1
  Basis Set: AUG-CC-PVTZ
    Blend: AUG-CC-PVTZ
  Basis Set: (AUG-CC-PVTZ AUX)
    Blend: AUG-CC-PVTZ-JKFIT

    Orbital Energies [Eh]
    ---------------------

    Doubly Occupied:

       1A    -20.636782     2A    -20.514202     3A    -15.587252
       4A    -11.358440     5A    -11.300928     6A    -11.299009
       7A    -11.257934     8A    -11.250187     9A    -11.246474
      10A    -11.238751    11A     -1.467999    12A     -1.369000
      13A     -1.229512    14A     -1.113120    15A     -1.041010
      16A     -0.973409    17A     -0.940801    18A     -0.840008
      19A     -0.796611    20A     -0.773031    21A     -0.737042
      22A     -0.668054    23A     -0.656093    24A     -0.636243
      25A     -0.617735    26A     -0.596490    27A     -0.591308
      28A     -0.580148    29A     -0.578590    30A     -0.551344
      31A     -0.542214    32A     -0.534325    33A     -0.521693
      34A     -0.431930    35A     -0.399045    36A     -0.389117
      37A     -0.324040

  @DF-RHF Final Energy:  -474.65400648199659

   => Energetics <=

    Nuclear Repulsion Energy =            509.6444992857144030
    One-Electron Energy =               -1657.4172600483400402
    Two-Electron Energy =                 673.1187542806291049
    Total Energy =                       -474.6540064819965892
  Basis Set: (AUG-CC-PVTZ AUX)
    Blend: AUG-CC-PVTZ-RI
    Molecular point group: c1

    Geometry (in Angstrom), charge = 0, multiplicity = 1:

       Center              X                  Y                   Z               Mass
    ------------   -----------------  -----------------  -----------------  -----------------
         O           -0.421906326422    -1.213245688955    -0.000036331237    15.994914619570
         O            1.710843673578     1.657617311045    -0.000024331237    15.994914619570
         N            2.211866673578    -0.590706688955    -0.000053331237    14.003074004430
         C           -2.316663326422     0.014755311045    -0.000033331237    12.000000000000
         C           -0.071670326422     0.113324311045    -0.000050331237    12.000000000000
         C           -1.195757326422     0.897225311045    -0.000047331237    12.000000000000
         C           -1.791020326422    -1.251126688955    -0.000029331237    12.000000000000
         C            1.360001673578     0.472584311045    -0.000039331237    12.000000000000
         C           -3.766491326422     0.385497311045    -0.000039331237    12.000000000000
         C            3.650784673578    -0.418394688955    -0.000034331237    12.000000000000
         H           -1.197686326422     1.979368311045    -0.000057331237     1.007825032230
         H           -2.231326326422    -2.238475688955    -0.000011331237     1.007825032230
         H           -4.020807326422     0.978679311045    -0.883301331237     1.007825032230
         H           -4.397229326422    -0.507664688955    -0.000028331237     1.007825032230
         H           -4.020810326422     0.978703311045     0.883205668763     1.007825032230
         H            1.813254673578    -1.520501688955    -0.000057331237     1.007825032230
         H            4.099740673578    -0.866338688955    -0.891294331237     1.007825032230
         H            4.105991073578    -0.849078988955     0.896547768763     1.007825032230
         H            3.844973673578     0.653838311045    -0.000045331237     1.007825032230

  Basis Set: AUG-CC-PVTZ
    Blend: AUG-CC-PVTZ
  Basis Set: (AUG-CC-PVTZ AUX)
    Blend: AUG-CC-PVTZ-JKFIT
	 Reference Energy          =    -474.6540064819965892 [Eh]
	 Singles Energy            =      -0.0000000000000000 [Eh]
	 Same-Spin Energy          =      -0.4908550273180476 [Eh]
	 Opposite-Spin Energy      =      -1.5264937835603947 [Eh]
	 Correlation Energy        =      -2.0173488108784423 [Eh]
	 Total Energy              =    -476.6713552928750346 [Eh]

	 ================> DF-SCS-MP2 Energies <==================
	-----------------------------------------------------------
	 SCS Same-Spin Scale       =       0.3333333333333333 [-]
	 SCS Opposite-Spin Scale   =       1.2000000000000000 [-]
	 SCS Same-Spin Energy      =      -0.1636183424393492 [Eh]
	 SCS Opposite-Spin Energy  =      -1.8317925402724735 [Eh]
	 SCS Correlation Energy    =      -1.9954108827118227 [Eh]
	 SCS Total Energy          =    -476.6494173647084267 [Eh]
	-----------------------------------------------------------

  Dipole Moment: [D]
     X:    -1.2956      Y:    -3.1390      Z:     0.0029     Total:     3.3959

*** Psi4 exiting successfully. Buy a developer a beer!
