                               Psi4 1.4a3.dev225

  ==> Input File <==

--------------------------------------------------------------------------
#psi4
#
memory 32 gb

molecule  {
0 1
  O       -0.4083860    -1.2037120     0.0000020
  O        1.6827932     1.6786733     0.0000139
  N        2.2253870    -0.5811730    -0.0000150
  C       -2.3031430     0.0242890     0.0000050
  C       -0.0581500     0.1228580    -0.0000120
  C       -1.1822370     0.9067590    -0.0000090
  C       -1.7775000    -1.2415930     0.0000090
  C        1.3735220     0.4821180    -0.0000010
  C       -3.7529710     0.3950310    -0.0000010
  C        3.6643050    -0.4088610     0.0000040
  H       -1.1841660     1.9889020    -0.0000190
  H       -2.2178060    -2.2289420     0.0000270
  H       -4.0072870     0.9882130    -0.8832630
  H       -4.3837090    -0.4981310     0.0000100
  H       -4.0072900     0.9882370     0.8832440
  H        1.8267750    -1.5109680    -0.0000190
  H        4.1132610    -0.8568050    -0.8912560
  H        4.1132390    -0.8567810     0.8912880
  H        3.8584940     0.6633720    -0.0000070
units angstrom
no_reorient  #important for SAPT in psi4, default
symmetry c1  #important for SAPT in psi4, default
}

set PROPERTIES_ORIGIN ["COM"]
properties('MP2/aug-cc-pvtz', properties = ['dipole'])
--------------------------------------------------------------------------

    Molecular point group: c1
  Charge       = 0
  Multiplicity = 1
  Basis Set: AUG-CC-PVTZ
    Blend: AUG-CC-PVTZ
  Basis Set: (AUG-CC-PVTZ AUX)
    Blend: AUG-CC-PVTZ-JKFIT

    Orbital Energies [Eh]
    ---------------------

    Doubly Occupied:

       1A    -20.635398     2A    -20.515055     3A    -15.589375
       4A    -11.358830     5A    -11.299516     6A    -11.297175
       7A    -11.259878     8A    -11.249061     9A    -11.244770
      10A    -11.237953    11A     -1.466757    12A     -1.369035
      13A     -1.232354    14A     -1.111843    15A     -1.039580
      16A     -0.973286    17A     -0.941090    18A     -0.839450
      19A     -0.795228    20A     -0.774396    21A     -0.736134
      22A     -0.667443    23A     -0.655173    24A     -0.637141
      25A     -0.618430    26A     -0.595449    27A     -0.591253
      28A     -0.579350    29A     -0.577442    30A     -0.550822
      31A     -0.545057    32A     -0.534963    33A     -0.520810
      34A     -0.431853    35A     -0.398732    36A     -0.389777
      37A     -0.322591

  @DF-RHF Final Energy:  -474.65358763789618

   => Energetics <=

    Nuclear Repulsion Energy =            509.7617886090847037
    One-Electron Energy =               -1657.6658550725833265
    Two-Electron Energy =                 673.2504788256023858
    Total Energy =                       -474.6535876378961802
  Basis Set: (AUG-CC-PVTZ AUX)
    Blend: AUG-CC-PVTZ-RI
    Molecular point group: c1

    Geometry (in Angstrom), charge = 0, multiplicity = 1:

       Center              X                  Y                   Z               Mass
    ------------   -----------------  -----------------  -----------------  -----------------
         O           -0.417079440100    -1.214446060301     0.000002076856    15.994914619570
         O            1.674099759900     1.667939239699     0.000013976856    15.994914619570
         N            2.216693559900    -0.591907060301    -0.000014923144    14.003074004430
         C           -2.311836440100     0.013554939699     0.000005076856    12.000000000000
         C           -0.066843440100     0.112123939699    -0.000011923144    12.000000000000
         C           -1.190930440100     0.896024939699    -0.000008923144    12.000000000000
         C           -1.786193440100    -1.252327060301     0.000009076856    12.000000000000
         C            1.364828559900     0.471383939699    -0.000000923144    12.000000000000
         C           -3.761664440100     0.384296939699    -0.000000923144    12.000000000000
         C            3.655611559900    -0.419595060301     0.000004076856    12.000000000000
         H           -1.192859440100     1.978167939699    -0.000018923144     1.007825032230
         H           -2.226499440100    -2.239676060301     0.000027076856     1.007825032230
         H           -4.015980440100     0.977478939699    -0.883262923144     1.007825032230
         H           -4.392402440100    -0.508865060301     0.000010076856     1.007825032230
         H           -4.015983440100     0.977502939699     0.883244076856     1.007825032230
         H            1.818081559900    -1.521702060301    -0.000018923144     1.007825032230
         H            4.104567559900    -0.867539060301    -0.891255923144     1.007825032230
         H            4.104545559900    -0.867515060301     0.891288076856     1.007825032230
         H            3.849800559900     0.652637939699    -0.000006923144     1.007825032230

  Basis Set: AUG-CC-PVTZ
    Blend: AUG-CC-PVTZ
  Basis Set: (AUG-CC-PVTZ AUX)
    Blend: AUG-CC-PVTZ-JKFIT
	 Reference Energy          =    -474.6535876378961802 [Eh]
	 Singles Energy            =      -0.0000000000000000 [Eh]
	 Same-Spin Energy          =      -0.4908271143036183 [Eh]
	 Opposite-Spin Energy      =      -1.5265335405336100 [Eh]
	 Correlation Energy        =      -2.0173606548372280 [Eh]
	 Total Energy              =    -476.6709482927333852 [Eh]

	 ================> DF-SCS-MP2 Energies <==================
	-----------------------------------------------------------
	 SCS Same-Spin Scale       =       0.3333333333333333 [-]
	 SCS Opposite-Spin Scale   =       1.2000000000000000 [-]
	 SCS Same-Spin Energy      =      -0.1636090381012061 [Eh]
	 SCS Opposite-Spin Energy  =      -1.8318402486403320 [Eh]
	 SCS Correlation Energy    =      -1.9954492867415381 [Eh]
	 SCS Total Energy          =    -476.6490369246376986 [Eh]
	-----------------------------------------------------------

  Dipole Moment: [D]
     X:    -1.1304      Y:    -3.1655      Z:    -0.0000     Total:     3.3613

*** Psi4 exiting successfully. Buy a developer a beer!
