                               Psi4 1.4a3.dev225

  ==> Input File <==

--------------------------------------------------------------------------
#psi4
#
memory 32 gb

molecule  {
0 1
  O       -0.4083860    -1.2037120     0.0000020
  O        1.7243640     1.6671510     0.0000140
  N        2.2253870    -0.5811730    -0.0000150
  C       -2.3031430     0.0242890     0.0000050
  C       -0.0581500     0.1228580    -0.0000120
  C       -1.1822370     0.9067590    -0.0000090
  C       -1.7775000    -1.2415930     0.0000090
  C        1.2670444     0.3872490    -0.0000009
  C       -3.7529710     0.3950310    -0.0000010
  C        3.6643050    -0.4088610     0.0000040
  H       -1.1841660     1.9889020    -0.0000190
  H       -2.2178060    -2.2289420     0.0000270
  H       -4.0072870     0.9882130    -0.8832630
  H       -4.3837090    -0.4981310     0.0000100
  H       -4.0072900     0.9882370     0.8832440
  H        1.8267750    -1.5109680    -0.0000190
  H        4.1132610    -0.8568050    -0.8912560
  H        4.1132390    -0.8567810     0.8912880
  H        3.8584940     0.6633720    -0.0000070
units angstrom
no_reorient  #important for SAPT in psi4, default
symmetry c1  #important for SAPT in psi4, default
}

set PROPERTIES_ORIGIN ["COM"]
properties('MP2/aug-cc-pvtz', properties = ['dipole'])
--------------------------------------------------------------------------

    Molecular point group: c1
  Charge       = 0
  Multiplicity = 1
  Basis Set: AUG-CC-PVTZ
    Blend: AUG-CC-PVTZ
  Basis Set: (AUG-CC-PVTZ AUX)
    Blend: AUG-CC-PVTZ-JKFIT

    Orbital Energies [Eh]
    ---------------------

    Doubly Occupied:

       1A    -20.643949     2A    -20.488495     3A    -15.591204
       4A    -11.351769     5A    -11.315939     6A    -11.296929
       7A    -11.264339     8A    -11.259597     9A    -11.258129
      10A    -11.245606    11A     -1.478375    12A     -1.306955
      13A     -1.203368    14A     -1.123851    15A     -1.065893
      16A     -0.983751    17A     -0.945808    18A     -0.867385
      19A     -0.807160    20A     -0.762169    21A     -0.746415
      22A     -0.673303    23A     -0.665968    24A     -0.635659
      25A     -0.612482    26A     -0.606387    27A     -0.589474
      28A     -0.587035    29A     -0.562099    30A     -0.560620
      31A     -0.534381    32A     -0.518693    33A     -0.508936
      34A     -0.406989    35A     -0.406418    36A     -0.371604
      37A     -0.331648

  @DF-RHF Final Energy:  -474.61393103803101

   => Energetics <=

    Nuclear Repulsion Energy =            510.1540992572817572
    One-Electron Energy =               -1658.3784985056349797
    Two-Electron Energy =                 673.6104682103222103
    Total Energy =                       -474.6139310380309553
  Basis Set: (AUG-CC-PVTZ AUX)
    Blend: AUG-CC-PVTZ-RI
    Molecular point group: c1

    Geometry (in Angstrom), charge = 0, multiplicity = 1:

       Center              X                  Y                   Z               Mass
    ------------   -----------------  -----------------  -----------------  -----------------
         O           -0.412672744174    -1.204934377971     0.000002056725    15.994914619570
         O            1.720077255826     1.665928622029     0.000014056725    15.994914619570
         N            2.221100255826    -0.582395377971    -0.000014943275    14.003074004430
         C           -2.307429744174     0.023066622029     0.000005056725    12.000000000000
         C           -0.062436744174     0.121635622029    -0.000011943275    12.000000000000
         C           -1.186523744174     0.905536622029    -0.000008943275    12.000000000000
         C           -1.781786744174    -1.242815377971     0.000009056725    12.000000000000
         C            1.262757655826     0.386026622029    -0.000000843275    12.000000000000
         C           -3.757257744174     0.393808622029    -0.000000943275    12.000000000000
         C            3.660018255826    -0.410083377971     0.000004056725    12.000000000000
         H           -1.188452744174     1.987679622029    -0.000018943275     1.007825032230
         H           -2.222092744174    -2.230164377971     0.000027056725     1.007825032230
         H           -4.011573744174     0.986990622029    -0.883262943275     1.007825032230
         H           -4.387995744174    -0.499353377971     0.000010056725     1.007825032230
         H           -4.011576744174     0.987014622029     0.883244056725     1.007825032230
         H            1.822488255826    -1.512190377971    -0.000018943275     1.007825032230
         H            4.108974255826    -0.858027377971    -0.891255943275     1.007825032230
         H            4.108952255826    -0.858003377971     0.891288056725     1.007825032230
         H            3.854207255826     0.662149622029    -0.000006943275     1.007825032230

  Basis Set: AUG-CC-PVTZ
    Blend: AUG-CC-PVTZ
  Basis Set: (AUG-CC-PVTZ AUX)
    Blend: AUG-CC-PVTZ-JKFIT
	 Reference Energy          =    -474.6139310380310121 [Eh]
	 Singles Energy            =      -0.0000000000000000 [Eh]
	 Same-Spin Energy          =      -0.4948897035385221 [Eh]
	 Opposite-Spin Energy      =      -1.5336978028603125 [Eh]
	 Correlation Energy        =      -2.0285875063988348 [Eh]
	 Total Energy              =    -476.6425185444298336 [Eh]

	 ================> DF-SCS-MP2 Energies <==================
	-----------------------------------------------------------
	 SCS Same-Spin Scale       =       0.3333333333333333 [-]
	 SCS Opposite-Spin Scale   =       1.2000000000000000 [-]
	 SCS Same-Spin Energy      =      -0.1649632345128407 [Eh]
	 SCS Opposite-Spin Energy  =      -1.8404373634323750 [Eh]
	 SCS Correlation Energy    =      -2.0054005979452159 [Eh]
	 SCS Total Energy          =    -476.6193316359762093 [Eh]
	-----------------------------------------------------------

  Dipole Moment: [D]
     X:    -2.0192      Y:    -3.7222      Z:    -0.0000     Total:     4.2346

*** Psi4 exiting successfully. Buy a developer a beer!
