                               Psi4 1.4a3.dev225

  ==> Input File <==

--------------------------------------------------------------------------
#psi4
#
memory 32 gb

molecule  {
0 1
  O       -0.4079334    -1.2276121     0.0000024
  O        1.7243640     1.6671510     0.0000140
  N        2.2253870    -0.5811730    -0.0000150
  C       -2.3031430     0.0242890     0.0000050
  C       -0.0581500     0.1228580    -0.0000120
  C       -1.1822370     0.9067590    -0.0000090
  C       -1.7775000    -1.2415930     0.0000090
  C        1.3735220     0.4821180    -0.0000010
  C       -3.7529710     0.3950310    -0.0000010
  C        3.6643050    -0.4088610     0.0000040
  H       -1.1841660     1.9889020    -0.0000190
  H       -2.2178060    -2.2289420     0.0000270
  H       -4.0072870     0.9882130    -0.8832630
  H       -4.3837090    -0.4981310     0.0000100
  H       -4.0072900     0.9882370     0.8832440
  H        1.8267750    -1.5109680    -0.0000190
  H        4.1132610    -0.8568050    -0.8912560
  H        4.1132390    -0.8567810     0.8912880
  H        3.8584940     0.6633720    -0.0000070
units angstrom
no_reorient  #important for SAPT in psi4, default
symmetry c1  #important for SAPT in psi4, default
}

set PROPERTIES_ORIGIN ["COM"]
properties('MP2/aug-cc-pvtz', properties = ['dipole'])
--------------------------------------------------------------------------

    Molecular point group: c1
  Charge       = 0
  Multiplicity = 1
  Basis Set: AUG-CC-PVTZ
    Blend: AUG-CC-PVTZ
  Basis Set: (AUG-CC-PVTZ AUX)
    Blend: AUG-CC-PVTZ-JKFIT

    Orbital Energies [Eh]
    ---------------------

    Doubly Occupied:

       1A    -20.636567     2A    -20.513964     3A    -15.586731
       4A    -11.358404     5A    -11.301880     6A    -11.300211
       7A    -11.257786     8A    -11.250544     9A    -11.249279
      10A    -11.239152    11A     -1.460449    12A     -1.368813
      13A     -1.229184    14A     -1.114506    15A     -1.039715
      16A     -0.973126    17A     -0.939378    18A     -0.840302
      19A     -0.794876    20A     -0.772965    21A     -0.735842
      22A     -0.665195    23A     -0.652372    24A     -0.635813
      25A     -0.616838    26A     -0.596598    27A     -0.590699
      28A     -0.580150    29A     -0.579924    30A     -0.551557
      31A     -0.543098    32A     -0.534155    33A     -0.522697
      34A     -0.431659    35A     -0.400610    36A     -0.389212
      37A     -0.323806

  @DF-RHF Final Energy:  -474.65246856669910

   => Energetics <=

    Nuclear Repulsion Energy =            508.9973813636702289
    One-Electron Energy =               -1656.1435853119651256
    Two-Electron Energy =                 672.4937353815957977
    Total Energy =                       -474.6524685666990990
  Basis Set: (AUG-CC-PVTZ AUX)
    Blend: AUG-CC-PVTZ-RI
    Molecular point group: c1

    Geometry (in Angstrom), charge = 0, multiplicity = 1:

       Center              X                  Y                   Z               Mass
    ------------   -----------------  -----------------  -----------------  -----------------
         O           -0.421460326413    -1.234271913915     0.000002419346    15.994914619570
         O            1.710837073587     1.660491186085     0.000014019346    15.994914619570
         N            2.211860073587    -0.587832813915    -0.000014980654    14.003074004430
         C           -2.316669926413     0.017629186085     0.000005019346    12.000000000000
         C           -0.071676926413     0.116198186085    -0.000011980654    12.000000000000
         C           -1.195763926413     0.900099186085    -0.000008980654    12.000000000000
         C           -1.791026926413    -1.248252813915     0.000009019346    12.000000000000
         C            1.359995073587     0.475458186085    -0.000000980654    12.000000000000
         C           -3.766497926413     0.388371186085    -0.000000980654    12.000000000000
         C            3.650778073587    -0.415520813915     0.000004019346    12.000000000000
         H           -1.197692926413     1.982242186085    -0.000018980654     1.007825032230
         H           -2.231332926413    -2.235601813915     0.000027019346     1.007825032230
         H           -4.020813926413     0.981553186085    -0.883262980654     1.007825032230
         H           -4.397235926413    -0.504790813915     0.000010019346     1.007825032230
         H           -4.020816926413     0.981577186085     0.883244019346     1.007825032230
         H            1.813248073587    -1.517627813915    -0.000018980654     1.007825032230
         H            4.099734073587    -0.863464813915    -0.891255980654     1.007825032230
         H            4.099712073587    -0.863440813915     0.891288019346     1.007825032230
         H            3.844967073587     0.656712186085    -0.000006980654     1.007825032230

  Basis Set: AUG-CC-PVTZ
    Blend: AUG-CC-PVTZ
  Basis Set: (AUG-CC-PVTZ AUX)
    Blend: AUG-CC-PVTZ-JKFIT
	 Reference Energy          =    -474.6524685666990990 [Eh]
	 Singles Energy            =      -0.0000000000000000 [Eh]
	 Same-Spin Energy          =      -0.4908917158676503 [Eh]
	 Opposite-Spin Energy      =      -1.5271353597879476 [Eh]
	 Correlation Energy        =      -2.0180270756555978 [Eh]
	 Total Energy              =    -476.6704956423546946 [Eh]

	 ================> DF-SCS-MP2 Energies <==================
	-----------------------------------------------------------
	 SCS Same-Spin Scale       =       0.3333333333333333 [-]
	 SCS Opposite-Spin Scale   =       1.2000000000000000 [-]
	 SCS Same-Spin Energy      =      -0.1636305719558834 [Eh]
	 SCS Opposite-Spin Energy  =      -1.8325624317455369 [Eh]
	 SCS Correlation Energy    =      -1.9961930037014204 [Eh]
	 SCS Total Energy          =    -476.6486615704005203 [Eh]
	-----------------------------------------------------------

  Dipole Moment: [D]
     X:    -1.3129      Y:    -3.0772      Z:    -0.0000     Total:     3.3456

*** Psi4 exiting successfully. Buy a developer a beer!
