                               Psi4 1.4a3.dev225

  ==> Input File <==

--------------------------------------------------------------------------
#psi4
#
memory 32 gb

molecule  {
0 1
  O       -0.4083860    -1.2037120     0.0000020
  O        1.7243640     1.6671510     0.0000140
  N        2.2253870    -0.5811730    -0.0000150
  C       -2.2875711     0.0048609     0.0000050
  C       -0.0581500     0.1228580    -0.0000120
  C       -1.1822370     0.9067590    -0.0000090
  C       -1.7775000    -1.2415930     0.0000090
  C        1.3735220     0.4821180    -0.0000010
  C       -3.7529710     0.3950310    -0.0000010
  C        3.6643050    -0.4088610     0.0000040
  H       -1.1841660     1.9889020    -0.0000190
  H       -2.2178060    -2.2289420     0.0000270
  H       -4.0072870     0.9882130    -0.8832630
  H       -4.3837090    -0.4981310     0.0000100
  H       -4.0072900     0.9882370     0.8832440
  H        1.8267750    -1.5109680    -0.0000190
  H        4.1132610    -0.8568050    -0.8912560
  H        4.1132390    -0.8567810     0.8912880
  H        3.8584940     0.6633720    -0.0000070
units angstrom
no_reorient  #important for SAPT in psi4, default
symmetry c1  #important for SAPT in psi4, default
}

set PROPERTIES_ORIGIN ["COM"]
properties('MP2/aug-cc-pvtz', properties = ['dipole'])
--------------------------------------------------------------------------

    Molecular point group: c1
  Charge       = 0
  Multiplicity = 1
  Basis Set: AUG-CC-PVTZ
    Blend: AUG-CC-PVTZ
  Basis Set: (AUG-CC-PVTZ AUX)
    Blend: AUG-CC-PVTZ-JKFIT

    Orbital Energies [Eh]
    ---------------------

    Doubly Occupied:

       1A    -20.634919     2A    -20.514504     3A    -15.587321
       4A    -11.358500     5A    -11.299338     6A    -11.297399
       7A    -11.258152     8A    -11.247681     9A    -11.245961
      10A    -11.239304    11A     -1.467901    12A     -1.369237
      13A     -1.229715    14A     -1.113661    15A     -1.041500
      16A     -0.971483    17A     -0.941617    18A     -0.840955
      19A     -0.797870    20A     -0.773123    21A     -0.735306
      22A     -0.668417    23A     -0.656371    24A     -0.635886
      25A     -0.617520    26A     -0.596767    27A     -0.590744
      28A     -0.578782    29A     -0.578208    30A     -0.548182
      31A     -0.542071    32A     -0.534288    33A     -0.522845
      34A     -0.432118    35A     -0.400318    36A     -0.389195
      37A     -0.327233

  @DF-RHF Final Energy:  -474.65460986769165

   => Energetics <=

    Nuclear Repulsion Energy =            509.9380356699875279
    One-Electron Energy =               -1658.0165065363062240
    Two-Electron Energy =                 673.4238609986269921
    Total Energy =                       -474.6546098676916472
  Basis Set: (AUG-CC-PVTZ AUX)
    Blend: AUG-CC-PVTZ-RI
    Molecular point group: c1

    Geometry (in Angstrom), charge = 0, multiplicity = 1:

       Center              X                  Y                   Z               Mass
    ------------   -----------------  -----------------  -----------------  -----------------
         O           -0.423204593336    -1.211444295500     0.000002065354    15.994914619570
         O            1.709545406664     1.659418704500     0.000014065354    15.994914619570
         N            2.210568406664    -0.588905295500    -0.000014934646    14.003074004430
         C           -2.302389693336    -0.002871395500     0.000005065354    12.000000000000
         C           -0.072968593336     0.115125704500    -0.000011934646    12.000000000000
         C           -1.197055593336     0.899026704500    -0.000008934646    12.000000000000
         C           -1.792318593336    -1.249325295500     0.000009065354    12.000000000000
         C            1.358703406664     0.474385704500    -0.000000934646    12.000000000000
         C           -3.767789593336     0.387298704500    -0.000000934646    12.000000000000
         C            3.649486406664    -0.416593295500     0.000004065354    12.000000000000
         H           -1.198984593336     1.981169704500    -0.000018934646     1.007825032230
         H           -2.232624593336    -2.236674295500     0.000027065354     1.007825032230
         H           -4.022105593336     0.980480704500    -0.883262934646     1.007825032230
         H           -4.398527593336    -0.505863295500     0.000010065354     1.007825032230
         H           -4.022108593336     0.980504704500     0.883244065354     1.007825032230
         H            1.811956406664    -1.518700295500    -0.000018934646     1.007825032230
         H            4.098442406664    -0.864537295500    -0.891255934646     1.007825032230
         H            4.098420406664    -0.864513295500     0.891288065354     1.007825032230
         H            3.843675406664     0.655639704500    -0.000006934646     1.007825032230

  Basis Set: AUG-CC-PVTZ
    Blend: AUG-CC-PVTZ
  Basis Set: (AUG-CC-PVTZ AUX)
    Blend: AUG-CC-PVTZ-JKFIT
	 Reference Energy          =    -474.6546098676916472 [Eh]
	 Singles Energy            =      -0.0000000000000000 [Eh]
	 Same-Spin Energy          =      -0.4903081427212602 [Eh]
	 Opposite-Spin Energy      =      -1.5257014283128461 [Eh]
	 Correlation Energy        =      -2.0160095710341062 [Eh]
	 Total Energy              =    -476.6706194387257369 [Eh]

	 ================> DF-SCS-MP2 Energies <==================
	-----------------------------------------------------------
	 SCS Same-Spin Scale       =       0.3333333333333333 [-]
	 SCS Opposite-Spin Scale   =       1.2000000000000000 [-]
	 SCS Same-Spin Energy      =      -0.1634360475737534 [Eh]
	 SCS Opposite-Spin Energy  =      -1.8308417139754152 [Eh]
	 SCS Correlation Energy    =      -1.9942777615491685 [Eh]
	 SCS Total Energy          =    -476.6488876292407895 [Eh]
	-----------------------------------------------------------

  Dipole Moment: [D]
     X:    -1.2632      Y:    -3.1492      Z:    -0.0000     Total:     3.3931

*** Psi4 exiting successfully. Buy a developer a beer!
