                               Psi4 1.4a3.dev225

  ==> Input File <==

--------------------------------------------------------------------------
#psi4
#
memory 32 gb

molecule  {
0 1
  O       -0.4083860    -1.2037120     0.0000020
  O        1.7243640     1.6671510     0.0000140
  N        2.2253870    -0.5811730    -0.0000150
  C       -2.3031430     0.0242890     0.0000050
  C       -0.0581500     0.1228580    -0.0000120
  C       -1.1822370     0.9067590    -0.0000090
  C       -1.7775000    -1.2415930     0.0000090
  C        1.3735220     0.4821180    -0.0000010
  C       -3.7529710     0.3950310    -0.0000010
  C        3.6841631    -0.4064830     0.0000043
  H       -1.1841660     1.9889020    -0.0000190
  H       -2.2178060    -2.2289420     0.0000270
  H       -4.0072870     0.9882130    -0.8832630
  H       -4.3837090    -0.4981310     0.0000100
  H       -4.0072900     0.9882370     0.8832440
  H        1.8267750    -1.5109680    -0.0000190
  H        4.1132610    -0.8568050    -0.8912560
  H        4.1132390    -0.8567810     0.8912880
  H        3.8584940     0.6633720    -0.0000070
units angstrom
no_reorient  #important for SAPT in psi4, default
symmetry c1  #important for SAPT in psi4, default
}

set PROPERTIES_ORIGIN ["COM"]
properties('MP2/aug-cc-pvtz', properties = ['dipole'])
--------------------------------------------------------------------------

    Molecular point group: c1
  Charge       = 0
  Multiplicity = 1
  Basis Set: AUG-CC-PVTZ
    Blend: AUG-CC-PVTZ
  Basis Set: (AUG-CC-PVTZ AUX)
    Blend: AUG-CC-PVTZ-JKFIT

    Orbital Energies [Eh]
    ---------------------

    Doubly Occupied:

       1A    -20.636325     2A    -20.513422     3A    -15.586502
       4A    -11.357690     5A    -11.300502     6A    -11.298552
       7A    -11.258511     8A    -11.249812     9A    -11.245993
      10A    -11.238482    11A     -1.467532    12A     -1.367928
      13A     -1.225252    14A     -1.112715    15A     -1.040197
      16A     -0.973149    17A     -0.941391    18A     -0.839956
      19A     -0.796180    20A     -0.771234    21A     -0.736402
      22A     -0.667494    23A     -0.655537    24A     -0.631651
      25A     -0.617960    26A     -0.596068    27A     -0.589739
      28A     -0.579926    29A     -0.578192    30A     -0.551681
      31A     -0.546242    32A     -0.535792    33A     -0.521636
      34A     -0.431085    35A     -0.398829    36A     -0.389047
      37A     -0.323636

  @DF-RHF Final Energy:  -474.65377785529222

   => Energetics <=

    Nuclear Repulsion Energy =            509.2847150059645287
    One-Electron Energy =               -1656.7324969494618472
    Two-Electron Energy =                 672.7940040882051562
    Total Energy =                       -474.6537778552922191
  Basis Set: (AUG-CC-PVTZ AUX)
    Blend: AUG-CC-PVTZ-RI
    Molecular point group: c1

    Geometry (in Angstrom), charge = 0, multiplicity = 1:

       Center              X                  Y                   Z               Mass
    ------------   -----------------  -----------------  -----------------  -----------------
         O           -0.423574456480    -1.213325979210     0.000002039467    15.994914619570
         O            1.709175543520     1.657537020790     0.000014039467    15.994914619570
         N            2.210198543520    -0.590786979210    -0.000014960533    14.003074004430
         C           -2.318331456480     0.014675020790     0.000005039467    12.000000000000
         C           -0.073338456480     0.113244020790    -0.000011960533    12.000000000000
         C           -1.197425456480     0.897145020790    -0.000008960533    12.000000000000
         C           -1.792688456480    -1.251206979210     0.000009039467    12.000000000000
         C            1.358333543520     0.472504020790    -0.000000960533    12.000000000000
         C           -3.768159456480     0.385417020790    -0.000000960533    12.000000000000
         C            3.668974643520    -0.416096979210     0.000004339467    12.000000000000
         H           -1.199354456480     1.979288020790    -0.000018960533     1.007825032230
         H           -2.232994456480    -2.238555979210     0.000027039467     1.007825032230
         H           -4.022475456480     0.978599020790    -0.883262960533     1.007825032230
         H           -4.398897456480    -0.507744979210     0.000010039467     1.007825032230
         H           -4.022478456480     0.978623020790     0.883244039467     1.007825032230
         H            1.811586543520    -1.520581979210    -0.000018960533     1.007825032230
         H            4.098072543520    -0.866418979210    -0.891255960533     1.007825032230
         H            4.098050543520    -0.866394979210     0.891288039467     1.007825032230
         H            3.843305543520     0.653758020790    -0.000006960533     1.007825032230

  Basis Set: AUG-CC-PVTZ
    Blend: AUG-CC-PVTZ
  Basis Set: (AUG-CC-PVTZ AUX)
    Blend: AUG-CC-PVTZ-JKFIT
	 Reference Energy          =    -474.6537778552922191 [Eh]
	 Singles Energy            =      -0.0000000000000000 [Eh]
	 Same-Spin Energy          =      -0.4907321882785731 [Eh]
	 Opposite-Spin Energy      =      -1.5264981638989328 [Eh]
	 Correlation Energy        =      -2.0172303521775059 [Eh]
	 Total Energy              =    -476.6710082074696970 [Eh]

	 ================> DF-SCS-MP2 Energies <==================
	-----------------------------------------------------------
	 SCS Same-Spin Scale       =       0.3333333333333333 [-]
	 SCS Opposite-Spin Scale   =       1.2000000000000000 [-]
	 SCS Same-Spin Energy      =      -0.1635773960928577 [Eh]
	 SCS Opposite-Spin Energy  =      -1.8317977966787193 [Eh]
	 SCS Correlation Energy    =      -1.9953751927715770 [Eh]
	 SCS Total Energy          =    -476.6491530480637948 [Eh]
	-----------------------------------------------------------

  Dipole Moment: [D]
     X:    -1.2265      Y:    -3.1592      Z:    -0.0000     Total:     3.3889

*** Psi4 exiting successfully. Buy a developer a beer!
