                               Psi4 1.4a3.dev225

  ==> Input File <==

--------------------------------------------------------------------------
#psi4
#
memory 32 gb

molecule  {
0 1
  O       -0.4083860    -1.2037120     0.0000020
  O        1.7655073     1.6541849     0.0000141
  N        2.2253870    -0.5811730    -0.0000150
  C       -2.3031430     0.0242890     0.0000050
  C       -0.0581500     0.1228580    -0.0000120
  C       -1.1822370     0.9067590    -0.0000090
  C       -1.7775000    -1.2415930     0.0000090
  C        1.3735220     0.4821180    -0.0000010
  C       -3.7529710     0.3950310    -0.0000010
  C        3.6643050    -0.4088610     0.0000040
  H       -1.1841660     1.9889020    -0.0000190
  H       -2.2178060    -2.2289420     0.0000270
  H       -4.0072870     0.9882130    -0.8832630
  H       -4.3837090    -0.4981310     0.0000100
  H       -4.0072900     0.9882370     0.8832440
  H        1.8267750    -1.5109680    -0.0000190
  H        4.1132610    -0.8568050    -0.8912560
  H        4.1132390    -0.8567810     0.8912880
  H        3.8584940     0.6633720    -0.0000070
units angstrom
no_reorient  #important for SAPT in psi4, default
symmetry c1  #important for SAPT in psi4, default
}

set PROPERTIES_ORIGIN ["COM"]
properties('MP2/aug-cc-pvtz', properties = ['dipole'])
--------------------------------------------------------------------------

    Molecular point group: c1
  Charge       = 0
  Multiplicity = 1
  Basis Set: AUG-CC-PVTZ
    Blend: AUG-CC-PVTZ
  Basis Set: (AUG-CC-PVTZ AUX)
    Blend: AUG-CC-PVTZ-JKFIT

    Orbital Energies [Eh]
    ---------------------

    Doubly Occupied:

       1A    -20.638083     2A    -20.513217     3A    -15.584887
       4A    -11.357988     5A    -11.302258     6A    -11.300783
       7A    -11.256167     8A    -11.251248     9A    -11.248071
      10A    -11.239504    11A     -1.469169    12A     -1.369087
      13A     -1.226635    14A     -1.114326    15A     -1.042396
      16A     -0.973613    17A     -0.940451    18A     -0.840312
      19A     -0.797923    20A     -0.771703    21A     -0.737881
      22A     -0.668818    23A     -0.656948    24A     -0.634783
      25A     -0.616290    26A     -0.597475    27A     -0.591543
      28A     -0.580876    29A     -0.579773    30A     -0.552114
      31A     -0.541294    32A     -0.533236    33A     -0.522596
      34A     -0.431685    35A     -0.399555    36A     -0.387661
      37A     -0.325378

  @DF-RHF Final Energy:  -474.65378559957776

   => Energetics <=

    Nuclear Repulsion Energy =            509.5712830833369935
    One-Electron Energy =               -1657.2586822451276021
    Two-Electron Energy =                 673.0336135622128495
    Total Energy =                       -474.6537855995777591
  Basis Set: (AUG-CC-PVTZ AUX)
    Blend: AUG-CC-PVTZ-RI
    Molecular point group: c1

    Geometry (in Angstrom), charge = 0, multiplicity = 1:

       Center              X                  Y                   Z               Mass
    ------------   -----------------  -----------------  -----------------  -----------------
         O           -0.426593127003    -1.211629430846     0.000002053852    15.994914619570
         O            1.747300172997     1.646267469154     0.000014153852    15.994914619570
         N            2.207179872997    -0.589090430846    -0.000014946148    14.003074004430
         C           -2.321350127003     0.016371569154     0.000005053852    12.000000000000
         C           -0.076357127003     0.114940569154    -0.000011946148    12.000000000000
         C           -1.200444127003     0.898841569154    -0.000008946148    12.000000000000
         C           -1.795707127003    -1.249510430846     0.000009053852    12.000000000000
         C            1.355314872997     0.474200569154    -0.000000946148    12.000000000000
         C           -3.771178127003     0.387113569154    -0.000000946148    12.000000000000
         C            3.646097872997    -0.416778430846     0.000004053852    12.000000000000
         H           -1.202373127003     1.980984569154    -0.000018946148     1.007825032230
         H           -2.236013127003    -2.236859430846     0.000027053852     1.007825032230
         H           -4.025494127003     0.980295569154    -0.883262946148     1.007825032230
         H           -4.401916127003    -0.506048430846     0.000010053852     1.007825032230
         H           -4.025497127003     0.980319569154     0.883244053852     1.007825032230
         H            1.808567872997    -1.518885430846    -0.000018946148     1.007825032230
         H            4.095053872997    -0.864722430846    -0.891255946148     1.007825032230
         H            4.095031872997    -0.864698430846     0.891288053852     1.007825032230
         H            3.840286872997     0.655454569154    -0.000006946148     1.007825032230

  Basis Set: AUG-CC-PVTZ
    Blend: AUG-CC-PVTZ
  Basis Set: (AUG-CC-PVTZ AUX)
    Blend: AUG-CC-PVTZ-JKFIT
	 Reference Energy          =    -474.6537855995777591 [Eh]
	 Singles Energy            =      -0.0000000000000000 [Eh]
	 Same-Spin Energy          =      -0.4908988120816236 [Eh]
	 Opposite-Spin Energy      =      -1.5264951718590341 [Eh]
	 Correlation Energy        =      -2.0173939839406576 [Eh]
	 Total Energy              =    -476.6711795835184375 [Eh]

	 ================> DF-SCS-MP2 Energies <==================
	-----------------------------------------------------------
	 SCS Same-Spin Scale       =       0.3333333333333333 [-]
	 SCS Opposite-Spin Scale   =       1.2000000000000000 [-]
	 SCS Same-Spin Energy      =      -0.1636329373605412 [Eh]
	 SCS Opposite-Spin Energy  =      -1.8317942062308408 [Eh]
	 SCS Correlation Energy    =      -1.9954271435913820 [Eh]
	 SCS Total Energy          =    -476.6492127431691301 [Eh]
	-----------------------------------------------------------

  Dipole Moment: [D]
     X:    -1.4549      Y:    -3.1244      Z:    -0.0000     Total:     3.4465

*** Psi4 exiting successfully. Buy a developer a beer!
