                               Psi4 1.4a3.dev225

  ==> Input File <==

--------------------------------------------------------------------------
#psi4
#
memory 32 gb

molecule  {
0 1
  O       -0.4083860    -1.2037120     0.0000020
  O        1.7243640     1.6671510     0.0000140
  N        2.2253870    -0.5811730    -0.0000150
  C       -2.3031430     0.0242890     0.0000050
  C       -0.0581500     0.1228580    -0.0000120
  C       -1.1822370     0.9067590    -0.0000090
  C       -1.7775000    -1.2415930     0.0000090
  C        1.3735220     0.4821180    -0.0000010
  C       -3.7529710     0.3950310    -0.0000010
  C        3.6643050    -0.4088610     0.0000040
  H       -1.1841660     1.9889020    -0.0000190
  H       -2.2178060    -2.2289420     0.0000270
  H       -4.0072870     0.9882130    -0.8832630
  H       -4.3837090    -0.4981310     0.0000100
  H       -4.0072900     0.9882370     0.8832440
  H        1.8464763    -1.4650130    -0.0000188
  H        4.1132610    -0.8568050    -0.8912560
  H        4.1132390    -0.8567810     0.8912880
  H        3.8584940     0.6633720    -0.0000070
units angstrom
no_reorient  #important for SAPT in psi4, default
symmetry c1  #important for SAPT in psi4, default
}

set PROPERTIES_ORIGIN ["COM"]
properties('MP2/aug-cc-pvtz', properties = ['dipole'])
--------------------------------------------------------------------------

    Molecular point group: c1
  Charge       = 0
  Multiplicity = 1
  Basis Set: AUG-CC-PVTZ
    Blend: AUG-CC-PVTZ
  Basis Set: (AUG-CC-PVTZ AUX)
    Blend: AUG-CC-PVTZ-JKFIT

    Orbital Energies [Eh]
    ---------------------

    Doubly Occupied:

       1A    -20.636738     2A    -20.514532     3A    -15.582707
       4A    -11.358660     5A    -11.301001     6A    -11.299091
       7A    -11.258251     8A    -11.250199     9A    -11.246615
      10A    -11.238773    11A     -1.467955    12A     -1.369718
      13A     -1.236005    14A     -1.113153    15A     -1.041192
      16A     -0.973799    17A     -0.941764    18A     -0.843905
      19A     -0.796670    20A     -0.782214    21A     -0.737082
      22A     -0.668960    23A     -0.656122    24A     -0.637277
      25A     -0.617900    26A     -0.596532    27A     -0.592587
      28A     -0.580156    29A     -0.578592    30A     -0.551556
      31A     -0.545843    32A     -0.534403    33A     -0.521866
      34A     -0.432373    35A     -0.399271    36A     -0.389760
      37A     -0.324140

  @DF-RHF Final Energy:  -474.65370491047554

   => Energetics <=

    Nuclear Repulsion Energy =            509.9213936004338734
    One-Electron Energy =               -1657.9154718464371854
    Two-Electron Energy =                 673.3403733355277154
    Total Energy =                       -474.6537049104755397
  Basis Set: (AUG-CC-PVTZ AUX)
    Blend: AUG-CC-PVTZ-RI
    Molecular point group: c1

    Geometry (in Angstrom), charge = 0, multiplicity = 1:

       Center              X                  Y                   Z               Mass
    ------------   -----------------  -----------------  -----------------  -----------------
         O           -0.422003648856    -1.213453824556     0.000002063905    15.994914619570
         O            1.710746351144     1.657409175444     0.000014063905    15.994914619570
         N            2.211769351144    -0.590914824556    -0.000014936095    14.003074004430
         C           -2.316760648856     0.014547175444     0.000005063905    12.000000000000
         C           -0.071767648856     0.113116175444    -0.000011936095    12.000000000000
         C           -1.195854648856     0.897017175444    -0.000008936095    12.000000000000
         C           -1.791117648856    -1.251334824556     0.000009063905    12.000000000000
         C            1.359904351144     0.472376175444    -0.000000936095    12.000000000000
         C           -3.766588648856     0.385289175444    -0.000000936095    12.000000000000
         C            3.650687351144    -0.418602824556     0.000004063905    12.000000000000
         H           -1.197783648856     1.979160175444    -0.000018936095     1.007825032230
         H           -2.231423648856    -2.238683824556     0.000027063905     1.007825032230
         H           -4.020904648856     0.978471175444    -0.883262936095     1.007825032230
         H           -4.397326648856    -0.507872824556     0.000010063905     1.007825032230
         H           -4.020907648856     0.978495175444     0.883244063905     1.007825032230
         H            1.832858651144    -1.474754824556    -0.000018736095     1.007825032230
         H            4.099643351144    -0.866546824556    -0.891255936095     1.007825032230
         H            4.099621351144    -0.866522824556     0.891288063905     1.007825032230
         H            3.844876351144     0.653630175444    -0.000006936095     1.007825032230

  Basis Set: AUG-CC-PVTZ
    Blend: AUG-CC-PVTZ
  Basis Set: (AUG-CC-PVTZ AUX)
    Blend: AUG-CC-PVTZ-JKFIT
	 Reference Energy          =    -474.6537049104755397 [Eh]
	 Singles Energy            =      -0.0000000000000000 [Eh]
	 Same-Spin Energy          =      -0.4904466757326018 [Eh]
	 Opposite-Spin Energy      =      -1.5256006741623598 [Eh]
	 Correlation Energy        =      -2.0160473498949614 [Eh]
	 Total Energy              =    -476.6697522603705011 [Eh]

	 ================> DF-SCS-MP2 Energies <==================
	-----------------------------------------------------------
	 SCS Same-Spin Scale       =       0.3333333333333333 [-]
	 SCS Opposite-Spin Scale   =       1.2000000000000000 [-]
	 SCS Same-Spin Energy      =      -0.1634822252442006 [Eh]
	 SCS Opposite-Spin Energy  =      -1.8307208089948317 [Eh]
	 SCS Correlation Energy    =      -1.9942030342390322 [Eh]
	 SCS Total Energy          =    -476.6479079447145750 [Eh]
	-----------------------------------------------------------

  Dipole Moment: [D]
     X:    -1.2870      Y:    -3.1020      Z:    -0.0000     Total:     3.3584

*** Psi4 exiting successfully. Buy a developer a beer!
