                               Psi4 1.4a3.dev225

  ==> Input File <==

--------------------------------------------------------------------------
#psi4
#
memory 32 gb

molecule  {
0 1
  O       -0.4090786    -1.2993088     0.0000035
  O        1.7243640     1.6671510     0.0000140
  N        2.2253870    -0.5811730    -0.0000150
  C       -2.3031430     0.0242890     0.0000050
  C       -0.0581500     0.1228580    -0.0000120
  C       -1.1822370     0.9067590    -0.0000090
  C       -1.7775000    -1.2415930     0.0000090
  C        1.3735220     0.4821180    -0.0000010
  C       -3.7529710     0.3950310    -0.0000010
  C        3.6643050    -0.4088610     0.0000040
  H       -1.1841660     1.9889020    -0.0000190
  H       -2.2178060    -2.2289420     0.0000270
  H       -4.0072870     0.9882130    -0.8832630
  H       -4.3837090    -0.4981310     0.0000100
  H       -4.0072900     0.9882370     0.8832440
  H        1.8267750    -1.5109680    -0.0000190
  H        4.1132610    -0.8568050    -0.8912560
  H        4.1132390    -0.8567810     0.8912880
  H        3.8584940     0.6633720    -0.0000070
units angstrom
no_reorient  #important for SAPT in psi4, default
symmetry c1  #important for SAPT in psi4, default
}

set PROPERTIES_ORIGIN ["COM"]
properties('MP2/aug-cc-pvtz', properties = ['dipole'])
--------------------------------------------------------------------------

    Molecular point group: c1
  Charge       = 0
  Multiplicity = 1
  Basis Set: AUG-CC-PVTZ
    Blend: AUG-CC-PVTZ
  Basis Set: (AUG-CC-PVTZ AUX)
    Blend: AUG-CC-PVTZ-JKFIT

    Orbital Energies [Eh]
    ---------------------

    Doubly Occupied:

       1A    -20.635738     2A    -20.513704     3A    -15.585758
       4A    -11.358757     5A    -11.304717     6A    -11.304145
       7A    -11.258159     8A    -11.257157     9A    -11.250698
      10A    -11.240258    11A     -1.440358    12A     -1.368597
      13A     -1.228359    14A     -1.119030    15A     -1.036572
      16A     -0.972244    17A     -0.935588    18A     -0.841891
      19A     -0.790118    20A     -0.772915    21A     -0.732637
      22A     -0.657342    23A     -0.643024    24A     -0.635748
      25A     -0.615214    26A     -0.597701    27A     -0.591150
      28A     -0.579924    29A     -0.578078    30A     -0.551743
      31A     -0.542717    32A     -0.534574    33A     -0.524938
      34A     -0.431014    35A     -0.406259    36A     -0.389618
      37A     -0.322911

  @DF-RHF Final Energy:  -474.64302512803960

   => Energetics <=

    Nuclear Repulsion Energy =            507.0889103852625226
    One-Electron Energy =               -1652.3651606637938585
    Two-Electron Energy =                 670.6332251504917394
    Total Energy =                       -474.6430251280395396
  Basis Set: (AUG-CC-PVTZ AUX)
    Blend: AUG-CC-PVTZ-RI
    Molecular point group: c1

    Geometry (in Angstrom), charge = 0, multiplicity = 1:

       Center              X                  Y                   Z               Mass
    ------------   -----------------  -----------------  -----------------  -----------------
         O           -0.422473806739    -1.297722136522     0.000003392826    15.994914619570
         O            1.710968793261     1.668737663478     0.000013892826    15.994914619570
         N            2.211991793261    -0.579586336522    -0.000015107174    14.003074004430
         C           -2.316538206739     0.025875663478     0.000004892826    12.000000000000
         C           -0.071545206739     0.124444663478    -0.000012107174    12.000000000000
         C           -1.195632206739     0.908345663478    -0.000009107174    12.000000000000
         C           -1.790895206739    -1.240006336522     0.000008892826    12.000000000000
         C            1.360126793261     0.483704663478    -0.000001107174    12.000000000000
         C           -3.766366206739     0.396617663478    -0.000001107174    12.000000000000
         C            3.650909793261    -0.407274336522     0.000003892826    12.000000000000
         H           -1.197561206739     1.990488663478    -0.000019107174     1.007825032230
         H           -2.231201206739    -2.227355336522     0.000026892826     1.007825032230
         H           -4.020682206739     0.989799663478    -0.883263107174     1.007825032230
         H           -4.397104206739    -0.496544336522     0.000009892826     1.007825032230
         H           -4.020685206739     0.989823663478     0.883243892826     1.007825032230
         H            1.813379793261    -1.509381336522    -0.000019107174     1.007825032230
         H            4.099865793261    -0.855218336522    -0.891256107174     1.007825032230
         H            4.099843793261    -0.855194336522     0.891287892826     1.007825032230
         H            3.845098793261     0.664958663478    -0.000007107174     1.007825032230

  Basis Set: AUG-CC-PVTZ
    Blend: AUG-CC-PVTZ
  Basis Set: (AUG-CC-PVTZ AUX)
    Blend: AUG-CC-PVTZ-JKFIT
	 Reference Energy          =    -474.6430251280395964 [Eh]
	 Singles Energy            =      -0.0000000000000000 [Eh]
	 Same-Spin Energy          =      -0.4911560559381689 [Eh]
	 Opposite-Spin Energy      =      -1.5292871111879978 [Eh]
	 Correlation Energy        =      -2.0204431671261665 [Eh]
	 Total Energy              =    -476.6634682951657851 [Eh]

	 ================> DF-SCS-MP2 Energies <==================
	-----------------------------------------------------------
	 SCS Same-Spin Scale       =       0.3333333333333333 [-]
	 SCS Opposite-Spin Scale   =       1.2000000000000000 [-]
	 SCS Same-Spin Energy      =      -0.1637186853127229 [Eh]
	 SCS Opposite-Spin Energy  =      -1.8351445334255971 [Eh]
	 SCS Correlation Energy    =      -1.9988632187383202 [Eh]
	 SCS Total Energy          =    -476.6418883467779324 [Eh]
	-----------------------------------------------------------

  Dipole Moment: [D]
     X:    -1.3500      Y:    -2.8706      Z:    -0.0000     Total:     3.1722

*** Psi4 exiting successfully. Buy a developer a beer!
