                               Psi4 1.4a3.dev225

  ==> Input File <==

--------------------------------------------------------------------------
#psi4
#
memory 32 gb

molecule  {
0 1
  O       -0.4083860    -1.2037120     0.0000020
  O        1.6408456     1.6887378     0.0000138
  N        2.2253870    -0.5811730    -0.0000150
  C       -2.3031430     0.0242890     0.0000050
  C       -0.0581500     0.1228580    -0.0000120
  C       -1.1822370     0.9067590    -0.0000090
  C       -1.7775000    -1.2415930     0.0000090
  C        1.3735220     0.4821180    -0.0000010
  C       -3.7529710     0.3950310    -0.0000010
  C        3.6643050    -0.4088610     0.0000040
  H       -1.1841660     1.9889020    -0.0000190
  H       -2.2178060    -2.2289420     0.0000270
  H       -4.0072870     0.9882130    -0.8832630
  H       -4.3837090    -0.4981310     0.0000100
  H       -4.0072900     0.9882370     0.8832440
  H        1.8267750    -1.5109680    -0.0000190
  H        4.1132610    -0.8568050    -0.8912560
  H        4.1132390    -0.8567810     0.8912880
  H        3.8584940     0.6633720    -0.0000070
units angstrom
no_reorient  #important for SAPT in psi4, default
symmetry c1  #important for SAPT in psi4, default
}

set PROPERTIES_ORIGIN ["COM"]
properties('MP2/aug-cc-pvtz', properties = ['dipole'])
--------------------------------------------------------------------------

    Molecular point group: c1
  Charge       = 0
  Multiplicity = 1
  Basis Set: AUG-CC-PVTZ
    Blend: AUG-CC-PVTZ
  Basis Set: (AUG-CC-PVTZ AUX)
    Blend: AUG-CC-PVTZ-JKFIT

    Orbital Energies [Eh]
    ---------------------

    Doubly Occupied:

       1A    -20.633984     2A    -20.515893     3A    -15.591586
       4A    -11.359319     5A    -11.298086     6A    -11.295368
       7A    -11.261645     8A    -11.247921     9A    -11.243047
      10A    -11.237148    11A     -1.465499    12A     -1.369250
      13A     -1.235079    14A     -1.110553    15A     -1.038121
      16A     -0.973187    17A     -0.941289    18A     -0.839009
      19A     -0.793834    20A     -0.775674    21A     -0.735214
      22A     -0.666808    23A     -0.654301    24A     -0.638336
      25A     -0.619451    26A     -0.594439    27A     -0.591131
      28A     -0.578556    29A     -0.576245    30A     -0.550563
      31A     -0.546391    32A     -0.535834    33A     -0.519766
      34A     -0.431563    35A     -0.399017    36A     -0.390051
      37A     -0.321121

  @DF-RHF Final Energy:  -474.65240620564362

   => Energetics <=

    Nuclear Repulsion Energy =            509.9043200832126104
    One-Electron Energy =               -1657.9648933284183840
    Two-Electron Energy =                 673.4081670395622723
    Total Energy =                       -474.6524062056436151
  Basis Set: (AUG-CC-PVTZ AUX)
    Blend: AUG-CC-PVTZ-RI
    Molecular point group: c1

    Geometry (in Angstrom), charge = 0, multiplicity = 1:

       Center              X                  Y                   Z               Mass
    ------------   -----------------  -----------------  -----------------  -----------------
         O           -0.412254672223    -1.215603668276     0.000002088358    15.994914619570
         O            1.636976927777     1.676846131724     0.000013888358    15.994914619570
         N            2.221518327777    -0.593064668276    -0.000014911642    14.003074004430
         C           -2.307011672223     0.012397331724     0.000005088358    12.000000000000
         C           -0.062018672223     0.110966331724    -0.000011911642    12.000000000000
         C           -1.186105672223     0.894867331724    -0.000008911642    12.000000000000
         C           -1.781368672223    -1.253484668276     0.000009088358    12.000000000000
         C            1.369653327777     0.470226331724    -0.000000911642    12.000000000000
         C           -3.756839672223     0.383139331724    -0.000000911642    12.000000000000
         C            3.660436327777    -0.420752668276     0.000004088358    12.000000000000
         H           -1.188034672223     1.977010331724    -0.000018911642     1.007825032230
         H           -2.221674672223    -2.240833668276     0.000027088358     1.007825032230
         H           -4.011155672223     0.976321331724    -0.883262911642     1.007825032230
         H           -4.387577672223    -0.510022668276     0.000010088358     1.007825032230
         H           -4.011158672223     0.976345331724     0.883244088358     1.007825032230
         H            1.822906327777    -1.522859668276    -0.000018911642     1.007825032230
         H            4.109392327777    -0.868696668276    -0.891255911642     1.007825032230
         H            4.109370327777    -0.868672668276     0.891288088358     1.007825032230
         H            3.854625327777     0.651480331724    -0.000006911642     1.007825032230

  Basis Set: AUG-CC-PVTZ
    Blend: AUG-CC-PVTZ
  Basis Set: (AUG-CC-PVTZ AUX)
    Blend: AUG-CC-PVTZ-JKFIT
	 Reference Energy          =    -474.6524062056436151 [Eh]
	 Singles Energy            =      -0.0000000000000000 [Eh]
	 Same-Spin Energy          =      -0.4908425613302699 [Eh]
	 Opposite-Spin Energy      =      -1.5266378183403662 [Eh]
	 Correlation Energy        =      -2.0174803796706362 [Eh]
	 Total Energy              =    -476.6698865853142593 [Eh]

	 ================> DF-SCS-MP2 Energies <==================
	-----------------------------------------------------------
	 SCS Same-Spin Scale       =       0.3333333333333333 [-]
	 SCS Opposite-Spin Scale   =       1.2000000000000000 [-]
	 SCS Same-Spin Energy      =      -0.1636141871100900 [Eh]
	 SCS Opposite-Spin Energy  =      -1.8319653820084394 [Eh]
	 SCS Correlation Energy    =      -1.9955795691185294 [Eh]
	 SCS Total Energy          =    -476.6479857747621622 [Eh]
	-----------------------------------------------------------

  Dipole Moment: [D]
     X:    -0.9650      Y:    -3.1785      Z:    -0.0000     Total:     3.3218

*** Psi4 exiting successfully. Buy a developer a beer!
