                               Psi4 1.4a3.dev225

  ==> Input File <==

--------------------------------------------------------------------------
#psi4
#
memory 32 gb

molecule  {
0 1
  O       -0.4143635    -1.1082997     0.0000005
  O        1.7243640     1.6671510     0.0000140
  N        2.2253870    -0.5811730    -0.0000150
  C       -2.3031430     0.0242890     0.0000050
  C       -0.0581500     0.1228580    -0.0000120
  C       -1.1822370     0.9067590    -0.0000090
  C       -1.7775000    -1.2415930     0.0000090
  C        1.3735220     0.4821180    -0.0000010
  C       -3.7529710     0.3950310    -0.0000010
  C        3.6643050    -0.4088610     0.0000040
  H       -1.1841660     1.9889020    -0.0000190
  H       -2.2178060    -2.2289420     0.0000270
  H       -4.0072870     0.9882130    -0.8832630
  H       -4.3837090    -0.4981310     0.0000100
  H       -4.0072900     0.9882370     0.8832440
  H        1.8267750    -1.5109680    -0.0000190
  H        4.1132610    -0.8568050    -0.8912560
  H        4.1132390    -0.8567810     0.8912880
  H        3.8584940     0.6633720    -0.0000070
units angstrom
no_reorient  #important for SAPT in psi4, default
symmetry c1  #important for SAPT in psi4, default
}

set PROPERTIES_ORIGIN ["COM"]
properties('MP2/aug-cc-pvtz', properties = ['dipole'])
--------------------------------------------------------------------------

    Molecular point group: c1
  Charge       = 0
  Multiplicity = 1
  Basis Set: AUG-CC-PVTZ
    Blend: AUG-CC-PVTZ
  Basis Set: (AUG-CC-PVTZ AUX)
    Blend: AUG-CC-PVTZ-JKFIT

    Orbital Energies [Eh]
    ---------------------

    Doubly Occupied:

       1A    -20.637303     2A    -20.515520     3A    -15.589244
       4A    -11.358744     5A    -11.296909     6A    -11.294605
       7A    -11.259412     8A    -11.249134     9A    -11.236837
      10A    -11.233641    11A     -1.502683    12A     -1.370109
      13A     -1.231381    14A     -1.108682    15A     -1.047168
      16A     -0.974583    17A     -0.947274    18A     -0.839207
      19A     -0.803771    20A     -0.774083    21A     -0.742153
      22A     -0.680175    23A     -0.673863    24A     -0.637053
      25A     -0.619600    26A     -0.599255    27A     -0.591343
      28A     -0.579542    29A     -0.569203    30A     -0.550658
      31A     -0.543989    32A     -0.534308    33A     -0.517124
      34A     -0.432824    35A     -0.395212    36A     -0.385905
      37A     -0.323940

  @DF-RHF Final Energy:  -474.64988164295437

   => Energetics <=

    Nuclear Repulsion Energy =            512.3517252399303743
    One-Electron Energy =               -1662.7103360432911359
    Two-Electron Energy =                 675.7087291604063921
    Total Energy =                       -474.6498816429543695
  Basis Set: (AUG-CC-PVTZ AUX)
    Blend: AUG-CC-PVTZ-RI
    Molecular point group: c1

    Geometry (in Angstrom), charge = 0, multiplicity = 1:

       Center              X                  Y                   Z               Mass
    ------------   -----------------  -----------------  -----------------  -----------------
         O           -0.427150843220    -1.128682697958     0.000000737882    15.994914619570
         O            1.711576656780     1.646768002042     0.000014237882    15.994914619570
         N            2.212599656780    -0.601555997958    -0.000014762118    14.003074004430
         C           -2.315930343220     0.003906002042     0.000005237882    12.000000000000
         C           -0.070937343220     0.102475002042    -0.000011762118    12.000000000000
         C           -1.195024343220     0.886376002042    -0.000008762118    12.000000000000
         C           -1.790287343220    -1.261975997958     0.000009237882    12.000000000000
         C            1.360734656780     0.461735002042    -0.000000762118    12.000000000000
         C           -3.765758343220     0.374648002042    -0.000000762118    12.000000000000
         C            3.651517656780    -0.429243997958     0.000004237882    12.000000000000
         H           -1.196953343220     1.968519002042    -0.000018762118     1.007825032230
         H           -2.230593343220    -2.249324997958     0.000027237882     1.007825032230
         H           -4.020074343220     0.967830002042    -0.883262762118     1.007825032230
         H           -4.396496343220    -0.518513997958     0.000010237882     1.007825032230
         H           -4.020077343220     0.967854002042     0.883244237882     1.007825032230
         H            1.813987656780    -1.531350997958    -0.000018762118     1.007825032230
         H            4.100473656780    -0.877187997958    -0.891255762118     1.007825032230
         H            4.100451656780    -0.877163997958     0.891288237882     1.007825032230
         H            3.845706656780     0.642989002042    -0.000006762118     1.007825032230

  Basis Set: AUG-CC-PVTZ
    Blend: AUG-CC-PVTZ
  Basis Set: (AUG-CC-PVTZ AUX)
    Blend: AUG-CC-PVTZ-JKFIT
	 Reference Energy          =    -474.6498816429543695 [Eh]
	 Singles Energy            =      -0.0000000000000000 [Eh]
	 Same-Spin Energy          =      -0.4908402273392877 [Eh]
	 Opposite-Spin Energy      =      -1.5242123837434640 [Eh]
	 Correlation Energy        =      -2.0150526110827518 [Eh]
	 Total Energy              =    -476.6649342540371208 [Eh]

	 ================> DF-SCS-MP2 Energies <==================
	-----------------------------------------------------------
	 SCS Same-Spin Scale       =       0.3333333333333333 [-]
	 SCS Opposite-Spin Scale   =       1.2000000000000000 [-]
	 SCS Same-Spin Energy      =      -0.1636134091130959 [Eh]
	 SCS Opposite-Spin Energy  =      -1.8290548604921568 [Eh]
	 SCS Correlation Energy    =      -1.9926682696052527 [Eh]
	 SCS Total Energy          =    -476.6425499125596161 [Eh]
	-----------------------------------------------------------

  Dipole Moment: [D]
     X:    -1.1794      Y:    -3.4350      Z:    -0.0000     Total:     3.6318

*** Psi4 exiting successfully. Buy a developer a beer!
