                               Psi4 1.4a3.dev225

  ==> Input File <==

--------------------------------------------------------------------------
#psi4
#
memory 32 gb

molecule  {
0 1
  O       -0.4083860    -1.2037120     0.0000020
  O        1.7243640     1.6671510     0.0000140
  N        2.2253870    -0.5811730    -0.0000150
  C       -2.3031430     0.0242890     0.0000050
  C       -0.0581500     0.1228580    -0.0000120
  C       -1.1822370     0.9067590    -0.0000090
  C       -1.7775000    -1.2415930     0.0000090
  C        1.3735220     0.4821180    -0.0000010
  C       -3.7529710     0.3950310    -0.0000010
  C        3.6643050    -0.4088610     0.0000040
  H       -1.1838095     1.7889023    -0.0000172
  H       -2.2178060    -2.2289420     0.0000270
  H       -4.0072870     0.9882130    -0.8832630
  H       -4.3837090    -0.4981310     0.0000100
  H       -4.0072900     0.9882370     0.8832440
  H        1.8267750    -1.5109680    -0.0000190
  H        4.1132610    -0.8568050    -0.8912560
  H        4.1132390    -0.8567810     0.8912880
  H        3.8584940     0.6633720    -0.0000070
units angstrom
no_reorient  #important for SAPT in psi4, default
symmetry c1  #important for SAPT in psi4, default
}

set PROPERTIES_ORIGIN ["COM"]
properties('MP2/aug-cc-pvtz', properties = ['dipole'])
--------------------------------------------------------------------------

    Molecular point group: c1
  Charge       = 0
  Multiplicity = 1
  Basis Set: AUG-CC-PVTZ
    Blend: AUG-CC-PVTZ
  Basis Set: (AUG-CC-PVTZ AUX)
    Blend: AUG-CC-PVTZ-JKFIT

    Orbital Energies [Eh]
    ---------------------

    Doubly Occupied:

       1A    -20.636387     2A    -20.514767     3A    -15.587442
       4A    -11.358764     5A    -11.300220     6A    -11.299022
       7A    -11.258262     8A    -11.249294     9A    -11.238892
      10A    -11.224747    11A     -1.467567    12A     -1.369501
      13A     -1.229861    14A     -1.117153    15A     -1.044283
      16A     -0.975280    17A     -0.941205    18A     -0.851703
      19A     -0.816403    20A     -0.773784    21A     -0.743403
      22A     -0.674307    23A     -0.655735    24A     -0.636264
      25A     -0.617540    26A     -0.614460    27A     -0.591954
      28A     -0.587560    29A     -0.580312    30A     -0.551288
      31A     -0.543813    32A     -0.534439    33A     -0.522176
      34A     -0.432434    35A     -0.399028    36A     -0.389207
      37A     -0.323818

  @DF-RHF Final Energy:  -474.61794112761208

   => Energetics <=

    Nuclear Repulsion Energy =            510.8330202894634340
    One-Electron Energy =               -1659.5973746855058835
    Two-Electron Energy =                 674.1464132684304786
    Total Energy =                       -474.6179411276120845
  Basis Set: (AUG-CC-PVTZ AUX)
    Blend: AUG-CC-PVTZ-RI
    Molecular point group: c1

    Geometry (in Angstrom), charge = 0, multiplicity = 1:

       Center              X                  Y                   Z               Mass
    ------------   -----------------  -----------------  -----------------  -----------------
         O           -0.421863452487    -1.211671332320     0.000002052309    15.994914619570
         O            1.710886547513     1.659191667680     0.000014052309    15.994914619570
         N            2.211909547513    -0.589132332320    -0.000014947691    14.003074004430
         C           -2.316620452487     0.016329667680     0.000005052309    12.000000000000
         C           -0.071627452487     0.114898667680    -0.000011947691    12.000000000000
         C           -1.195714452487     0.898799667680    -0.000008947691    12.000000000000
         C           -1.790977452487    -1.249552332320     0.000009052309    12.000000000000
         C            1.360044547513     0.474158667680    -0.000000947691    12.000000000000
         C           -3.766448452487     0.387071667680    -0.000000947691    12.000000000000
         C            3.650827547513    -0.416820332320     0.000004052309    12.000000000000
         H           -1.197286952487     1.780942967680    -0.000017147691     1.007825032230
         H           -2.231283452487    -2.236901332320     0.000027052309     1.007825032230
         H           -4.020764452487     0.980253667680    -0.883262947691     1.007825032230
         H           -4.397186452487    -0.506090332320     0.000010052309     1.007825032230
         H           -4.020767452487     0.980277667680     0.883244052309     1.007825032230
         H            1.813297547513    -1.518927332320    -0.000018947691     1.007825032230
         H            4.099783547513    -0.864764332320    -0.891255947691     1.007825032230
         H            4.099761547513    -0.864740332320     0.891288052309     1.007825032230
         H            3.845016547513     0.655412667680    -0.000006947691     1.007825032230

  Basis Set: AUG-CC-PVTZ
    Blend: AUG-CC-PVTZ
  Basis Set: (AUG-CC-PVTZ AUX)
    Blend: AUG-CC-PVTZ-JKFIT
	 Reference Energy          =    -474.6179411276120845 [Eh]
	 Singles Energy            =      -0.0000000000000000 [Eh]
	 Same-Spin Energy          =      -0.4906180140666186 [Eh]
	 Opposite-Spin Energy      =      -1.5258931053303777 [Eh]
	 Correlation Energy        =      -2.0165111193969962 [Eh]
	 Total Energy              =    -476.6344522470091079 [Eh]

	 ================> DF-SCS-MP2 Energies <==================
	-----------------------------------------------------------
	 SCS Same-Spin Scale       =       0.3333333333333333 [-]
	 SCS Opposite-Spin Scale   =       1.2000000000000000 [-]
	 SCS Same-Spin Energy      =      -0.1635393380222062 [Eh]
	 SCS Opposite-Spin Energy  =      -1.8310717263964531 [Eh]
	 SCS Correlation Energy    =      -1.9946110644186592 [Eh]
	 SCS Total Energy          =    -476.6125521920307619 [Eh]
	-----------------------------------------------------------

  Dipole Moment: [D]
     X:    -1.2831      Y:    -3.1980      Z:    -0.0000     Total:     3.4458

*** Psi4 exiting successfully. Buy a developer a beer!
