                               Psi4 1.4a3.dev225

  ==> Input File <==

--------------------------------------------------------------------------
#psi4
#
memory 32 gb

molecule  {
0 1
  O       -0.4083860    -1.2037120     0.0000020
  O        1.7243640     1.6671510     0.0000140
  N        2.2253870    -0.5811730    -0.0000150
  C       -2.2716624    -0.0142925     0.0000050
  C       -0.0581500     0.1228580    -0.0000120
  C       -1.1822370     0.9067590    -0.0000090
  C       -1.7775000    -1.2415930     0.0000090
  C        1.3735220     0.4821180    -0.0000010
  C       -3.7529710     0.3950310    -0.0000010
  C        3.6643050    -0.4088610     0.0000040
  H       -1.1841660     1.9889020    -0.0000190
  H       -2.2178060    -2.2289420     0.0000270
  H       -4.0072870     0.9882130    -0.8832630
  H       -4.3837090    -0.4981310     0.0000100
  H       -4.0072900     0.9882370     0.8832440
  H        1.8267750    -1.5109680    -0.0000190
  H        4.1132610    -0.8568050    -0.8912560
  H        4.1132390    -0.8567810     0.8912880
  H        3.8584940     0.6633720    -0.0000070
units angstrom
no_reorient  #important for SAPT in psi4, default
symmetry c1  #important for SAPT in psi4, default
}

set PROPERTIES_ORIGIN ["COM"]
properties('MP2/aug-cc-pvtz', properties = ['dipole'])
--------------------------------------------------------------------------

    Molecular point group: c1
  Charge       = 0
  Multiplicity = 1
  Basis Set: AUG-CC-PVTZ
    Blend: AUG-CC-PVTZ
  Basis Set: (AUG-CC-PVTZ AUX)
    Blend: AUG-CC-PVTZ-JKFIT

    Orbital Energies [Eh]
    ---------------------

    Doubly Occupied:

       1A    -20.633066     2A    -20.514830     3A    -15.587486
       4A    -11.358600     5A    -11.299687     6A    -11.293763
       7A    -11.258243     8A    -11.246023     9A    -11.244690
      10A    -11.239859    11A     -1.467897    12A     -1.369483
      13A     -1.229880    14A     -1.114499    15A     -1.042217
      16A     -0.969565    17A     -0.942334    18A     -0.842110
      19A     -0.798996    20A     -0.773178    21A     -0.733535
      22A     -0.668740    23A     -0.656750    24A     -0.635838
      25A     -0.617677    26A     -0.597661    27A     -0.590260
      28A     -0.578764    29A     -0.576381    30A     -0.547435
      31A     -0.539614    32A     -0.534475    33A     -0.521696
      34A     -0.432324    35A     -0.401875    36A     -0.389439
      37A     -0.330371

  @DF-RHF Final Energy:  -474.65324165576868

   => Energetics <=

    Nuclear Repulsion Energy =            510.2397413066277636
    One-Electron Energy =               -1658.6274839781576702
    Two-Electron Energy =                 673.7345010157612251
    Total Energy =                       -474.6532416557686247
  Basis Set: (AUG-CC-PVTZ AUX)
    Blend: AUG-CC-PVTZ-RI
    Molecular point group: c1

    Geometry (in Angstrom), charge = 0, multiplicity = 1:

       Center              X                  Y                   Z               Mass
    ------------   -----------------  -----------------  -----------------  -----------------
         O           -0.424577380842    -1.209791517572     0.000002065354    15.994914619570
         O            1.708172619158     1.661071482428     0.000014065354    15.994914619570
         N            2.209195619158    -0.587252517572    -0.000014934646    14.003074004430
         C           -2.287853780842    -0.020372017572     0.000005065354    12.000000000000
         C           -0.074341380842     0.116778482428    -0.000011934646    12.000000000000
         C           -1.198428380842     0.900679482428    -0.000008934646    12.000000000000
         C           -1.793691380842    -1.247672517572     0.000009065354    12.000000000000
         C            1.357330619158     0.476038482428    -0.000000934646    12.000000000000
         C           -3.769162380842     0.388951482428    -0.000000934646    12.000000000000
         C            3.648113619158    -0.414940517572     0.000004065354    12.000000000000
         H           -1.200357380842     1.982822482428    -0.000018934646     1.007825032230
         H           -2.233997380842    -2.235021517572     0.000027065354     1.007825032230
         H           -4.023478380842     0.982133482428    -0.883262934646     1.007825032230
         H           -4.399900380842    -0.504210517572     0.000010065354     1.007825032230
         H           -4.023481380842     0.982157482428     0.883244065354     1.007825032230
         H            1.810583619158    -1.517047517572    -0.000018934646     1.007825032230
         H            4.097069619158    -0.862884517572    -0.891255934646     1.007825032230
         H            4.097047619158    -0.862860517572     0.891288065354     1.007825032230
         H            3.842302619158     0.657292482428    -0.000006934646     1.007825032230

  Basis Set: AUG-CC-PVTZ
    Blend: AUG-CC-PVTZ
  Basis Set: (AUG-CC-PVTZ AUX)
    Blend: AUG-CC-PVTZ-JKFIT
	 Reference Energy          =    -474.6532416557686815 [Eh]
	 Singles Energy            =      -0.0000000000000000 [Eh]
	 Same-Spin Energy          =      -0.4898311676550975 [Eh]
	 Opposite-Spin Energy      =      -1.5250201527037697 [Eh]
	 Correlation Energy        =      -2.0148513203588672 [Eh]
	 Total Energy              =    -476.6680929761275252 [Eh]

	 ================> DF-SCS-MP2 Energies <==================
	-----------------------------------------------------------
	 SCS Same-Spin Scale       =       0.3333333333333333 [-]
	 SCS Opposite-Spin Scale   =       1.2000000000000000 [-]
	 SCS Same-Spin Energy      =      -0.1632770558850325 [Eh]
	 SCS Opposite-Spin Energy  =      -1.8300241832445234 [Eh]
	 SCS Correlation Energy    =      -1.9933012391295559 [Eh]
	 SCS Total Energy          =    -476.6465428948982321 [Eh]
	-----------------------------------------------------------

  Dipole Moment: [D]
     X:    -1.2341      Y:    -3.1499      Z:    -0.0000     Total:     3.3830

*** Psi4 exiting successfully. Buy a developer a beer!
