                               Psi4 1.4a3.dev225

  ==> Input File <==

--------------------------------------------------------------------------
#psi4
#
memory 32 gb

molecule  {
0 1
  O       -0.4083860    -1.2037120     0.0000020
  O        1.7243640     1.6671510     0.0000140
  N        2.2253870    -0.5811730    -0.0000150
  C       -2.3892458     0.1462898     0.0000048
  C       -0.0581500     0.1228580    -0.0000120
  C       -1.1822370     0.9067590    -0.0000090
  C       -1.7775000    -1.2415930     0.0000090
  C        1.3735220     0.4821180    -0.0000010
  C       -3.7529710     0.3950310    -0.0000010
  C        3.6643050    -0.4088610     0.0000040
  H       -1.1841660     1.9889020    -0.0000190
  H       -2.2178060    -2.2289420     0.0000270
  H       -4.0072870     0.9882130    -0.8832630
  H       -4.3837090    -0.4981310     0.0000100
  H       -4.0072900     0.9882370     0.8832440
  H        1.8267750    -1.5109680    -0.0000190
  H        4.1132610    -0.8568050    -0.8912560
  H        4.1132390    -0.8567810     0.8912880
  H        3.8584940     0.6633720    -0.0000070
units angstrom
no_reorient  #important for SAPT in psi4, default
symmetry c1  #important for SAPT in psi4, default
}

set PROPERTIES_ORIGIN ["COM"]
properties('MP2/aug-cc-pvtz', properties = ['dipole'])
--------------------------------------------------------------------------

    Molecular point group: c1
  Charge       = 0
  Multiplicity = 1
  Basis Set: AUG-CC-PVTZ
    Blend: AUG-CC-PVTZ
  Basis Set: (AUG-CC-PVTZ AUX)
    Blend: AUG-CC-PVTZ-JKFIT

    Orbital Energies [Eh]
    ---------------------

    Doubly Occupied:

       1A    -20.647244     2A    -20.511714     3A    -15.585682
       4A    -11.357289     5A    -11.318471     6A    -11.296466
       7A    -11.265184     8A    -11.257192     9A    -11.249772
      10A    -11.235908    11A     -1.469339    12A     -1.367073
      13A     -1.228163    14A     -1.116126    15A     -1.042742
      16A     -0.982980    17A     -0.935557    18A     -0.835568
      19A     -0.786622    20A     -0.772476    21A     -0.745744
      22A     -0.666796    23A     -0.655071    24A     -0.637251
      25A     -0.616650    26A     -0.603794    27A     -0.601544
      28A     -0.593527    29A     -0.577241    30A     -0.574610
      31A     -0.541854    32A     -0.532747    33A     -0.494642
      34A     -0.430093    35A     -0.393881    36A     -0.387058
      37A     -0.303884

  @DF-RHF Final Energy:  -474.61616660265724

   => Energetics <=

    Nuclear Repulsion Energy =            508.1956004906331259
    One-Electron Energy =               -1654.3876301808966218
    Two-Electron Energy =                 671.5758630876063080
    Total Energy =                       -474.6161666026572448
  Basis Set: (AUG-CC-PVTZ AUX)
    Blend: AUG-CC-PVTZ-RI
    Molecular point group: c1

    Geometry (in Angstrom), charge = 0, multiplicity = 1:

       Center              X                  Y                   Z               Mass
    ------------   -----------------  -----------------  -----------------  -----------------
         O           -0.414430918688    -1.223648424495     0.000002082612    15.994914619570
         O            1.718319081312     1.647214575505     0.000014082612    15.994914619570
         N            2.219342081312    -0.601109424495    -0.000014917388    14.003074004430
         C           -2.395290718688     0.126353375505     0.000004882612    12.000000000000
         C           -0.064194918688     0.102921575505    -0.000011917388    12.000000000000
         C           -1.188281918688     0.886822575505    -0.000008917388    12.000000000000
         C           -1.783544918688    -1.261529424495     0.000009082612    12.000000000000
         C            1.367477081312     0.462181575505    -0.000000917388    12.000000000000
         C           -3.759015918688     0.375094575505    -0.000000917388    12.000000000000
         C            3.658260081312    -0.428797424495     0.000004082612    12.000000000000
         H           -1.190210918688     1.968965575505    -0.000018917388     1.007825032230
         H           -2.223850918688    -2.248878424495     0.000027082612     1.007825032230
         H           -4.013331918688     0.968276575505    -0.883262917388     1.007825032230
         H           -4.389753918688    -0.518067424495     0.000010082612     1.007825032230
         H           -4.013334918688     0.968300575505     0.883244082612     1.007825032230
         H            1.820730081312    -1.530904424495    -0.000018917388     1.007825032230
         H            4.107216081312    -0.876741424495    -0.891255917388     1.007825032230
         H            4.107194081312    -0.876717424495     0.891288082612     1.007825032230
         H            3.852449081312     0.643435575505    -0.000006917388     1.007825032230

  Basis Set: AUG-CC-PVTZ
    Blend: AUG-CC-PVTZ
  Basis Set: (AUG-CC-PVTZ AUX)
    Blend: AUG-CC-PVTZ-JKFIT
	 Reference Energy          =    -474.6161666026572448 [Eh]
	 Singles Energy            =      -0.0000000000000000 [Eh]
	 Same-Spin Energy          =      -0.4951914466149719 [Eh]
	 Opposite-Spin Energy      =      -1.5331916148577500 [Eh]
	 Correlation Energy        =      -2.0283830614727218 [Eh]
	 Total Energy              =    -476.6445496641299542 [Eh]

	 ================> DF-SCS-MP2 Energies <==================
	-----------------------------------------------------------
	 SCS Same-Spin Scale       =       0.3333333333333333 [-]
	 SCS Opposite-Spin Scale   =       1.2000000000000000 [-]
	 SCS Same-Spin Energy      =      -0.1650638155383239 [Eh]
	 SCS Opposite-Spin Energy  =      -1.8398299378292999 [Eh]
	 SCS Correlation Energy    =      -2.0048937533676239 [Eh]
	 SCS Total Energy          =    -476.6210603560248842 [Eh]
	-----------------------------------------------------------

  Dipole Moment: [D]
     X:    -1.5130      Y:    -3.1011      Z:    -0.0000     Total:     3.4505

*** Psi4 exiting successfully. Buy a developer a beer!
