                               Psi4 1.4a3.dev225

  ==> Input File <==

--------------------------------------------------------------------------
#psi4
#
memory 32 gb

molecule  {
0 1
  O       -0.4083860    -1.2037120     0.0000020
  O        1.7243640     1.6671510     0.0000140
  N        2.2253870    -0.5811730    -0.0000150
  C       -2.3031430     0.0242890     0.0000050
  C       -0.0581500     0.1228580    -0.0000120
  C       -1.1822370     0.9067590    -0.0000090
  C       -1.7775000    -1.2415930     0.0000090
  C        1.3735220     0.4821180    -0.0000010
  C       -3.7529710     0.3950310    -0.0000010
  C        3.6643050    -0.4088610     0.0000040
  H       -1.1841660     1.9889020    -0.0000190
  H       -2.2178060    -2.2289420     0.0000270
  H       -4.0072870     0.9882130    -0.8832630
  H       -4.3837090    -0.4981310     0.0000100
  H       -4.0072900     0.9882370     0.8832440
  H        1.8267750    -1.5109680    -0.0000190
  H        4.1132610    -0.8568050    -0.8912560
  H        4.1068298    -0.8738803     0.8857184
  H        3.8584940     0.6633720    -0.0000070
units angstrom
no_reorient  #important for SAPT in psi4, default
symmetry c1  #important for SAPT in psi4, default
}

set PROPERTIES_ORIGIN ["COM"]
properties('MP2/aug-cc-pvtz', properties = ['dipole'])
--------------------------------------------------------------------------

    Molecular point group: c1
  Charge       = 0
  Multiplicity = 1
  Basis Set: AUG-CC-PVTZ
    Blend: AUG-CC-PVTZ
  Basis Set: (AUG-CC-PVTZ AUX)
    Blend: AUG-CC-PVTZ-JKFIT

    Orbital Energies [Eh]
    ---------------------

    Doubly Occupied:

       1A    -20.636745     2A    -20.514127     3A    -15.587036
       4A    -11.358332     5A    -11.300884     6A    -11.298954
       7A    -11.258172     8A    -11.250152     9A    -11.246414
      10A    -11.238725    11A     -1.467961    12A     -1.368960
      13A     -1.229571    14A     -1.113080    15A     -1.041000
      16A     -0.973451    17A     -0.940821    18A     -0.839767
      19A     -0.796571    20A     -0.773119    21A     -0.737005
      22A     -0.668176    23A     -0.656023    24A     -0.635689
      25A     -0.616992    26A     -0.596447    27A     -0.591459
      28A     -0.580100    29A     -0.578654    30A     -0.551530
      31A     -0.544355    32A     -0.533775    33A     -0.521818
      34A     -0.431862    35A     -0.398876    36A     -0.388734
      37A     -0.323980

  @DF-RHF Final Energy:  -474.65402530575227

   => Energetics <=

    Nuclear Repulsion Energy =            509.6574680076643631
    One-Electron Energy =               -1657.4443553723201603
    Two-Electron Energy =                 673.1328620589034699
    Total Energy =                       -474.6540253057522705
  Basis Set: (AUG-CC-PVTZ AUX)
    Blend: AUG-CC-PVTZ-RI
    Molecular point group: c1

    Geometry (in Angstrom), charge = 0, multiplicity = 1:

       Center              X                  Y                   Z               Mass
    ------------   -----------------  -----------------  -----------------  -----------------
         O           -0.421814419850    -1.212996855040     0.000042429571    15.994914619570
         O            1.710935580150     1.657866144960     0.000054429571    15.994914619570
         N            2.211958580150    -0.590457855040     0.000025429571    14.003074004430
         C           -2.316571419850     0.015004144960     0.000045429571    12.000000000000
         C           -0.071578419850     0.113573144960     0.000028429571    12.000000000000
         C           -1.195665419850     0.897474144960     0.000031429571    12.000000000000
         C           -1.790928419850    -1.250877855040     0.000049429571    12.000000000000
         C            1.360093580150     0.472833144960     0.000039429571    12.000000000000
         C           -3.766399419850     0.385746144960     0.000039429571    12.000000000000
         C            3.650876580150    -0.418145855040     0.000044429571    12.000000000000
         H           -1.197594419850     1.979617144960     0.000021429571     1.007825032230
         H           -2.231234419850    -2.238226855040     0.000067429571     1.007825032230
         H           -4.020715419850     0.978928144960    -0.883222570429     1.007825032230
         H           -4.397137419850    -0.507415855040     0.000050429571     1.007825032230
         H           -4.020718419850     0.978952144960     0.883284429571     1.007825032230
         H            1.813346580150    -1.520252855040     0.000021429571     1.007825032230
         H            4.099832580150    -0.866089855040    -0.891215570429     1.007825032230
         H            4.093401380150    -0.883165155040     0.885758829571     1.007825032230
         H            3.845065580150     0.654087144960     0.000033429571     1.007825032230

  Basis Set: AUG-CC-PVTZ
    Blend: AUG-CC-PVTZ
  Basis Set: (AUG-CC-PVTZ AUX)
    Blend: AUG-CC-PVTZ-JKFIT
	 Reference Energy          =    -474.6540253057522705 [Eh]
	 Singles Energy            =      -0.0000000000000000 [Eh]
	 Same-Spin Energy          =      -0.4908398626036899 [Eh]
	 Opposite-Spin Energy      =      -1.5264821725154323 [Eh]
	 Correlation Energy        =      -2.0173220351191223 [Eh]
	 Total Energy              =    -476.6713473408714208 [Eh]

	 ================> DF-SCS-MP2 Energies <==================
	-----------------------------------------------------------
	 SCS Same-Spin Scale       =       0.3333333333333333 [-]
	 SCS Opposite-Spin Scale   =       1.2000000000000000 [-]
	 SCS Same-Spin Energy      =      -0.1636132875345633 [Eh]
	 SCS Opposite-Spin Energy  =      -1.8317786070185187 [Eh]
	 SCS Correlation Energy    =      -1.9953918945530820 [Eh]
	 SCS Total Energy          =    -476.6494172003053791 [Eh]
	-----------------------------------------------------------

  Dipole Moment: [D]
     X:    -1.2917      Y:    -3.1557      Z:    -0.0031     Total:     3.4098

*** Psi4 exiting successfully. Buy a developer a beer!
