                               Psi4 1.4a3.dev225

  ==> Input File <==

--------------------------------------------------------------------------
#psi4
#
memory 32 gb

molecule  {
0 1
  O       -0.4083860    -1.2037120     0.0000020
  O        1.7243640     1.6671510     0.0000140
  N        2.2253870    -0.5811730    -0.0000150
  C       -2.3031430     0.0242890     0.0000050
  C       -0.0581500     0.1228580    -0.0000120
  C       -1.1822370     0.9067590    -0.0000090
  C       -1.7775000    -1.2415930     0.0000090
  C        1.3735220     0.4821180    -0.0000010
  C       -3.7529710     0.3950310    -0.0000010
  C        3.6643050    -0.4088610     0.0000040
  H       -1.1841660     1.9889020    -0.0000190
  H       -2.2178060    -2.2289420     0.0000270
  H       -4.0072870     0.9882130    -0.8832630
  H       -4.3837090    -0.4981310     0.0000100
  H       -4.0072900     0.9882370     0.8832440
  H        1.8267750    -1.5109680    -0.0000190
  H        4.1132610    -0.8568050    -0.8912560
  H        4.0868014    -0.9243077     0.8673982
  H        3.8584940     0.6633720    -0.0000070
units angstrom
no_reorient  #important for SAPT in psi4, default
symmetry c1  #important for SAPT in psi4, default
}

set PROPERTIES_ORIGIN ["COM"]
properties('MP2/aug-cc-pvtz', properties = ['dipole'])
--------------------------------------------------------------------------

    Molecular point group: c1
  Charge       = 0
  Multiplicity = 1
  Basis Set: AUG-CC-PVTZ
    Blend: AUG-CC-PVTZ
  Basis Set: (AUG-CC-PVTZ AUX)
    Blend: AUG-CC-PVTZ-JKFIT

    Orbital Energies [Eh]
    ---------------------

    Doubly Occupied:

       1A    -20.636689     2A    -20.514023     3A    -15.586730
       4A    -11.358162     5A    -11.300817     6A    -11.298872
       7A    -11.258544     8A    -11.250099     9A    -11.246324
      10A    -11.238687    11A     -1.467904    12A     -1.368908
      13A     -1.229683    14A     -1.113020    15A     -1.040994
      16A     -0.973542    17A     -0.940892    18A     -0.839427
      19A     -0.796510    20A     -0.773305    21A     -0.736952
      22A     -0.668375    23A     -0.655926    24A     -0.635040
      25A     -0.615741    26A     -0.596380    27A     -0.591751
      28A     -0.580048    29A     -0.578744    30A     -0.552255
      31A     -0.547334    32A     -0.532483    33A     -0.521932
      34A     -0.431763    35A     -0.398619    36A     -0.388086
      37A     -0.323884

  @DF-RHF Final Energy:  -474.65353193559116

   => Energetics <=

    Nuclear Repulsion Energy =            509.6799113675988906
    One-Electron Energy =               -1657.4900006605869294
    Two-Electron Energy =                 673.1565573573968777
    Total Energy =                       -474.6535319355912179
  Basis Set: (AUG-CC-PVTZ AUX)
    Blend: AUG-CC-PVTZ-RI
    Molecular point group: c1

    Geometry (in Angstrom), charge = 0, multiplicity = 1:

       Center              X                  Y                   Z               Mass
    ------------   -----------------  -----------------  -----------------  -----------------
         O           -0.421669269269    -1.212631395673     0.000175200419    15.994914619570
         O            1.711080730731     1.658231604327     0.000187200419    15.994914619570
         N            2.212103730731    -0.590092395673     0.000158200419    14.003074004430
         C           -2.316426269269     0.015369604327     0.000178200419    12.000000000000
         C           -0.071433269269     0.113938604327     0.000161200419    12.000000000000
         C           -1.195520269269     0.897839604327     0.000164200419    12.000000000000
         C           -1.790783269269    -1.250512395673     0.000182200419    12.000000000000
         C            1.360238730731     0.473198604327     0.000172200419    12.000000000000
         C           -3.766254269269     0.386111604327     0.000172200419    12.000000000000
         C            3.651021730731    -0.417780395673     0.000177200419    12.000000000000
         H           -1.197449269269     1.979982604327     0.000154200419     1.007825032230
         H           -2.231089269269    -2.237861395673     0.000200200419     1.007825032230
         H           -4.020570269269     0.979293604327    -0.883089799581     1.007825032230
         H           -4.396992269269    -0.507050395673     0.000183200419     1.007825032230
         H           -4.020573269269     0.979317604327     0.883417200419     1.007825032230
         H            1.813491730731    -1.519887395673     0.000154200419     1.007825032230
         H            4.099977730731    -0.865724395673    -0.891082799581     1.007825032230
         H            4.073518130731    -0.933227095673     0.867571400419     1.007825032230
         H            3.845210730731     0.654452604327     0.000166200419     1.007825032230

  Basis Set: AUG-CC-PVTZ
    Blend: AUG-CC-PVTZ
  Basis Set: (AUG-CC-PVTZ AUX)
    Blend: AUG-CC-PVTZ-JKFIT
	 Reference Energy          =    -474.6535319355911611 [Eh]
	 Singles Energy            =      -0.0000000000000000 [Eh]
	 Same-Spin Energy          =      -0.4908415522447478 [Eh]
	 Opposite-Spin Energy      =      -1.5264984900833780 [Eh]
	 Correlation Energy        =      -2.0173400423281258 [Eh]
	 Total Energy              =    -476.6708719779192620 [Eh]

	 ================> DF-SCS-MP2 Energies <==================
	-----------------------------------------------------------
	 SCS Same-Spin Scale       =       0.3333333333333333 [-]
	 SCS Opposite-Spin Scale   =       1.2000000000000000 [-]
	 SCS Same-Spin Energy      =      -0.1636138507482492 [Eh]
	 SCS Opposite-Spin Energy  =      -1.8317981881000536 [Eh]
	 SCS Correlation Energy    =      -1.9954120388483028 [Eh]
	 SCS Total Energy          =    -476.6489439744394758 [Eh]
	-----------------------------------------------------------

  Dipole Moment: [D]
     X:    -1.2861      Y:    -3.1794      Z:    -0.0131     Total:     3.4297

*** Psi4 exiting successfully. Buy a developer a beer!
