                               Psi4 1.4a3.dev225

  ==> Input File <==

--------------------------------------------------------------------------
#psi4
#
memory 32 gb

molecule  {
0 1
  O       -0.4083860    -1.2037120     0.0000020
  O        1.7243640     1.6671510     0.0000140
  N        2.2253870    -0.5811730    -0.0000150
  C       -2.3031430     0.0242890     0.0000050
  C       -0.0581500     0.1228580    -0.0000120
  C       -1.1822370     0.9067590    -0.0000090
  C       -1.7775000    -1.2415930     0.0000090
  C        1.3735220     0.4821180    -0.0000010
  C       -3.7529710     0.3950310    -0.0000010
  C        3.6643050    -0.4088610     0.0000040
  H       -1.1841660     1.9889020    -0.0000190
  H       -2.2178060    -2.2289420     0.0000270
  H       -4.0072870     0.9882130    -0.8832630
  H       -4.3837090    -0.4981310     0.0000100
  H       -4.0072900     0.9882370     0.8832440
  H        1.8267750    -1.5109680    -0.0000190
  H        4.0311755    -0.7749045    -0.7283012
  H        4.1132390    -0.8567810     0.8912880
  H        3.8584940     0.6633720    -0.0000070
units angstrom
no_reorient  #important for SAPT in psi4, default
symmetry c1  #important for SAPT in psi4, default
}

set PROPERTIES_ORIGIN ["COM"]
properties('MP2/aug-cc-pvtz', properties = ['dipole'])
--------------------------------------------------------------------------

    Molecular point group: c1
  Charge       = 0
  Multiplicity = 1
  Basis Set: AUG-CC-PVTZ
    Blend: AUG-CC-PVTZ
  Basis Set: (AUG-CC-PVTZ AUX)
    Blend: AUG-CC-PVTZ-JKFIT

    Orbital Energies [Eh]
    ---------------------

    Doubly Occupied:

       1A    -20.636214     2A    -20.513157     3A    -15.585245
       4A    -11.357325     5A    -11.300372     6A    -11.298347
       7A    -11.249699     8A    -11.245812     9A    -11.238398
      10A    -11.233286    11A     -1.467418    12A     -1.367993
      13A     -1.229895    14A     -1.112603    15A     -1.042579
      16A     -0.983952    17A     -0.950752    18A     -0.844585
      19A     -0.796049    20A     -0.772033    21A     -0.738850
      22A     -0.671617    23A     -0.657651    24A     -0.645541
      25A     -0.628620    26A     -0.596039    27A     -0.592421
      28A     -0.580098    29A     -0.578069    30A     -0.553354
      31A     -0.547174    32A     -0.536952    33A     -0.521494
      34A     -0.430943    35A     -0.399255    36A     -0.389882
      37A     -0.323544

  @DF-RHF Final Energy:  -474.62023867680699

   => Energetics <=

    Nuclear Repulsion Energy =            510.6852541648008241
    One-Electron Energy =               -1659.3765547488569609
    Two-Electron Energy =                 674.0710619072490317
    Total Energy =                       -474.6202386768070483
  Basis Set: (AUG-CC-PVTZ AUX)
    Blend: AUG-CC-PVTZ-RI
    Molecular point group: c1

    Geometry (in Angstrom), charge = 0, multiplicity = 1:

       Center              X                  Y                   Z               Mass
    ------------   -----------------  -----------------  -----------------  -----------------
         O           -0.421265975696    -1.213714330148    -0.001178906857    15.994914619570
         O            1.711484024304     1.657148669852    -0.001166906857    15.994914619570
         N            2.212507024304    -0.591175330148    -0.001195906857    14.003074004430
         C           -2.316022975696     0.014286669852    -0.001175906857    12.000000000000
         C           -0.071029975696     0.112855669852    -0.001192906857    12.000000000000
         C           -1.195116975696     0.896756669852    -0.001189906857    12.000000000000
         C           -1.790379975696    -1.251595330148    -0.001171906857    12.000000000000
         C            1.360642024304     0.472115669852    -0.001181906857    12.000000000000
         C           -3.765850975696     0.385028669852    -0.001181906857    12.000000000000
         C            3.651425024304    -0.418863330148    -0.001176906857    12.000000000000
         H           -1.197045975696     1.978899669852    -0.001199906857     1.007825032230
         H           -2.230685975696    -2.238944330148    -0.001153906857     1.007825032230
         H           -4.020166975696     0.978210669852    -0.884443906857     1.007825032230
         H           -4.396588975696    -0.508133330148    -0.001170906857     1.007825032230
         H           -4.020169975696     0.978234669852     0.882063093143     1.007825032230
         H            1.813895024304    -1.520970330148    -0.001199906857     1.007825032230
         H            4.018295524304    -0.784906830148    -0.729482106857     1.007825032230
         H            4.100359024304    -0.866783330148     0.890107093143     1.007825032230
         H            3.845614024304     0.653369669852    -0.001187906857     1.007825032230

  Basis Set: AUG-CC-PVTZ
    Blend: AUG-CC-PVTZ
  Basis Set: (AUG-CC-PVTZ AUX)
    Blend: AUG-CC-PVTZ-JKFIT
	 Reference Energy          =    -474.6202386768069914 [Eh]
	 Singles Energy            =      -0.0000000000000000 [Eh]
	 Same-Spin Energy          =      -0.4910048523629837 [Eh]
	 Opposite-Spin Energy      =      -1.5259298807145605 [Eh]
	 Correlation Energy        =      -2.0169347330775440 [Eh]
	 Total Energy              =    -476.6371734098845536 [Eh]

	 ================> DF-SCS-MP2 Energies <==================
	-----------------------------------------------------------
	 SCS Same-Spin Scale       =       0.3333333333333333 [-]
	 SCS Opposite-Spin Scale   =       1.2000000000000000 [-]
	 SCS Same-Spin Energy      =      -0.1636682841209945 [Eh]
	 SCS Opposite-Spin Energy  =      -1.8311158568574726 [Eh]
	 SCS Correlation Energy    =      -1.9947841409784672 [Eh]
	 SCS Total Energy          =    -476.6150228177854729 [Eh]
	-----------------------------------------------------------

  Dipole Moment: [D]
     X:    -1.1998      Y:    -3.1777      Z:    -0.0473     Total:     3.3969

*** Psi4 exiting successfully. Buy a developer a beer!
