                               Psi4 1.4a3.dev225

  ==> Input File <==

--------------------------------------------------------------------------
#psi4
#
memory 32 gb

molecule  {
0 1
  O       -0.4083860    -1.2037120     0.0000020
  O        1.7243640     1.6671510     0.0000140
  N        2.2253870    -0.5811730    -0.0000150
  C       -2.3031430     0.0242890     0.0000050
  C       -0.0581500     0.1228580    -0.0000120
  C       -1.1822370     0.9067590    -0.0000090
  C       -1.7775000    -1.2415930     0.0000090
  C        1.3735220     0.4821180    -0.0000010
  C       -3.7529710     0.3950310    -0.0000010
  C        3.6643050    -0.4088610     0.0000040
  H       -1.1841660     1.9889020    -0.0000190
  H       -2.2178060    -2.2289420     0.0000270
  H       -4.0072870     0.9882130    -0.8832630
  H       -4.3837090    -0.4981310     0.0000100
  H       -4.0072900     0.9882370     0.8832440
  H        1.8267750    -1.5109680    -0.0000190
  H        4.1132610    -0.8568050    -0.8912560
  H        4.1256452    -0.8221783     0.9016110
  H        3.8584940     0.6633720    -0.0000070
units angstrom
no_reorient  #important for SAPT in psi4, default
symmetry c1  #important for SAPT in psi4, default
}

set PROPERTIES_ORIGIN ["COM"]
properties('MP2/aug-cc-pvtz', properties = ['dipole'])
--------------------------------------------------------------------------

    Molecular point group: c1
  Charge       = 0
  Multiplicity = 1
  Basis Set: AUG-CC-PVTZ
    Blend: AUG-CC-PVTZ
  Basis Set: (AUG-CC-PVTZ AUX)
    Blend: AUG-CC-PVTZ-JKFIT

    Orbital Energies [Eh]
    ---------------------

    Doubly Occupied:

       1A    -20.636801     2A    -20.514241     3A    -15.587363
       4A    -11.358492     5A    -11.300950     6A    -11.299036
       7A    -11.257818     8A    -11.250204     9A    -11.246504
      10A    -11.238764    11A     -1.468019    12A     -1.369020
      13A     -1.229488    14A     -1.113140    15A     -1.041017
      16A     -0.973393    17A     -0.940800    18A     -0.840134
      19A     -0.796632    20A     -0.772997    21A     -0.737060
      22A     -0.667997    23A     -0.656130    24A     -0.636557
      25A     -0.618078    26A     -0.596512    27A     -0.591244
      28A     -0.580175    29A     -0.578558    30A     -0.551291
      31A     -0.541262    32A     -0.534403    33A     -0.521609
      34A     -0.431966    35A     -0.399128    36A     -0.389295
      37A     -0.324070

  @DF-RHF Final Energy:  -474.65389292380411

   => Energetics <=

    Nuclear Repulsion Energy =            509.6386152195632349
    One-Electron Energy =               -1657.4047212705072525
    Two-Electron Energy =                 673.1122131271398530
    Total Energy =                       -474.6538929238041646
  Basis Set: (AUG-CC-PVTZ AUX)
    Blend: AUG-CC-PVTZ-RI
    Molecular point group: c1

    Geometry (in Angstrom), charge = 0, multiplicity = 1:

       Center              X                  Y                   Z               Mass
    ------------   -----------------  -----------------  -----------------  -----------------
         O           -0.421950779531    -1.213371551737    -0.000072747883    15.994914619570
         O            1.710799220469     1.657491448263    -0.000060747883    15.994914619570
         N            2.211822220469    -0.590832551737    -0.000089747883    14.003074004430
         C           -2.316707779531     0.014629448263    -0.000069747883    12.000000000000
         C           -0.071714779531     0.113198448263    -0.000086747883    12.000000000000
         C           -1.195801779531     0.897099448263    -0.000083747883    12.000000000000
         C           -1.791064779531    -1.251252551737    -0.000065747883    12.000000000000
         C            1.359957220469     0.472458448263    -0.000075747883    12.000000000000
         C           -3.766535779531     0.385371448263    -0.000075747883    12.000000000000
         C            3.650740220469    -0.418520551737    -0.000070747883    12.000000000000
         H           -1.197730779531     1.979242448263    -0.000093747883     1.007825032230
         H           -2.231370779531    -2.238601551737    -0.000047747883     1.007825032230
         H           -4.020851779531     0.978553448263    -0.883337747883     1.007825032230
         H           -4.397273779531    -0.507790551737    -0.000064747883     1.007825032230
         H           -4.020854779531     0.978577448263     0.883169252117     1.007825032230
         H            1.813210220469    -1.520627551737    -0.000093747883     1.007825032230
         H            4.099696220469    -0.866464551737    -0.891330747883     1.007825032230
         H            4.112080420469    -0.831837851737     0.901536252117     1.007825032230
         H            3.844929220469     0.653712448263    -0.000081747883     1.007825032230

  Basis Set: AUG-CC-PVTZ
    Blend: AUG-CC-PVTZ
  Basis Set: (AUG-CC-PVTZ AUX)
    Blend: AUG-CC-PVTZ-JKFIT
	 Reference Energy          =    -474.6538929238041078 [Eh]
	 Singles Energy            =      -0.0000000000000000 [Eh]
	 Same-Spin Energy          =      -0.4908675326508747 [Eh]
	 Opposite-Spin Energy      =      -1.5265064111040223 [Eh]
	 Correlation Energy        =      -2.0173739437548970 [Eh]
	 Total Energy              =    -476.6712668675589839 [Eh]

	 ================> DF-SCS-MP2 Energies <==================
	-----------------------------------------------------------
	 SCS Same-Spin Scale       =       0.3333333333333333 [-]
	 SCS Opposite-Spin Scale   =       1.2000000000000000 [-]
	 SCS Same-Spin Energy      =      -0.1636225108836249 [Eh]
	 SCS Opposite-Spin Energy  =      -1.8318076933248266 [Eh]
	 SCS Correlation Energy    =      -1.9954302042084515 [Eh]
	 SCS Total Energy          =    -476.6493231280125542 [Eh]
	-----------------------------------------------------------

  Dipole Moment: [D]
     X:    -1.2976      Y:    -3.1305      Z:     0.0057     Total:     3.3887

*** Psi4 exiting successfully. Buy a developer a beer!
