                               Psi4 1.4a3.dev225

  ==> Input File <==

--------------------------------------------------------------------------
#psi4
#
memory 32 gb

molecule  {
0 1
  O       -0.4083860    -1.2037120     0.0000020
  O        1.7243640     1.6671510     0.0000140
  N        2.2253870    -0.5811730    -0.0000150
  C       -2.3031430     0.0242890     0.0000050
  C       -0.0581500     0.1228580    -0.0000120
  C       -1.1822370     0.9067590    -0.0000090
  C       -1.7775000    -1.2415930     0.0000090
  C        1.3014257     0.4201048    -0.0000009
  C       -3.7529710     0.3950310    -0.0000010
  C        3.6643050    -0.4088610     0.0000040
  H       -1.1841660     1.9889020    -0.0000190
  H       -2.2178060    -2.2289420     0.0000270
  H       -4.0072870     0.9882130    -0.8832630
  H       -4.3837090    -0.4981310     0.0000100
  H       -4.0072900     0.9882370     0.8832440
  H        1.8267750    -1.5109680    -0.0000190
  H        4.1132610    -0.8568050    -0.8912560
  H        4.1132390    -0.8567810     0.8912880
  H        3.8584940     0.6633720    -0.0000070
units angstrom
no_reorient  #important for SAPT in psi4, default
symmetry c1  #important for SAPT in psi4, default
}

set PROPERTIES_ORIGIN ["COM"]
properties('MP2/aug-cc-pvtz', properties = ['dipole'])
--------------------------------------------------------------------------

    Molecular point group: c1
  Charge       = 0
  Multiplicity = 1
  Basis Set: AUG-CC-PVTZ
    Blend: AUG-CC-PVTZ
  Basis Set: (AUG-CC-PVTZ AUX)
    Blend: AUG-CC-PVTZ-JKFIT

    Orbital Energies [Eh]
    ---------------------

    Doubly Occupied:

       1A    -20.641762     2A    -20.497361     3A    -15.589846
       4A    -11.354758     5A    -11.310663     6A    -11.298501
       7A    -11.258265     8A    -11.258148     9A    -11.256236
      10A    -11.243251    11A     -1.474907    12A     -1.323854
      13A     -1.214466    14A     -1.120253    15A     -1.057396
      16A     -0.980259    17A     -0.944232    18A     -0.858163
      19A     -0.803628    20A     -0.765614    21A     -0.743714
      22A     -0.670983    23A     -0.662527    24A     -0.633792
      25A     -0.613893    26A     -0.602952    27A     -0.585681
      28A     -0.584678    29A     -0.571044    30A     -0.557634
      31A     -0.534431    32A     -0.526345    33A     -0.515685
      34A     -0.417041    35A     -0.403819    36A     -0.377780
      37A     -0.329618

  @DF-RHF Final Energy:  -474.63360411925743

   => Energetics <=

    Nuclear Repulsion Energy =            509.9437048468879539
    One-Electron Energy =               -1657.9882598146332384
    Two-Electron Energy =                 673.4109508484878006
    Total Energy =                       -474.6336041192573703
  Basis Set: (AUG-CC-PVTZ AUX)
    Blend: AUG-CC-PVTZ-RI
    Molecular point group: c1

    Geometry (in Angstrom), charge = 0, multiplicity = 1:

       Center              X                  Y                   Z               Mass
    ------------   -----------------  -----------------  -----------------  -----------------
         O           -0.415639562273    -1.207769558203     0.000002056725    15.994914619570
         O            1.717110437727     1.663093441797     0.000014056725    15.994914619570
         N            2.218133437727    -0.585230558203    -0.000014943275    14.003074004430
         C           -2.310396562273     0.020231441797     0.000005056725    12.000000000000
         C           -0.065403562273     0.118800441797    -0.000011943275    12.000000000000
         C           -1.189490562273     0.902701441797    -0.000008943275    12.000000000000
         C           -1.784753562273    -1.245650558203     0.000009056725    12.000000000000
         C            1.294172137727     0.416047241797    -0.000000843275    12.000000000000
         C           -3.760224562273     0.390973441797    -0.000000943275    12.000000000000
         C            3.657051437727    -0.412918558203     0.000004056725    12.000000000000
         H           -1.191419562273     1.984844441797    -0.000018943275     1.007825032230
         H           -2.225059562273    -2.232999558203     0.000027056725     1.007825032230
         H           -4.014540562273     0.984155441797    -0.883262943275     1.007825032230
         H           -4.390962562273    -0.502188558203     0.000010056725     1.007825032230
         H           -4.014543562273     0.984179441797     0.883244056725     1.007825032230
         H            1.819521437727    -1.515025558203    -0.000018943275     1.007825032230
         H            4.106007437727    -0.860862558203    -0.891255943275     1.007825032230
         H            4.105985437727    -0.860838558203     0.891288056725     1.007825032230
         H            3.851240437727     0.659314441797    -0.000006943275     1.007825032230

  Basis Set: AUG-CC-PVTZ
    Blend: AUG-CC-PVTZ
  Basis Set: (AUG-CC-PVTZ AUX)
    Blend: AUG-CC-PVTZ-JKFIT
	 Reference Energy          =    -474.6336041192574271 [Eh]
	 Singles Energy            =      -0.0000000000000000 [Eh]
	 Same-Spin Energy          =      -0.4934324834338709 [Eh]
	 Opposite-Spin Energy      =      -1.5310966996591993 [Eh]
	 Correlation Energy        =      -2.0245291830930703 [Eh]
	 Total Energy              =    -476.6581333023505067 [Eh]

	 ================> DF-SCS-MP2 Energies <==================
	-----------------------------------------------------------
	 SCS Same-Spin Scale       =       0.3333333333333333 [-]
	 SCS Opposite-Spin Scale   =       1.2000000000000000 [-]
	 SCS Same-Spin Energy      =      -0.1644774944779570 [Eh]
	 SCS Opposite-Spin Energy  =      -1.8373160395910391 [Eh]
	 SCS Correlation Energy    =      -2.0017935340689959 [Eh]
	 SCS Total Energy          =    -476.6353976533264358 [Eh]
	-----------------------------------------------------------

  Dipole Moment: [D]
     X:    -1.7953      Y:    -3.5368      Z:    -0.0000     Total:     3.9664

*** Psi4 exiting successfully. Buy a developer a beer!
