                               Psi4 1.4a3.dev225

  ==> Input File <==

--------------------------------------------------------------------------
#psi4
#
memory 32 gb

molecule  {
0 1
  O       -0.4083860    -1.2037120     0.0000020
  O        1.7036289     1.6730936     0.0000140
  N        2.2253870    -0.5811730    -0.0000150
  C       -2.3031430     0.0242890     0.0000050
  C       -0.0581500     0.1228580    -0.0000120
  C       -1.1822370     0.9067590    -0.0000090
  C       -1.7775000    -1.2415930     0.0000090
  C        1.3735220     0.4821180    -0.0000010
  C       -3.7529710     0.3950310    -0.0000010
  C        3.6643050    -0.4088610     0.0000040
  H       -1.1841660     1.9889020    -0.0000190
  H       -2.2178060    -2.2289420     0.0000270
  H       -4.0072870     0.9882130    -0.8832630
  H       -4.3837090    -0.4981310     0.0000100
  H       -4.0072900     0.9882370     0.8832440
  H        1.8267750    -1.5109680    -0.0000190
  H        4.1132610    -0.8568050    -0.8912560
  H        4.1132390    -0.8567810     0.8912880
  H        3.8584940     0.6633720    -0.0000070
units angstrom
no_reorient  #important for SAPT in psi4, default
symmetry c1  #important for SAPT in psi4, default
}

set PROPERTIES_ORIGIN ["COM"]
properties('MP2/aug-cc-pvtz', properties = ['dipole'])
--------------------------------------------------------------------------

    Molecular point group: c1
  Charge       = 0
  Multiplicity = 1
  Basis Set: AUG-CC-PVTZ
    Blend: AUG-CC-PVTZ
  Basis Set: (AUG-CC-PVTZ AUX)
    Blend: AUG-CC-PVTZ-JKFIT

    Orbital Energies [Eh]
    ---------------------

    Doubly Occupied:

       1A    -20.636086     2A    -20.514616     3A    -15.588262
       4A    -11.358602     5A    -11.300216     6A    -11.298079
       7A    -11.258972     8A    -11.249619     9A    -11.245613
      10A    -11.238348    11A     -1.467373    12A     -1.368987
      13A     -1.230958    14A     -1.112475    15A     -1.040297
      16A     -0.973352    17A     -0.940959    18A     -0.839669
      19A     -0.795913    20A     -0.773739    21A     -0.736582
      22A     -0.667774    23A     -0.655614    24A     -0.636546
      25A     -0.617906    26A     -0.595959    27A     -0.591313
      28A     -0.579739    29A     -0.578035    30A     -0.551100
      31A     -0.544196    32A     -0.534530    33A     -0.521299
      34A     -0.431906    35A     -0.398790    36A     -0.389418
      37A     -0.323307

  @DF-RHF Final Energy:  -474.65390937516850

   => Energetics <=

    Nuclear Repulsion Energy =            509.7023459724780992
    One-Electron Energy =               -1657.5402084455220120
    Two-Electron Energy =                 673.1839530978754738
    Total Energy =                       -474.6539093751684959
  Basis Set: (AUG-CC-PVTZ AUX)
    Blend: AUG-CC-PVTZ-RI
    Molecular point group: c1

    Geometry (in Angstrom), charge = 0, multiplicity = 1:

       Center              X                  Y                   Z               Mass
    ------------   -----------------  -----------------  -----------------  -----------------
         O           -0.419475939926    -1.213804289202     0.000002065354    15.994914619570
         O            1.692538960074     1.663001310798     0.000014065354    15.994914619570
         N            2.214297060074    -0.591265289202    -0.000014934646    14.003074004430
         C           -2.314232939926     0.014196710798     0.000005065354    12.000000000000
         C           -0.069239939926     0.112765710798    -0.000011934646    12.000000000000
         C           -1.193326939926     0.896666710798    -0.000008934646    12.000000000000
         C           -1.788589939926    -1.251685289202     0.000009065354    12.000000000000
         C            1.362432060074     0.472025710798    -0.000000934646    12.000000000000
         C           -3.764060939926     0.384938710798    -0.000000934646    12.000000000000
         C            3.653215060074    -0.418953289202     0.000004065354    12.000000000000
         H           -1.195255939926     1.978809710798    -0.000018934646     1.007825032230
         H           -2.228895939926    -2.239034289202     0.000027065354     1.007825032230
         H           -4.018376939926     0.978120710798    -0.883262934646     1.007825032230
         H           -4.394798939926    -0.508223289202     0.000010065354     1.007825032230
         H           -4.018379939926     0.978144710798     0.883244065354     1.007825032230
         H            1.815685060074    -1.521060289202    -0.000018934646     1.007825032230
         H            4.102171060074    -0.866897289202    -0.891255934646     1.007825032230
         H            4.102149060074    -0.866873289202     0.891288065354     1.007825032230
         H            3.847404060074     0.653279710798    -0.000006934646     1.007825032230

  Basis Set: AUG-CC-PVTZ
    Blend: AUG-CC-PVTZ
  Basis Set: (AUG-CC-PVTZ AUX)
    Blend: AUG-CC-PVTZ-JKFIT
	 Reference Energy          =    -474.6539093751684959 [Eh]
	 Singles Energy            =      -0.0000000000000000 [Eh]
	 Same-Spin Energy          =      -0.4908321908665879 [Eh]
	 Opposite-Spin Energy      =      -1.5265025240756294 [Eh]
	 Correlation Energy        =      -2.0173347149422174 [Eh]
	 Total Energy              =    -476.6712440901106902 [Eh]

	 ================> DF-SCS-MP2 Energies <==================
	-----------------------------------------------------------
	 SCS Same-Spin Scale       =       0.3333333333333333 [-]
	 SCS Opposite-Spin Scale   =       1.2000000000000000 [-]
	 SCS Same-Spin Energy      =      -0.1636107302888626 [Eh]
	 SCS Opposite-Spin Energy  =      -1.8318030288907552 [Eh]
	 SCS Correlation Energy    =      -1.9954137591796177 [Eh]
	 SCS Total Energy          =    -476.6493231343480943 [Eh]
	-----------------------------------------------------------

  Dipole Moment: [D]
     X:    -1.2123      Y:    -3.1571      Z:    -0.0000     Total:     3.3819

*** Psi4 exiting successfully. Buy a developer a beer!
