                               Psi4 1.4a3.dev225

  ==> Input File <==

--------------------------------------------------------------------------
#psi4
#
memory 32 gb

molecule  {
0 1
  O       -0.4083860    -1.2037120     0.0000020
  O        1.7243640     1.6671510     0.0000140
  N        2.2253870    -0.5811730    -0.0000150
  C       -2.3031430     0.0242890     0.0000050
  C       -0.0581500     0.1228580    -0.0000120
  C       -1.1822370     0.9067590    -0.0000090
  C       -1.6775383    -1.2388272     0.0000085
  C        1.3735220     0.4821180    -0.0000010
  C       -3.7529710     0.3950310    -0.0000010
  C        3.6643050    -0.4088610     0.0000040
  H       -1.1841660     1.9889020    -0.0000190
  H       -2.2178060    -2.2289420     0.0000270
  H       -4.0072870     0.9882130    -0.8832630
  H       -4.3837090    -0.4981310     0.0000100
  H       -4.0072900     0.9882370     0.8832440
  H        1.8267750    -1.5109680    -0.0000190
  H        4.1132610    -0.8568050    -0.8912560
  H        4.1132390    -0.8567810     0.8912880
  H        3.8584940     0.6633720    -0.0000070
units angstrom
no_reorient  #important for SAPT in psi4, default
symmetry c1  #important for SAPT in psi4, default
}

set PROPERTIES_ORIGIN ["COM"]
properties('MP2/aug-cc-pvtz', properties = ['dipole'])
--------------------------------------------------------------------------

    Molecular point group: c1
  Charge       = 0
  Multiplicity = 1
  Basis Set: AUG-CC-PVTZ
    Blend: AUG-CC-PVTZ
  Basis Set: (AUG-CC-PVTZ AUX)
    Blend: AUG-CC-PVTZ-JKFIT

    Orbital Energies [Eh]
    ---------------------

    Doubly Occupied:

       1A    -20.653011     2A    -20.511312     3A    -15.585871
       4A    -11.356686     5A    -11.309350     6A    -11.293155
       7A    -11.257459     8A    -11.249221     9A    -11.246237
      10A    -11.238429    11A     -1.515794    12A     -1.367331
      13A     -1.228820    14A     -1.111785    15A     -1.046556
      16A     -0.973782    17A     -0.940095    18A     -0.833335
      19A     -0.811491    20A     -0.770452    21A     -0.749557
      22A     -0.679724    23A     -0.673680    24A     -0.635143
      25A     -0.618829    26A     -0.593418    27A     -0.590855
      28A     -0.583211    29A     -0.579811    30A     -0.551328
      31A     -0.543162    32A     -0.534847    33A     -0.509225
      34A     -0.429713    35A     -0.398610    36A     -0.389184
      37A     -0.315565

  @DF-RHF Final Energy:  -474.64481545313043

   => Energetics <=

    Nuclear Repulsion Energy =            511.2339544509923144
    One-Electron Energy =               -1660.4054743876524753
    Two-Electron Energy =                 674.5267044835297838
    Total Energy =                       -474.6448154531303771
  Basis Set: (AUG-CC-PVTZ AUX)
    Blend: AUG-CC-PVTZ-RI
    Molecular point group: c1

    Geometry (in Angstrom), charge = 0, multiplicity = 1:

       Center              X                  Y                   Z               Mass
    ------------   -----------------  -----------------  -----------------  -----------------
         O           -0.430486725949    -1.213359443100     0.000002108500    15.994914619570
         O            1.702263274051     1.657503556900     0.000014108500    15.994914619570
         N            2.203286274051    -0.590820443100    -0.000014891500    14.003074004430
         C           -2.325243725949     0.014641556900     0.000005108500    12.000000000000
         C           -0.080250725949     0.113210556900    -0.000011891500    12.000000000000
         C           -1.204337725949     0.897111556900    -0.000008891500    12.000000000000
         C           -1.699639025949    -1.248474643100     0.000008608500    12.000000000000
         C            1.351421274051     0.472470556900    -0.000000891500    12.000000000000
         C           -3.775071725949     0.385383556900    -0.000000891500    12.000000000000
         C            3.642204274051    -0.418508443100     0.000004108500    12.000000000000
         H           -1.206266725949     1.979254556900    -0.000018891500     1.007825032230
         H           -2.239906725949    -2.238589443100     0.000027108500     1.007825032230
         H           -4.029387725949     0.978565556900    -0.883262891500     1.007825032230
         H           -4.405809725949    -0.507778443100     0.000010108500     1.007825032230
         H           -4.029390725949     0.978589556900     0.883244108500     1.007825032230
         H            1.804674274051    -1.520615443100    -0.000018891500     1.007825032230
         H            4.091160274051    -0.866452443100    -0.891255891500     1.007825032230
         H            4.091138274051    -0.866428443100     0.891288108500     1.007825032230
         H            3.836393274051     0.653724556900    -0.000006891500     1.007825032230

  Basis Set: AUG-CC-PVTZ
    Blend: AUG-CC-PVTZ
  Basis Set: (AUG-CC-PVTZ AUX)
    Blend: AUG-CC-PVTZ-JKFIT
	 Reference Energy          =    -474.6448154531304340 [Eh]
	 Singles Energy            =      -0.0000000000000000 [Eh]
	 Same-Spin Energy          =      -0.4911999425911759 [Eh]
	 Opposite-Spin Energy      =      -1.5247914732247847 [Eh]
	 Correlation Energy        =      -2.0159914158159604 [Eh]
	 Total Energy              =    -476.6608068689463948 [Eh]

	 ================> DF-SCS-MP2 Energies <==================
	-----------------------------------------------------------
	 SCS Same-Spin Scale       =       0.3333333333333333 [-]
	 SCS Opposite-Spin Scale   =       1.2000000000000000 [-]
	 SCS Same-Spin Energy      =      -0.1637333141970586 [Eh]
	 SCS Opposite-Spin Energy  =      -1.8297497678697416 [Eh]
	 SCS Correlation Energy    =      -1.9934830820668004 [Eh]
	 SCS Total Energy          =    -476.6382985351972366 [Eh]
	-----------------------------------------------------------

  Dipole Moment: [D]
     X:    -1.2041      Y:    -3.2095      Z:    -0.0000     Total:     3.4279

*** Psi4 exiting successfully. Buy a developer a beer!
