                               Psi4 1.4a3.dev225

  ==> Input File <==

--------------------------------------------------------------------------
#psi4
#
memory 32 gb

molecule  {
0 1
  O       -0.4083860    -1.2037120     0.0000020
  O        1.7243640     1.6671510     0.0000140
  N        2.2253870    -0.5811730    -0.0000150
  C       -2.3031430     0.0242890     0.0000050
  C       -0.0581500     0.1228580    -0.0000120
  C       -1.1822370     0.9067590    -0.0000090
  C       -1.7775000    -1.2415930     0.0000090
  C        1.3735220     0.4821180    -0.0000010
  C       -3.7723475     0.3999859    -0.0000011
  C        3.6643050    -0.4088610     0.0000040
  H       -1.1841660     1.9889020    -0.0000190
  H       -2.2178060    -2.2289420     0.0000270
  H       -4.0072870     0.9882130    -0.8832630
  H       -4.3837090    -0.4981310     0.0000100
  H       -4.0072900     0.9882370     0.8832440
  H        1.8267750    -1.5109680    -0.0000190
  H        4.1132610    -0.8568050    -0.8912560
  H        4.1132390    -0.8567810     0.8912880
  H        3.8584940     0.6633720    -0.0000070
units angstrom
no_reorient  #important for SAPT in psi4, default
symmetry c1  #important for SAPT in psi4, default
}

set PROPERTIES_ORIGIN ["COM"]
properties('MP2/aug-cc-pvtz', properties = ['dipole'])
--------------------------------------------------------------------------

    Molecular point group: c1
  Charge       = 0
  Multiplicity = 1
  Basis Set: AUG-CC-PVTZ
    Blend: AUG-CC-PVTZ
  Basis Set: (AUG-CC-PVTZ AUX)
    Blend: AUG-CC-PVTZ-JKFIT

    Orbital Energies [Eh]
    ---------------------

    Doubly Occupied:

       1A    -20.636638     2A    -20.514047     3A    -15.587037
       4A    -11.358271     5A    -11.300736     6A    -11.298787
       7A    -11.257979     8A    -11.250848     9A    -11.246373
      10A    -11.238385    11A     -1.467819    12A     -1.368868
      13A     -1.229437    14A     -1.111298    15A     -1.040452
      16A     -0.973194    17A     -0.941063    18A     -0.839603
      19A     -0.796439    20A     -0.772879    21A     -0.736322
      22A     -0.667922    23A     -0.655850    24A     -0.635550
      25A     -0.617294    26A     -0.597317    27A     -0.590735
      28A     -0.582946    29A     -0.578577    30A     -0.546923
      31A     -0.542611    32A     -0.534024    33A     -0.524258
      34A     -0.431776    35A     -0.399418    36A     -0.388939
      37A     -0.323998

  @DF-RHF Final Energy:  -474.65393646152427

   => Energetics <=

    Nuclear Repulsion Energy =            509.3127164545017536
    One-Electron Energy =               -1656.7640831414735203
    Two-Electron Energy =                 672.7974302254475560
    Total Energy =                       -474.6539364615242675
  Basis Set: (AUG-CC-PVTZ AUX)
    Blend: AUG-CC-PVTZ-RI
    Molecular point group: c1

    Geometry (in Angstrom), charge = 0, multiplicity = 1:

       Center              X                  Y                   Z               Mass
    ------------   -----------------  -----------------  -----------------  -----------------
         O           -0.420188839259    -1.213548344087     0.000002073983    15.994914619570
         O            1.712561160741     1.657314655913     0.000014073983    15.994914619570
         N            2.213584160741    -0.591009344087    -0.000014926017    14.003074004430
         C           -2.314945839259     0.014452655913     0.000005073983    12.000000000000
         C           -0.069952839259     0.113021655913    -0.000011926017    12.000000000000
         C           -1.194039839259     0.896922655913    -0.000008926017    12.000000000000
         C           -1.789302839259    -1.251429344087     0.000009073983    12.000000000000
         C            1.361719160741     0.472281655913    -0.000000926017    12.000000000000
         C           -3.784150339259     0.390149555913    -0.000001026017    12.000000000000
         C            3.652502160741    -0.418697344087     0.000004073983    12.000000000000
         H           -1.195968839259     1.979065655913    -0.000018926017     1.007825032230
         H           -2.229608839259    -2.238778344087     0.000027073983     1.007825032230
         H           -4.019089839259     0.978376655913    -0.883262926017     1.007825032230
         H           -4.395511839259    -0.507967344087     0.000010073983     1.007825032230
         H           -4.019092839259     0.978400655913     0.883244073983     1.007825032230
         H            1.814972160741    -1.520804344087    -0.000018926017     1.007825032230
         H            4.101458160741    -0.866641344087    -0.891255926017     1.007825032230
         H            4.101436160741    -0.866617344087     0.891288073983     1.007825032230
         H            3.846691160741     0.653535655913    -0.000006926017     1.007825032230

  Basis Set: AUG-CC-PVTZ
    Blend: AUG-CC-PVTZ
  Basis Set: (AUG-CC-PVTZ AUX)
    Blend: AUG-CC-PVTZ-JKFIT
	 Reference Energy          =    -474.6539364615242675 [Eh]
	 Singles Energy            =      -0.0000000000000000 [Eh]
	 Same-Spin Energy          =      -0.4907032968028905 [Eh]
	 Opposite-Spin Energy      =      -1.5263568696564207 [Eh]
	 Correlation Energy        =      -2.0170601664593111 [Eh]
	 Total Energy              =    -476.6709966279835839 [Eh]

	 ================> DF-SCS-MP2 Energies <==================
	-----------------------------------------------------------
	 SCS Same-Spin Scale       =       0.3333333333333333 [-]
	 SCS Opposite-Spin Scale   =       1.2000000000000000 [-]
	 SCS Same-Spin Energy      =      -0.1635677656009635 [Eh]
	 SCS Opposite-Spin Energy  =      -1.8316282435877047 [Eh]
	 SCS Correlation Energy    =      -1.9951960091886682 [Eh]
	 SCS Total Energy          =    -476.6491324707129138 [Eh]
	-----------------------------------------------------------

  Dipole Moment: [D]
     X:    -1.3024      Y:    -3.1462      Z:    -0.0000     Total:     3.4051

*** Psi4 exiting successfully. Buy a developer a beer!
