                               Psi4 1.4a3.dev225

  ==> Input File <==

--------------------------------------------------------------------------
#psi4
#
memory 32 gb

molecule  {
0 1
  O       -0.4083860    -1.2037120     0.0000020
  O        1.7243640     1.6671510     0.0000140
  N        2.2253870    -0.5811730    -0.0000150
  C       -2.3031430     0.0242890     0.0000050
  C       -0.0581500     0.1228580    -0.0000120
  C       -1.1822370     0.9067590    -0.0000090
  C       -1.7974923    -1.2421462     0.0000091
  C        1.3735220     0.4821180    -0.0000010
  C       -3.7529710     0.3950310    -0.0000010
  C        3.6643050    -0.4088610     0.0000040
  H       -1.1841660     1.9889020    -0.0000190
  H       -2.2178060    -2.2289420     0.0000270
  H       -4.0072870     0.9882130    -0.8832630
  H       -4.3837090    -0.4981310     0.0000100
  H       -4.0072900     0.9882370     0.8832440
  H        1.8267750    -1.5109680    -0.0000190
  H        4.1132610    -0.8568050    -0.8912560
  H        4.1132390    -0.8567810     0.8912880
  H        3.8584940     0.6633720    -0.0000070
units angstrom
no_reorient  #important for SAPT in psi4, default
symmetry c1  #important for SAPT in psi4, default
}

set PROPERTIES_ORIGIN ["COM"]
properties('MP2/aug-cc-pvtz', properties = ['dipole'])
--------------------------------------------------------------------------

    Molecular point group: c1
  Charge       = 0
  Multiplicity = 1
  Basis Set: AUG-CC-PVTZ
    Blend: AUG-CC-PVTZ
  Basis Set: (AUG-CC-PVTZ AUX)
    Blend: AUG-CC-PVTZ-JKFIT

    Orbital Energies [Eh]
    ---------------------

    Doubly Occupied:

       1A    -20.633607     2A    -20.514654     3A    -15.587339
       4A    -11.358659     5A    -11.300013     6A    -11.299730
       7A    -11.258138     8A    -11.250929     9A    -11.245947
      10A    -11.238815    11A     -1.459953    12A     -1.369204
      13A     -1.229636    14A     -1.113682    15A     -1.040056
      16A     -0.973356    17A     -0.941032    18A     -0.841114
      19A     -0.794338    20A     -0.773449    21A     -0.735220
      22A     -0.666872    23A     -0.652433    24A     -0.636007
      25A     -0.616875    26A     -0.599275    27A     -0.591151
      28A     -0.580106    29A     -0.576452    30A     -0.550504
      31A     -0.543112    32A     -0.533879    33A     -0.523472
      34A     -0.432217    35A     -0.399302    36A     -0.388921
      37A     -0.325395

  @DF-RHF Final Energy:  -474.65318338244037

   => Energetics <=

    Nuclear Repulsion Energy =            509.3571662943090246
    One-Electron Energy =               -1656.8710081286581044
    Two-Electron Energy =                 672.8606584519086482
    Total Energy =                       -474.6531833824403748
  Basis Set: (AUG-CC-PVTZ AUX)
    Blend: AUG-CC-PVTZ-RI
    Molecular point group: c1

    Geometry (in Angstrom), charge = 0, multiplicity = 1:

       Center              X                  Y                   Z               Mass
    ------------   -----------------  -----------------  -----------------  -----------------
         O           -0.420135700878    -1.213073041211     0.000002056725    15.994914619570
         O            1.712614299122     1.657789958789     0.000014056725    15.994914619570
         N            2.213637299122    -0.590534041211    -0.000014943275    14.003074004430
         C           -2.314892700878     0.014927958789     0.000005056725    12.000000000000
         C           -0.069899700878     0.113496958789    -0.000011943275    12.000000000000
         C           -1.193986700878     0.897397958789    -0.000008943275    12.000000000000
         C           -1.809242000878    -1.251507241211     0.000009156725    12.000000000000
         C            1.361772299122     0.472756958789    -0.000000943275    12.000000000000
         C           -3.764720700878     0.385669958789    -0.000000943275    12.000000000000
         C            3.652555299122    -0.418222041211     0.000004056725    12.000000000000
         H           -1.195915700878     1.979540958789    -0.000018943275     1.007825032230
         H           -2.229555700878    -2.238303041211     0.000027056725     1.007825032230
         H           -4.019036700878     0.978851958789    -0.883262943275     1.007825032230
         H           -4.395458700878    -0.507492041211     0.000010056725     1.007825032230
         H           -4.019039700878     0.978875958789     0.883244056725     1.007825032230
         H            1.815025299122    -1.520329041211    -0.000018943275     1.007825032230
         H            4.101511299122    -0.866166041211    -0.891255943275     1.007825032230
         H            4.101489299122    -0.866142041211     0.891288056725     1.007825032230
         H            3.846744299122     0.654010958789    -0.000006943275     1.007825032230

  Basis Set: AUG-CC-PVTZ
    Blend: AUG-CC-PVTZ
  Basis Set: (AUG-CC-PVTZ AUX)
    Blend: AUG-CC-PVTZ-JKFIT
	 Reference Energy          =    -474.6531833824403748 [Eh]
	 Singles Energy            =      -0.0000000000000000 [Eh]
	 Same-Spin Energy          =      -0.4907973840143016 [Eh]
	 Opposite-Spin Energy      =      -1.5268511736152421 [Eh]
	 Correlation Energy        =      -2.0176485576295438 [Eh]
	 Total Energy              =    -476.6708319400699452 [Eh]

	 ================> DF-SCS-MP2 Energies <==================
	-----------------------------------------------------------
	 SCS Same-Spin Scale       =       0.3333333333333333 [-]
	 SCS Opposite-Spin Scale   =       1.2000000000000000 [-]
	 SCS Same-Spin Energy      =      -0.1635991280047672 [Eh]
	 SCS Opposite-Spin Energy  =      -1.8322214083382904 [Eh]
	 SCS Correlation Energy    =      -1.9958205363430577 [Eh]
	 SCS Total Energy          =    -476.6490039187834213 [Eh]
	-----------------------------------------------------------

  Dipole Moment: [D]
     X:    -1.3135      Y:    -3.1367      Z:    -0.0000     Total:     3.4006

*** Psi4 exiting successfully. Buy a developer a beer!
