                               Psi4 1.4a3.dev225

  ==> Input File <==

--------------------------------------------------------------------------
#psi4
#
memory 32 gb

molecule  {
0 1
  O       -0.4083860    -1.2037120     0.0000020
  O        1.7243640     1.6671510     0.0000140
  N        2.2253870    -0.5811730    -0.0000150
  C       -2.3031430     0.0242890     0.0000050
  C       -0.0581500     0.1228580    -0.0000120
  C       -1.1822370     0.9067590    -0.0000090
  C       -1.7775000    -1.2415930     0.0000090
  C        1.3735220     0.4821180    -0.0000010
  C       -3.7529710     0.3950310    -0.0000010
  C        3.6643050    -0.4088610     0.0000040
  H       -1.1845225     2.1889017    -0.0000208
  H       -2.2178060    -2.2289420     0.0000270
  H       -4.0072870     0.9882130    -0.8832630
  H       -4.3837090    -0.4981310     0.0000100
  H       -4.0072900     0.9882370     0.8832440
  H        1.8267750    -1.5109680    -0.0000190
  H        4.1132610    -0.8568050    -0.8912560
  H        4.1132390    -0.8567810     0.8912880
  H        3.8584940     0.6633720    -0.0000070
units angstrom
no_reorient  #important for SAPT in psi4, default
symmetry c1  #important for SAPT in psi4, default
}

set PROPERTIES_ORIGIN ["COM"]
properties('MP2/aug-cc-pvtz', properties = ['dipole'])
--------------------------------------------------------------------------

    Molecular point group: c1
  Charge       = 0
  Multiplicity = 1
  Basis Set: AUG-CC-PVTZ
    Blend: AUG-CC-PVTZ
  Basis Set: (AUG-CC-PVTZ AUX)
    Blend: AUG-CC-PVTZ-JKFIT

    Orbital Energies [Eh]
    ---------------------

    Doubly Occupied:

       1A    -20.637753     2A    -20.513731     3A    -15.587049
       4A    -11.358237     5A    -11.301932     6A    -11.299952
       7A    -11.265685     8A    -11.257973     9A    -11.251643
      10A    -11.238614    11A     -1.468925    12A     -1.368602
      13A     -1.229408    14A     -1.111971    15A     -1.039877
      16A     -0.972807    17A     -0.940814    18A     -0.837555
      19A     -0.785557    20A     -0.772240    21A     -0.731233
      22A     -0.664504    23A     -0.656849    24A     -0.635822
      25A     -0.617383    26A     -0.593092    27A     -0.590797
      28A     -0.579956    29A     -0.553776    30A     -0.549257
      31A     -0.539057    32A     -0.533888    33A     -0.519629
      34A     -0.431423    35A     -0.399550    36A     -0.388870
      37A     -0.324672

  @DF-RHF Final Energy:  -474.63094367430000

   => Energetics <=

    Nuclear Repulsion Energy =            508.7113102455652438
    One-Electron Energy =               -1655.5843345093644530
    Two-Electron Energy =                 672.2420805894992100
    Total Energy =                       -474.6309436742999424
  Basis Set: (AUG-CC-PVTZ AUX)
    Blend: AUG-CC-PVTZ-RI
    Molecular point group: c1

    Geometry (in Angstrom), charge = 0, multiplicity = 1:

       Center              X                  Y                   Z               Mass
    ------------   -----------------  -----------------  -----------------  -----------------
         O           -0.421858285207    -1.214570223152     0.000002078399    15.994914619570
         O            1.710891714793     1.656292776848     0.000014078399    15.994914619570
         N            2.211914714793    -0.592031223152    -0.000014921601    14.003074004430
         C           -2.316615285207     0.013430776848     0.000005078399    12.000000000000
         C           -0.071622285207     0.111999776848    -0.000011921601    12.000000000000
         C           -1.195709285207     0.895900776848    -0.000008921601    12.000000000000
         C           -1.790972285207    -1.252451223152     0.000009078399    12.000000000000
         C            1.360049714793     0.471259776848    -0.000000921601    12.000000000000
         C           -3.766443285207     0.384172776848    -0.000000921601    12.000000000000
         C            3.650832714793    -0.419719223152     0.000004078399    12.000000000000
         H           -1.197994785207     2.178043476848    -0.000020721601     1.007825032230
         H           -2.231278285207    -2.239800223152     0.000027078399     1.007825032230
         H           -4.020759285207     0.977354776848    -0.883262921601     1.007825032230
         H           -4.397181285207    -0.508989223152     0.000010078399     1.007825032230
         H           -4.020762285207     0.977378776848     0.883244078399     1.007825032230
         H            1.813302714793    -1.521826223152    -0.000018921601     1.007825032230
         H            4.099788714793    -0.867663223152    -0.891255921601     1.007825032230
         H            4.099766714793    -0.867639223152     0.891288078399     1.007825032230
         H            3.845021714793     0.652513776848    -0.000006921601     1.007825032230

  Basis Set: AUG-CC-PVTZ
    Blend: AUG-CC-PVTZ
  Basis Set: (AUG-CC-PVTZ AUX)
    Blend: AUG-CC-PVTZ-JKFIT
	 Reference Energy          =    -474.6309436742999992 [Eh]
	 Singles Energy            =      -0.0000000000000000 [Eh]
	 Same-Spin Energy          =      -0.4914033411367316 [Eh]
	 Opposite-Spin Energy      =      -1.5286582052396533 [Eh]
	 Correlation Energy        =      -2.0200615463763851 [Eh]
	 Total Energy              =    -476.6510052206763817 [Eh]

	 ================> DF-SCS-MP2 Energies <==================
	-----------------------------------------------------------
	 SCS Same-Spin Scale       =       0.3333333333333333 [-]
	 SCS Opposite-Spin Scale   =       1.2000000000000000 [-]
	 SCS Same-Spin Energy      =      -0.1638011137122438 [Eh]
	 SCS Opposite-Spin Energy  =      -1.8343898462875838 [Eh]
	 SCS Correlation Energy    =      -1.9981909599998278 [Eh]
	 SCS Total Energy          =    -476.6291346342998168 [Eh]
	-----------------------------------------------------------

  Dipole Moment: [D]
     X:    -1.2980      Y:    -3.1216      Z:    -0.0000     Total:     3.3807

*** Psi4 exiting successfully. Buy a developer a beer!
