                               Psi4 1.4a3.dev225

  ==> Input File <==

--------------------------------------------------------------------------
#psi4
#
memory 32 gb

molecule  {
0 1
  O       -0.4083860    -1.2037120     0.0000020
  O        1.7243640     1.6671510     0.0000140
  N        2.2253870    -0.5811730    -0.0000150
  C       -2.3031430     0.0242890     0.0000050
  C       -0.0581500     0.1228580    -0.0000120
  C       -1.1822370     0.9067590    -0.0000090
  C       -1.7775000    -1.2415930     0.0000090
  C        1.3735220     0.4821180    -0.0000010
  C       -3.5592058     0.3454824    -0.0000002
  C        3.6643050    -0.4088610     0.0000040
  H       -1.1841660     1.9889020    -0.0000190
  H       -2.2178060    -2.2289420     0.0000270
  H       -4.0072870     0.9882130    -0.8832630
  H       -4.3837090    -0.4981310     0.0000100
  H       -4.0072900     0.9882370     0.8832440
  H        1.8267750    -1.5109680    -0.0000190
  H        4.1132610    -0.8568050    -0.8912560
  H        4.1132390    -0.8567810     0.8912880
  H        3.8584940     0.6633720    -0.0000070
units angstrom
no_reorient  #important for SAPT in psi4, default
symmetry c1  #important for SAPT in psi4, default
}

set PROPERTIES_ORIGIN ["COM"]
properties('MP2/aug-cc-pvtz', properties = ['dipole'])
--------------------------------------------------------------------------

    Molecular point group: c1
  Charge       = 0
  Multiplicity = 1
  Basis Set: AUG-CC-PVTZ
    Blend: AUG-CC-PVTZ
  Basis Set: (AUG-CC-PVTZ AUX)
    Blend: AUG-CC-PVTZ-JKFIT

    Orbital Energies [Eh]
    ---------------------

    Doubly Occupied:

       1A    -20.638235     2A    -20.515510     3A    -15.588375
       4A    -11.359710     5A    -11.303511     6A    -11.301235
       7A    -11.258894     8A    -11.247696     9A    -11.247586
      10A    -11.239211    11A     -1.469949    12A     -1.370265
      13A     -1.230757    14A     -1.141369    15A     -1.047612
      16A     -0.979082    17A     -0.939655    18A     -0.843597
      19A     -0.797234    20A     -0.775317    21A     -0.743422
      22A     -0.670714    23A     -0.658910    24A     -0.643965
      25A     -0.618600    26A     -0.610399    27A     -0.597122
      28A     -0.581656    29A     -0.578878    30A     -0.559504
      31A     -0.543375    32A     -0.534689    33A     -0.481941
      34A     -0.433084    35A     -0.393673    36A     -0.385176
      37A     -0.322198

  @DF-RHF Final Energy:  -474.60059221082389

   => Energetics <=

    Nuclear Repulsion Energy =            513.3708236567400718
    One-Electron Energy =               -1664.6386176129706200
    Two-Electron Energy =                 676.6672017454064871
    Total Energy =                       -474.6005922108239474
  Basis Set: (AUG-CC-PVTZ AUX)
    Blend: AUG-CC-PVTZ-RI
    Molecular point group: c1

    Geometry (in Angstrom), charge = 0, multiplicity = 1:

       Center              X                  Y                   Z               Mass
    ------------   -----------------  -----------------  -----------------  -----------------
         O           -0.438581181992    -1.208845148738     0.000001996321    15.994914619570
         O            1.694168818008     1.662017851262     0.000013996321    15.994914619570
         N            2.195191818008    -0.586306148738    -0.000015003679    14.003074004430
         C           -2.333338181992     0.019155851262     0.000004996321    12.000000000000
         C           -0.088345181992     0.117724851262    -0.000012003679    12.000000000000
         C           -1.212432181992     0.901625851262    -0.000009003679    12.000000000000
         C           -1.807695181992    -1.246726148738     0.000008996321    12.000000000000
         C            1.343326818008     0.476984851262    -0.000001003679    12.000000000000
         C           -3.589400981992     0.340349251262    -0.000000203679    12.000000000000
         C            3.634109818008    -0.413994148738     0.000003996321    12.000000000000
         H           -1.214361181992     1.983768851262    -0.000019003679     1.007825032230
         H           -2.248001181992    -2.234075148738     0.000026996321     1.007825032230
         H           -4.037482181992     0.983079851262    -0.883263003679     1.007825032230
         H           -4.413904181992    -0.503264148738     0.000009996321     1.007825032230
         H           -4.037485181992     0.983103851262     0.883243996321     1.007825032230
         H            1.796579818008    -1.516101148738    -0.000019003679     1.007825032230
         H            4.083065818008    -0.861938148738    -0.891256003679     1.007825032230
         H            4.083043818008    -0.861914148738     0.891287996321     1.007825032230
         H            3.828298818008     0.658238851262    -0.000007003679     1.007825032230

  Basis Set: AUG-CC-PVTZ
    Blend: AUG-CC-PVTZ
  Basis Set: (AUG-CC-PVTZ AUX)
    Blend: AUG-CC-PVTZ-JKFIT
	 Reference Energy          =    -474.6005922108238906 [Eh]
	 Singles Energy            =      -0.0000000000000000 [Eh]
	 Same-Spin Energy          =      -0.4941775775656651 [Eh]
	 Opposite-Spin Energy      =      -1.5310442754624836 [Eh]
	 Correlation Energy        =      -2.0252218530281487 [Eh]
	 Total Energy              =    -476.6258140638520331 [Eh]

	 ================> DF-SCS-MP2 Energies <==================
	-----------------------------------------------------------
	 SCS Same-Spin Scale       =       0.3333333333333333 [-]
	 SCS Opposite-Spin Scale   =       1.2000000000000000 [-]
	 SCS Same-Spin Energy      =      -0.1647258591885550 [Eh]
	 SCS Opposite-Spin Energy  =      -1.8372531305549802 [Eh]
	 SCS Correlation Energy    =      -2.0019789897435354 [Eh]
	 SCS Total Energy          =    -476.6025712005674109 [Eh]
	-----------------------------------------------------------

  Dipole Moment: [D]
     X:    -1.1522      Y:    -3.1680      Z:    -0.0000     Total:     3.3711

*** Psi4 exiting successfully. Buy a developer a beer!
