                               Psi4 1.4a3.dev225

  ==> Input File <==

--------------------------------------------------------------------------
#psi4
#
memory 32 gb

molecule  {
0 1
  O       -0.4083860    -1.2037120     0.0000020
  O        1.7243640     1.6671510     0.0000140
  N        2.2253870    -0.5811730    -0.0000150
  C       -2.3031430     0.0242890     0.0000050
  C       -0.0581500     0.1228580    -0.0000120
  C       -1.2806207     1.0190913    -0.0000090
  C       -1.7775000    -1.2415930     0.0000090
  C        1.3735220     0.4821180    -0.0000010
  C       -3.7529710     0.3950310    -0.0000010
  C        3.6643050    -0.4088610     0.0000040
  H       -1.1841660     1.9889020    -0.0000190
  H       -2.2178060    -2.2289420     0.0000270
  H       -4.0072870     0.9882130    -0.8832630
  H       -4.3837090    -0.4981310     0.0000100
  H       -4.0072900     0.9882370     0.8832440
  H        1.8267750    -1.5109680    -0.0000190
  H        4.1132610    -0.8568050    -0.8912560
  H        4.1132390    -0.8567810     0.8912880
  H        3.8584940     0.6633720    -0.0000070
units angstrom
no_reorient  #important for SAPT in psi4, default
symmetry c1  #important for SAPT in psi4, default
}

set PROPERTIES_ORIGIN ["COM"]
properties('MP2/aug-cc-pvtz', properties = ['dipole'])
--------------------------------------------------------------------------

    Molecular point group: c1
  Charge       = 0
  Multiplicity = 1
  Basis Set: AUG-CC-PVTZ
    Blend: AUG-CC-PVTZ
  Basis Set: (AUG-CC-PVTZ AUX)
    Blend: AUG-CC-PVTZ-JKFIT

    Orbital Energies [Eh]
    ---------------------

    Doubly Occupied:

       1A    -20.649180     2A    -20.514226     3A    -15.587046
       4A    -11.358203     5A    -11.317629     6A    -11.301734
       7A    -11.258069     8A    -11.257816     9A    -11.255712
      10A    -11.235638    11A     -1.471036    12A     -1.368910
      13A     -1.229567    14A     -1.109577    15A     -1.030287
      16A     -0.967631    17A     -0.941342    18A     -0.849891
      19A     -0.808463    20A     -0.771650    21A     -0.728029
      22A     -0.679382    23A     -0.655088    24A     -0.635858
      25A     -0.619911    26A     -0.617519    27A     -0.591753
      28A     -0.581807    29A     -0.579774    30A     -0.547220
      31A     -0.542468    32A     -0.533865    33A     -0.508081
      34A     -0.431379    35A     -0.395377    36A     -0.387592
      37A     -0.310509

  @DF-RHF Final Energy:  -474.61589274105194

   => Energetics <=

    Nuclear Repulsion Energy =            507.0468424997085890
    One-Electron Energy =               -1652.0670335044760577
    Two-Electron Energy =                 670.4042982637154182
    Total Energy =                       -474.6158927410519937
  Basis Set: (AUG-CC-PVTZ AUX)
    Blend: AUG-CC-PVTZ-RI
    Molecular point group: c1

    Geometry (in Angstrom), charge = 0, multiplicity = 1:

       Center              X                  Y                   Z               Mass
    ------------   -----------------  -----------------  -----------------  -----------------
         O           -0.413371179923    -1.222814113961     0.000002065354    15.994914619570
         O            1.719378820077     1.648048886039     0.000014065354    15.994914619570
         N            2.220401820077    -0.600275113961    -0.000014934646    14.003074004430
         C           -2.308128179923     0.005186886039     0.000005065354    12.000000000000
         C           -0.063135179923     0.103755886039    -0.000011934646    12.000000000000
         C           -1.285605879923     0.999989186039    -0.000008934646    12.000000000000
         C           -1.782485179923    -1.260695113961     0.000009065354    12.000000000000
         C            1.368536820077     0.463015886039    -0.000000934646    12.000000000000
         C           -3.757956179923     0.375928886039    -0.000000934646    12.000000000000
         C            3.659319820077    -0.427963113961     0.000004065354    12.000000000000
         H           -1.189151179923     1.969799886039    -0.000018934646     1.007825032230
         H           -2.222791179923    -2.248044113961     0.000027065354     1.007825032230
         H           -4.012272179923     0.969110886039    -0.883262934646     1.007825032230
         H           -4.388694179923    -0.517233113961     0.000010065354     1.007825032230
         H           -4.012275179923     0.969134886039     0.883244065354     1.007825032230
         H            1.821789820077    -1.530070113961    -0.000018934646     1.007825032230
         H            4.108275820077    -0.875907113961    -0.891255934646     1.007825032230
         H            4.108253820077    -0.875883113961     0.891288065354     1.007825032230
         H            3.853508820077     0.644269886039    -0.000006934646     1.007825032230

  Basis Set: AUG-CC-PVTZ
    Blend: AUG-CC-PVTZ
  Basis Set: (AUG-CC-PVTZ AUX)
    Blend: AUG-CC-PVTZ-JKFIT
	 Reference Energy          =    -474.6158927410519368 [Eh]
	 Singles Energy            =      -0.0000000000000000 [Eh]
	 Same-Spin Energy          =      -0.4940909602814972 [Eh]
	 Opposite-Spin Energy      =      -1.5325028083025547 [Eh]
	 Correlation Energy        =      -2.0265937685840520 [Eh]
	 Total Energy              =    -476.6424865096360008 [Eh]

	 ================> DF-SCS-MP2 Energies <==================
	-----------------------------------------------------------
	 SCS Same-Spin Scale       =       0.3333333333333333 [-]
	 SCS Opposite-Spin Scale   =       1.2000000000000000 [-]
	 SCS Same-Spin Energy      =      -0.1646969867604991 [Eh]
	 SCS Opposite-Spin Energy  =      -1.8390033699630655 [Eh]
	 SCS Correlation Energy    =      -2.0037003567235647 [Eh]
	 SCS Total Energy          =    -476.6195930977755211 [Eh]
	-----------------------------------------------------------

  Dipole Moment: [D]
     X:    -1.2661      Y:    -3.2328      Z:    -0.0000     Total:     3.4719

*** Psi4 exiting successfully. Buy a developer a beer!
