                               Psi4 1.4a3.dev225

  ==> Input File <==

--------------------------------------------------------------------------
#psi4
#
memory 32 gb

molecule  {
0 1
  O       -0.4083860    -1.2037120     0.0000020
  O        1.7243640     1.6671510     0.0000140
  N        2.2253870    -0.5811730    -0.0000150
  C       -2.3031430     0.0242890     0.0000050
  C       -0.0581500     0.1228580    -0.0000120
  C       -1.1822370     0.9067590    -0.0000090
  C       -1.7775000    -1.2415930     0.0000090
  C        1.3735220     0.4821180    -0.0000010
  C       -3.7529710     0.3950310    -0.0000010
  C        3.6643050    -0.4088610     0.0000040
  H       -1.1841660     1.9889020    -0.0000190
  H       -2.2178060    -2.2289420     0.0000270
  H       -4.0072870     0.9882130    -0.8832630
  H       -4.3837090    -0.4981310     0.0000100
  H       -4.0072900     0.9882370     0.8832440
  H        1.8267750    -1.5109680    -0.0000190
  H        4.1050524    -0.8486150    -0.8749605
  H        4.1132390    -0.8567810     0.8912880
  H        3.8584940     0.6633720    -0.0000070
units angstrom
no_reorient  #important for SAPT in psi4, default
symmetry c1  #important for SAPT in psi4, default
}

set PROPERTIES_ORIGIN ["COM"]
properties('MP2/aug-cc-pvtz', properties = ['dipole'])
--------------------------------------------------------------------------

    Molecular point group: c1
  Charge       = 0
  Multiplicity = 1
  Basis Set: AUG-CC-PVTZ
    Blend: AUG-CC-PVTZ
  Basis Set: (AUG-CC-PVTZ AUX)
    Blend: AUG-CC-PVTZ-JKFIT

    Orbital Energies [Eh]
    ---------------------

    Doubly Occupied:

       1A    -20.636687     2A    -20.514022     3A    -15.586884
       4A    -11.358238     5A    -11.300831     6A    -11.298895
       7A    -11.255596     8A    -11.250104     9A    -11.246356
      10A    -11.238691    11A     -1.467902    12A     -1.368839
      13A     -1.229468    14A     -1.113030    15A     -1.041041
      16A     -0.973933    17A     -0.941724    18A     -0.840238
      19A     -0.796516    20A     -0.772924    21A     -0.737117
      22A     -0.668190    23A     -0.656074    24A     -0.636191
      25A     -0.619042    26A     -0.596408    27A     -0.591537
      28A     -0.580120    29A     -0.578548    30A     -0.551478
      31A     -0.543620    32A     -0.534858    33A     -0.521741
      34A     -0.431761    35A     -0.398973    36A     -0.389038
      37A     -0.323943

  @DF-RHF Final Energy:  -474.65408522578417

   => Energetics <=

    Nuclear Repulsion Energy =            509.7422321972712211
    One-Electron Energy =               -1657.6115199676883094
    Two-Electron Energy =                 673.2152025446329162
    Total Energy =                       -474.6540852257841152
  Basis Set: (AUG-CC-PVTZ AUX)
    Blend: AUG-CC-PVTZ-RI
    Molecular point group: c1

    Geometry (in Angstrom), charge = 0, multiplicity = 1:

       Center              X                  Y                   Z               Mass
    ------------   -----------------  -----------------  -----------------  -----------------
         O           -0.421801379170    -1.213180132615    -0.000116032012    15.994914619570
         O            1.710948620830     1.657682867385    -0.000104032012    15.994914619570
         N            2.211971620830    -0.590641132615    -0.000133032012    14.003074004430
         C           -2.316558379170     0.014820867385    -0.000113032012    12.000000000000
         C           -0.071565379170     0.113389867385    -0.000130032012    12.000000000000
         C           -1.195652379170     0.897290867385    -0.000127032012    12.000000000000
         C           -1.790915379170    -1.251061132615    -0.000109032012    12.000000000000
         C            1.360106620830     0.472649867385    -0.000119032012    12.000000000000
         C           -3.766386379170     0.385562867385    -0.000119032012    12.000000000000
         C            3.650889620830    -0.418329132615    -0.000114032012    12.000000000000
         H           -1.197581379170     1.979433867385    -0.000137032012     1.007825032230
         H           -2.231221379170    -2.238410132615    -0.000091032012     1.007825032230
         H           -4.020702379170     0.978744867385    -0.883381032012     1.007825032230
         H           -4.397124379170    -0.507599132615    -0.000108032012     1.007825032230
         H           -4.020705379170     0.978768867385     0.883125967988     1.007825032230
         H            1.813359620830    -1.520436132615    -0.000137032012     1.007825032230
         H            4.091637020830    -0.858083132615    -0.875078532012     1.007825032230
         H            4.099823620830    -0.866249132615     0.891169967988     1.007825032230
         H            3.845078620830     0.653903867385    -0.000125032012     1.007825032230

  Basis Set: AUG-CC-PVTZ
    Blend: AUG-CC-PVTZ
  Basis Set: (AUG-CC-PVTZ AUX)
    Blend: AUG-CC-PVTZ-JKFIT
	 Reference Energy          =    -474.6540852257841721 [Eh]
	 Singles Energy            =      -0.0000000000000000 [Eh]
	 Same-Spin Energy          =      -0.4908513154326047 [Eh]
	 Opposite-Spin Energy      =      -1.5263747618465386 [Eh]
	 Correlation Energy        =      -2.0172260772791435 [Eh]
	 Total Energy              =    -476.6713113030633053 [Eh]

	 ================> DF-SCS-MP2 Energies <==================
	-----------------------------------------------------------
	 SCS Same-Spin Scale       =       0.3333333333333333 [-]
	 SCS Opposite-Spin Scale   =       1.2000000000000000 [-]
	 SCS Same-Spin Energy      =      -0.1636171051442016 [Eh]
	 SCS Opposite-Spin Energy  =      -1.8316497142158463 [Eh]
	 SCS Correlation Energy    =      -1.9952668193600478 [Eh]
	 SCS Total Energy          =    -476.6493520451442123 [Eh]
	-----------------------------------------------------------

  Dipole Moment: [D]
     X:    -1.2805      Y:    -3.1523      Z:    -0.0074     Total:     3.4024

*** Psi4 exiting successfully. Buy a developer a beer!
