                               Psi4 1.4a3.dev225

  ==> Input File <==

--------------------------------------------------------------------------
#psi4
#
memory 32 gb

molecule  {
0 1
  O       -0.4083860    -1.2037120     0.0000020
  O        1.7243640     1.6671510     0.0000140
  N        2.2253870    -0.5811730    -0.0000150
  C       -2.3031430     0.0242890     0.0000050
  C       -0.0581500     0.1228580    -0.0000120
  C       -1.1822370     0.9067590    -0.0000090
  C       -1.7775000    -1.2415930     0.0000090
  C        1.3735220     0.4821180    -0.0000010
  C       -3.7529710     0.3950310    -0.0000010
  C        3.6643050    -0.4088610     0.0000040
  H       -1.1842551     2.0389019    -0.0000195
  H       -2.2178060    -2.2289420     0.0000270
  H       -4.0072870     0.9882130    -0.8832630
  H       -4.3837090    -0.4981310     0.0000100
  H       -4.0072900     0.9882370     0.8832440
  H        1.8267750    -1.5109680    -0.0000190
  H        4.1132610    -0.8568050    -0.8912560
  H        4.1132390    -0.8567810     0.8912880
  H        3.8584940     0.6633720    -0.0000070
units angstrom
no_reorient  #important for SAPT in psi4, default
symmetry c1  #important for SAPT in psi4, default
}

set PROPERTIES_ORIGIN ["COM"]
properties('MP2/aug-cc-pvtz', properties = ['dipole'])
--------------------------------------------------------------------------

    Molecular point group: c1
  Charge       = 0
  Multiplicity = 1
  Basis Set: AUG-CC-PVTZ
    Blend: AUG-CC-PVTZ
  Basis Set: (AUG-CC-PVTZ AUX)
    Blend: AUG-CC-PVTZ-JKFIT

    Orbital Energies [Eh]
    ---------------------

    Doubly Occupied:

       1A    -20.636956     2A    -20.514039     3A    -15.587100
       4A    -11.358327     5A    -11.301131     6A    -11.299139
       7A    -11.258020     8A    -11.251861     9A    -11.250249
      10A    -11.238702    11A     -1.468169    12A     -1.368871
      13A     -1.229490    14A     -1.112622    15A     -1.040566
      16A     -0.973190    17A     -0.940778    18A     -0.838936
      19A     -0.792810    20A     -0.772874    21A     -0.735403
      22A     -0.666955    23A     -0.656214    24A     -0.635905
      25A     -0.617359    26A     -0.594628    27A     -0.591194
      28A     -0.580077    29A     -0.572269    30A     -0.551447
      31A     -0.542991    32A     -0.534033    33A     -0.521585
      34A     -0.431774    35A     -0.399050    36A     -0.388898
      37A     -0.324133

  @DF-RHF Final Energy:  -474.65150625575677

   => Energetics <=

    Nuclear Repulsion Energy =            509.3976060359289590
    One-Electron Energy =               -1656.9427384989076018
    Two-Electron Energy =                 672.8936262072219279
    Total Energy =                       -474.6515062557567717
  Basis Set: (AUG-CC-PVTZ AUX)
    Blend: AUG-CC-PVTZ-RI
    Molecular point group: c1

    Geometry (in Angstrom), charge = 0, multiplicity = 1:

       Center              X                  Y                   Z               Mass
    ------------   -----------------  -----------------  -----------------  -----------------
         O           -0.421860223118    -1.213483138909     0.000002068978    15.994914619570
         O            1.710889776882     1.657379861091     0.000014068978    15.994914619570
         N            2.211912776882    -0.590944138909    -0.000014931022    14.003074004430
         C           -2.316617223118     0.014517861091     0.000005068978    12.000000000000
         C           -0.071624223118     0.113086861091    -0.000011931022    12.000000000000
         C           -1.195711223118     0.896987861091    -0.000008931022    12.000000000000
         C           -1.790974223118    -1.251364138909     0.000009068978    12.000000000000
         C            1.360047776882     0.472346861091    -0.000000931022    12.000000000000
         C           -3.766445223118     0.385259861091    -0.000000931022    12.000000000000
         C            3.650830776882    -0.418632138909     0.000004068978    12.000000000000
         H           -1.197729323118     2.029130761091    -0.000019431022     1.007825032230
         H           -2.231280223118    -2.238713138909     0.000027068978     1.007825032230
         H           -4.020761223118     0.978441861091    -0.883262931022     1.007825032230
         H           -4.397183223118    -0.507902138909     0.000010068978     1.007825032230
         H           -4.020764223118     0.978465861091     0.883244068978     1.007825032230
         H            1.813300776882    -1.520739138909    -0.000018931022     1.007825032230
         H            4.099786776882    -0.866576138909    -0.891255931022     1.007825032230
         H            4.099764776882    -0.866552138909     0.891288068978     1.007825032230
         H            3.845019776882     0.653600861091    -0.000006931022     1.007825032230

  Basis Set: AUG-CC-PVTZ
    Blend: AUG-CC-PVTZ
  Basis Set: (AUG-CC-PVTZ AUX)
    Blend: AUG-CC-PVTZ-JKFIT
	 Reference Energy          =    -474.6515062557567717 [Eh]
	 Singles Energy            =      -0.0000000000000000 [Eh]
	 Same-Spin Energy          =      -0.4909632598456961 [Eh]
	 Opposite-Spin Energy      =      -1.5269041528776672 [Eh]
	 Correlation Energy        =      -2.0178674127233633 [Eh]
	 Total Energy              =    -476.6693736684801479 [Eh]

	 ================> DF-SCS-MP2 Energies <==================
	-----------------------------------------------------------
	 SCS Same-Spin Scale       =       0.3333333333333333 [-]
	 SCS Opposite-Spin Scale   =       1.2000000000000000 [-]
	 SCS Same-Spin Energy      =      -0.1636544199485654 [Eh]
	 SCS Opposite-Spin Energy  =      -1.8322849834532007 [Eh]
	 SCS Correlation Energy    =      -1.9959394034017661 [Eh]
	 SCS Total Energy          =    -476.6474456591585636 [Eh]
	-----------------------------------------------------------

  Dipole Moment: [D]
     X:    -1.2952      Y:    -3.1386      Z:    -0.0000     Total:     3.3954

*** Psi4 exiting successfully. Buy a developer a beer!
