                               Psi4 1.4a3.dev225

  ==> Input File <==

--------------------------------------------------------------------------
#psi4
#
memory 32 gb

molecule  {
0 1
  O       -0.4083860    -1.2037120     0.0000020
  O        1.7243640     1.6671510     0.0000140
  N        2.2253870    -0.5811730    -0.0000150
  C       -2.3031430     0.0242890     0.0000050
  C       -0.0581500     0.1228580    -0.0000120
  C       -1.1822370     0.9067590    -0.0000090
  C       -1.7775000    -1.2415930     0.0000090
  C        1.3735220     0.4821180    -0.0000010
  C       -3.7529710     0.3950310    -0.0000010
  C        3.6643050    -0.4088610     0.0000040
  H       -1.1841660     1.9889020    -0.0000190
  H       -2.2178060    -2.2289420     0.0000270
  H       -4.0072870     0.9882130    -0.8832630
  H       -4.3837090    -0.4981310     0.0000100
  H       -4.0072900     0.9882370     0.8832440
  H        1.8267750    -1.5109680    -0.0000190
  H        4.1543038    -0.8977552    -0.9727334
  H        4.1132390    -0.8567810     0.8912880
  H        3.8584940     0.6633720    -0.0000070
units angstrom
no_reorient  #important for SAPT in psi4, default
symmetry c1  #important for SAPT in psi4, default
}

set PROPERTIES_ORIGIN ["COM"]
properties('MP2/aug-cc-pvtz', properties = ['dipole'])
--------------------------------------------------------------------------

    Molecular point group: c1
  Charge       = 0
  Multiplicity = 1
  Basis Set: AUG-CC-PVTZ
    Blend: AUG-CC-PVTZ
  Basis Set: (AUG-CC-PVTZ AUX)
    Blend: AUG-CC-PVTZ-JKFIT

    Orbital Energies [Eh]
    ---------------------

    Doubly Occupied:

       1A    -20.637219     2A    -20.515020     3A    -15.588668
       4A    -11.359277     5A    -11.301355     6A    -11.299495
       7A    -11.269943     8A    -11.250560     9A    -11.246974
      10A    -11.239021    11A     -1.468445    12A     -1.369830
      13A     -1.230216    14A     -1.113520    15A     -1.041079
      16A     -0.971862    17A     -0.937014    18A     -0.838563
      19A     -0.797043    20A     -0.773968    21A     -0.736804
      22A     -0.668123    23A     -0.656208    24A     -0.635955
      25A     -0.610277    26A     -0.596835    27A     -0.590328
      28A     -0.580156    29A     -0.579015    30A     -0.551445
      31A     -0.542770    32A     -0.527887    33A     -0.521391
      34A     -0.432710    35A     -0.398963    36A     -0.388287
      37A     -0.324417

  @DF-RHF Final Energy:  -474.64755043309469

   => Energetics <=

    Nuclear Repulsion Energy =            509.2244753821258882
    One-Electron Energy =               -1656.5627652071709690
    Two-Electron Energy =                 672.6907393919505012
    Total Energy =                       -474.6475504330946933
  Basis Set: (AUG-CC-PVTZ AUX)
    Blend: AUG-CC-PVTZ-RI
    Molecular point group: c1

    Geometry (in Angstrom), charge = 0, multiplicity = 1:

       Center              X                  Y                   Z               Mass
    ------------   -----------------  -----------------  -----------------  -----------------
         O           -0.422158315785    -1.212824001892     0.000592551460    15.994914619570
         O            1.710591684215     1.658038998108     0.000604551460    15.994914619570
         N            2.211614684215    -0.590285001892     0.000575551460    14.003074004430
         C           -2.316915315785     0.015176998108     0.000595551460    12.000000000000
         C           -0.071922315785     0.113745998108     0.000578551460    12.000000000000
         C           -1.196009315785     0.897646998108     0.000581551460    12.000000000000
         C           -1.791272315785    -1.250705001892     0.000599551460    12.000000000000
         C            1.359749684215     0.473005998108     0.000589551460    12.000000000000
         C           -3.766743315785     0.385918998108     0.000589551460    12.000000000000
         C            3.650532684215    -0.417973001892     0.000594551460    12.000000000000
         H           -1.197938315785     1.979789998108     0.000571551460     1.007825032230
         H           -2.231578315785    -2.238054001892     0.000617551460     1.007825032230
         H           -4.021059315785     0.979100998108    -0.882672448540     1.007825032230
         H           -4.397481315785    -0.507243001892     0.000600551460     1.007825032230
         H           -4.021062315785     0.979124998108     0.883834551460     1.007825032230
         H            1.813002684215    -1.520080001892     0.000571551460     1.007825032230
         H            4.140531484215    -0.906867201892    -0.972142848540     1.007825032230
         H            4.099466684215    -0.865893001892     0.891878551460     1.007825032230
         H            3.844721684215     0.654259998108     0.000583551460     1.007825032230

  Basis Set: AUG-CC-PVTZ
    Blend: AUG-CC-PVTZ
  Basis Set: (AUG-CC-PVTZ AUX)
    Blend: AUG-CC-PVTZ-JKFIT
	 Reference Energy          =    -474.6475504330946933 [Eh]
	 Singles Energy            =      -0.0000000000000000 [Eh]
	 Same-Spin Energy          =      -0.4908336477591907 [Eh]
	 Opposite-Spin Energy      =      -1.5271607884733411 [Eh]
	 Correlation Energy        =      -2.0179944362325317 [Eh]
	 Total Energy              =    -476.6655448693272206 [Eh]

	 ================> DF-SCS-MP2 Energies <==================
	-----------------------------------------------------------
	 SCS Same-Spin Scale       =       0.3333333333333333 [-]
	 SCS Opposite-Spin Scale   =       1.2000000000000000 [-]
	 SCS Same-Spin Energy      =      -0.1636112159197302 [Eh]
	 SCS Opposite-Spin Energy  =      -1.8325929461680093 [Eh]
	 SCS Correlation Energy    =      -1.9962041620877395 [Eh]
	 SCS Total Energy          =    -476.6437545951824291 [Eh]
	-----------------------------------------------------------

  Dipole Moment: [D]
     X:    -1.3723      Y:    -3.1173      Z:     0.0457     Total:     3.4063

*** Psi4 exiting successfully. Buy a developer a beer!
