                               Psi4 1.4a3.dev225

  ==> Input File <==

--------------------------------------------------------------------------
#psi4
#
memory 32 gb

molecule  {
0 1
  O       -0.4083860    -1.2037120     0.0000020
  O        1.7243640     1.6671510     0.0000140
  N        2.2253870    -0.5811730    -0.0000150
  C       -2.3031430     0.0242890     0.0000050
  C       -0.0581500     0.1228580    -0.0000120
  C       -1.1822370     0.9067590    -0.0000090
  C       -1.7275191    -1.2402101     0.0000087
  C        1.3735220     0.4821180    -0.0000010
  C       -3.7529710     0.3950310    -0.0000010
  C        3.6643050    -0.4088610     0.0000040
  H       -1.1841660     1.9889020    -0.0000190
  H       -2.2178060    -2.2289420     0.0000270
  H       -4.0072870     0.9882130    -0.8832630
  H       -4.3837090    -0.4981310     0.0000100
  H       -4.0072900     0.9882370     0.8832440
  H        1.8267750    -1.5109680    -0.0000190
  H        4.1132610    -0.8568050    -0.8912560
  H        4.1132390    -0.8567810     0.8912880
  H        3.8584940     0.6633720    -0.0000070
units angstrom
no_reorient  #important for SAPT in psi4, default
symmetry c1  #important for SAPT in psi4, default
}

set PROPERTIES_ORIGIN ["COM"]
properties('MP2/aug-cc-pvtz', properties = ['dipole'])
--------------------------------------------------------------------------

    Molecular point group: c1
  Charge       = 0
  Multiplicity = 1
  Basis Set: AUG-CC-PVTZ
    Blend: AUG-CC-PVTZ
  Basis Set: (AUG-CC-PVTZ AUX)
    Blend: AUG-CC-PVTZ-JKFIT

    Orbital Energies [Eh]
    ---------------------

    Doubly Occupied:

       1A    -20.644751     2A    -20.512820     3A    -15.586562
       4A    -11.357600     5A    -11.304603     6A    -11.296206
       7A    -11.257786     8A    -11.248557     9A    -11.247460
      10A    -11.238579    11A     -1.490189    12A     -1.368255
      13A     -1.229225    14A     -1.112067    15A     -1.043620
      16A     -0.973606    17A     -0.940349    18A     -0.836683
      19A     -0.803423    20A     -0.771876    21A     -0.742485
      22A     -0.671061    23A     -0.666687    24A     -0.635651
      25A     -0.618290    26A     -0.592461    27A     -0.590022
      28A     -0.583866    29A     -0.580045    30A     -0.552347
      31A     -0.543332    32A     -0.534537    33A     -0.516355
      34A     -0.430922    35A     -0.398481    36A     -0.389023
      37A     -0.320088

  @DF-RHF Final Energy:  -474.65253728503751

   => Energetics <=

    Nuclear Repulsion Energy =            510.4164467516725381
    One-Electron Energy =               -1658.8782299558802151
    Two-Electron Energy =                 673.8092459191701664
    Total Energy =                       -474.6525372850375106
  Basis Set: (AUG-CC-PVTZ AUX)
    Blend: AUG-CC-PVTZ-RI
    Molecular point group: c1

    Geometry (in Angstrom), charge = 0, multiplicity = 1:

       Center              X                  Y                   Z               Mass
    ------------   -----------------  -----------------  -----------------  -----------------
         O           -0.426173801713    -1.213240110418     0.000002091242    15.994914619570
         O            1.706576198287     1.657622889582     0.000014091242    15.994914619570
         N            2.207599198287    -0.590701110418    -0.000014908758    14.003074004430
         C           -2.320930801713     0.014760889582     0.000005091242    12.000000000000
         C           -0.075937801713     0.113329889582    -0.000011908758    12.000000000000
         C           -1.200024801713     0.897230889582    -0.000008908758    12.000000000000
         C           -1.745306901713    -1.249738210418     0.000008791242    12.000000000000
         C            1.355734198287     0.472589889582    -0.000000908758    12.000000000000
         C           -3.770758801713     0.385502889582    -0.000000908758    12.000000000000
         C            3.646517198287    -0.418389110418     0.000004091242    12.000000000000
         H           -1.201953801713     1.979373889582    -0.000018908758     1.007825032230
         H           -2.235593801713    -2.238470110418     0.000027091242     1.007825032230
         H           -4.025074801713     0.978684889582    -0.883262908758     1.007825032230
         H           -4.401496801713    -0.507659110418     0.000010091242     1.007825032230
         H           -4.025077801713     0.978708889582     0.883244091242     1.007825032230
         H            1.808987198287    -1.520496110418    -0.000018908758     1.007825032230
         H            4.095473198287    -0.866333110418    -0.891255908758     1.007825032230
         H            4.095451198287    -0.866309110418     0.891288091242     1.007825032230
         H            3.840706198287     0.653843889582    -0.000006908758     1.007825032230

  Basis Set: AUG-CC-PVTZ
    Blend: AUG-CC-PVTZ
  Basis Set: (AUG-CC-PVTZ AUX)
    Blend: AUG-CC-PVTZ-JKFIT
	 Reference Energy          =    -474.6525372850375106 [Eh]
	 Singles Energy            =      -0.0000000000000000 [Eh]
	 Same-Spin Energy          =      -0.4910100560961002 [Eh]
	 Opposite-Spin Energy      =      -1.5256173018338575 [Eh]
	 Correlation Energy        =      -2.0166273579299578 [Eh]
	 Total Energy              =    -476.6691646429674734 [Eh]

	 ================> DF-SCS-MP2 Energies <==================
	-----------------------------------------------------------
	 SCS Same-Spin Scale       =       0.3333333333333333 [-]
	 SCS Opposite-Spin Scale   =       1.2000000000000000 [-]
	 SCS Same-Spin Energy      =      -0.1636700186987001 [Eh]
	 SCS Opposite-Spin Energy  =      -1.8307407622006289 [Eh]
	 SCS Correlation Energy    =      -1.9944107808993290 [Eh]
	 SCS Total Energy          =    -476.6469480659368401 [Eh]
	-----------------------------------------------------------

  Dipole Moment: [D]
     X:    -1.2471      Y:    -3.1765      Z:    -0.0000     Total:     3.4125

*** Psi4 exiting successfully. Buy a developer a beer!
