                               Psi4 1.4a3.dev225

  ==> Input File <==

--------------------------------------------------------------------------
#psi4
#
memory 32 gb

molecule  {
0 1
  O       -0.4083860    -1.2037120     0.0000020
  O        1.7243640     1.6671510     0.0000140
  N        2.2253870    -0.5811730    -0.0000150
  C       -2.3031430     0.0242890     0.0000050
  C       -0.0581500     0.1228580    -0.0000120
  C       -1.1822370     0.9067590    -0.0000090
  C       -1.7775000    -1.2415930     0.0000090
  C        1.3369326     0.4517406    -0.0000010
  C       -3.7529710     0.3950310    -0.0000010
  C        3.6643050    -0.4088610     0.0000040
  H       -1.1841660     1.9889020    -0.0000190
  H       -2.2178060    -2.2289420     0.0000270
  H       -4.0072870     0.9882130    -0.8832630
  H       -4.3837090    -0.4981310     0.0000100
  H       -4.0072900     0.9882370     0.8832440
  H        1.8267750    -1.5109680    -0.0000190
  H        4.1132610    -0.8568050    -0.8912560
  H        4.1132390    -0.8567810     0.8912880
  H        3.8584940     0.6633720    -0.0000070
units angstrom
no_reorient  #important for SAPT in psi4, default
symmetry c1  #important for SAPT in psi4, default
}

set PROPERTIES_ORIGIN ["COM"]
properties('MP2/aug-cc-pvtz', properties = ['dipole'])
--------------------------------------------------------------------------

    Molecular point group: c1
  Charge       = 0
  Multiplicity = 1
  Basis Set: AUG-CC-PVTZ
    Blend: AUG-CC-PVTZ
  Basis Set: (AUG-CC-PVTZ AUX)
    Blend: AUG-CC-PVTZ-JKFIT

    Orbital Energies [Eh]
    ---------------------

    Doubly Occupied:

       1A    -20.639382     2A    -20.505897     3A    -15.588435
       4A    -11.356869     5A    -11.305674     6A    -11.299242
       7A    -11.258092     8A    -11.253423     9A    -11.252006
      10A    -11.240973    11A     -1.471460    12A     -1.344724
      13A     -1.223061    14A     -1.116675    15A     -1.049040
      16A     -0.976817    17A     -0.942554    18A     -0.848885
      19A     -0.800116    20A     -0.769360    21A     -0.740474
      22A     -0.669120    23A     -0.659210    24A     -0.633503
      25A     -0.615472    26A     -0.599648    27A     -0.582975
      28A     -0.582382    29A     -0.580972    30A     -0.554406
      31A     -0.539418    32A     -0.524705    33A     -0.524091
      34A     -0.425613    35A     -0.401260    36A     -0.383742
      37A     -0.327029

  @DF-RHF Final Energy:  -474.64708897638491

   => Energetics <=

    Nuclear Repulsion Energy =            509.7759949813557228
    One-Electron Energy =               -1657.6727625742171313
    Two-Electron Energy =                 673.2496786164764444
    Total Energy =                       -474.6470889763849073
  Basis Set: (AUG-CC-PVTZ AUX)
    Blend: AUG-CC-PVTZ-RI
    Molecular point group: c1

    Geometry (in Angstrom), charge = 0, multiplicity = 1:

       Center              X                  Y                   Z               Mass
    ------------   -----------------  -----------------  -----------------  -----------------
         O           -0.418703510220    -1.210499462657     0.000002065354    15.994914619570
         O            1.714046489780     1.660363537343     0.000014065354    15.994914619570
         N            2.215069489780    -0.587960462657    -0.000014934646    14.003074004430
         C           -2.313460510220     0.017501537343     0.000005065354    12.000000000000
         C           -0.068467510220     0.116070537343    -0.000011934646    12.000000000000
         C           -1.192554510220     0.899971537343    -0.000008934646    12.000000000000
         C           -1.787817510220    -1.248380462657     0.000009065354    12.000000000000
         C            1.326615089780     0.444953137343    -0.000000934646    12.000000000000
         C           -3.763288510220     0.388243537343    -0.000000934646    12.000000000000
         C            3.653987489780    -0.415648462657     0.000004065354    12.000000000000
         H           -1.194483510220     1.982114537343    -0.000018934646     1.007825032230
         H           -2.228123510220    -2.235729462657     0.000027065354     1.007825032230
         H           -4.017604510220     0.981425537343    -0.883262934646     1.007825032230
         H           -4.394026510220    -0.504918462657     0.000010065354     1.007825032230
         H           -4.017607510220     0.981449537343     0.883244065354     1.007825032230
         H            1.816457489780    -1.517755462657    -0.000018934646     1.007825032230
         H            4.102943489780    -0.863592462657    -0.891255934646     1.007825032230
         H            4.102921489780    -0.863568462657     0.891288065354     1.007825032230
         H            3.848176489780     0.656584537343    -0.000006934646     1.007825032230

  Basis Set: AUG-CC-PVTZ
    Blend: AUG-CC-PVTZ
  Basis Set: (AUG-CC-PVTZ AUX)
    Blend: AUG-CC-PVTZ-JKFIT
	 Reference Energy          =    -474.6470889763849073 [Eh]
	 Singles Energy            =      -0.0000000000000000 [Eh]
	 Same-Spin Energy          =      -0.4920651525649270 [Eh]
	 Opposite-Spin Energy      =      -1.5286619836725952 [Eh]
	 Correlation Energy        =      -2.0207271362375221 [Eh]
	 Total Energy              =    -476.6678161126224040 [Eh]

	 ================> DF-SCS-MP2 Energies <==================
	-----------------------------------------------------------
	 SCS Same-Spin Scale       =       0.3333333333333333 [-]
	 SCS Opposite-Spin Scale   =       1.2000000000000000 [-]
	 SCS Same-Spin Energy      =      -0.1640217175216423 [Eh]
	 SCS Opposite-Spin Energy  =      -1.8343943804071141 [Eh]
	 SCS Correlation Energy    =      -1.9984160979287564 [Eh]
	 SCS Total Energy          =    -476.6455050743136894 [Eh]
	-----------------------------------------------------------

  Dipole Moment: [D]
     X:    -1.5552      Y:    -3.3462      Z:    -0.0000     Total:     3.6900

*** Psi4 exiting successfully. Buy a developer a beer!
