                               Psi4 1.4a3.dev225

  ==> Input File <==

--------------------------------------------------------------------------
#psi4
#
memory 32 gb

molecule  {
0 1
  O       -0.4083860    -1.2037120     0.0000020
  O        1.7243640     1.6671510     0.0000140
  N        2.2253870    -0.5811730    -0.0000150
  C       -2.3031430     0.0242890     0.0000050
  C       -0.0581500     0.1228580    -0.0000120
  C       -1.1822370     0.9067590    -0.0000090
  C       -1.7775000    -1.2415930     0.0000090
  C        1.4985713     0.3260325    -0.0000031
  C       -3.7529710     0.3950310    -0.0000010
  C        3.6643050    -0.4088610     0.0000040
  H       -1.1841660     1.9889020    -0.0000190
  H       -2.2178060    -2.2289420     0.0000270
  H       -4.0072870     0.9882130    -0.8832630
  H       -4.3837090    -0.4981310     0.0000100
  H       -4.0072900     0.9882370     0.8832440
  H        1.8267750    -1.5109680    -0.0000190
  H        4.1132610    -0.8568050    -0.8912560
  H        4.1132390    -0.8567810     0.8912880
  H        3.8584940     0.6633720    -0.0000070
units angstrom
no_reorient  #important for SAPT in psi4, default
symmetry c1  #important for SAPT in psi4, default
}

set PROPERTIES_ORIGIN ["COM"]
properties('MP2/aug-cc-pvtz', properties = ['dipole'])
--------------------------------------------------------------------------

    Molecular point group: c1
  Charge       = 0
  Multiplicity = 1
  Basis Set: AUG-CC-PVTZ
    Blend: AUG-CC-PVTZ
  Basis Set: (AUG-CC-PVTZ AUX)
    Blend: AUG-CC-PVTZ-JKFIT

    Orbital Energies [Eh]
    ---------------------

    Doubly Occupied:

       1A    -20.629009     2A    -20.479995     3A    -15.624836
       4A    -11.348675     5A    -11.301208     6A    -11.290283
       7A    -11.281729     8A    -11.243937     9A    -11.236240
      10A    -11.233794    11A     -1.462524    12A     -1.380255
      13A     -1.233478    14A     -1.105157    15A     -1.033136
      16A     -0.997875    17A     -0.950441    18A     -0.845696
      19A     -0.811266    20A     -0.780205    21A     -0.737354
      22A     -0.676273    23A     -0.670238    24A     -0.641283
      25A     -0.638644    26A     -0.589782    27A     -0.577403
      28A     -0.575099    29A     -0.566827    30A     -0.551087
      31A     -0.541586    32A     -0.524976    33A     -0.507390
      34A     -0.397583    35A     -0.394029    36A     -0.381807
      37A     -0.314987

  @DF-RHF Final Energy:  -474.58321967148891

   => Energetics <=

    Nuclear Repulsion Energy =            509.9401377086417710
    One-Electron Energy =               -1657.9345454437143417
    Two-Electron Energy =                 673.4111880635837224
    Total Energy =                       -474.5832196714889051
  Basis Set: (AUG-CC-PVTZ AUX)
    Blend: AUG-CC-PVTZ-RI
    Molecular point group: c1

    Geometry (in Angstrom), charge = 0, multiplicity = 1:

       Center              X                  Y                   Z               Mass
    ------------   -----------------  -----------------  -----------------  -----------------
         O           -0.432651575612    -1.199651906972     0.000002246566    15.994914619570
         O            1.700098424388     1.671211093028     0.000014246566    15.994914619570
         N            2.201121424388    -0.577112906972    -0.000014753434    14.003074004430
         C           -2.327408575612     0.028349093028     0.000005246566    12.000000000000
         C           -0.082415575612     0.126918093028    -0.000011753434    12.000000000000
         C           -1.206502575612     0.910819093028    -0.000008753434    12.000000000000
         C           -1.801765575612    -1.237532906972     0.000009246566    12.000000000000
         C            1.474305724388     0.330092593028    -0.000002853434    12.000000000000
         C           -3.777236575612     0.399091093028    -0.000000753434    12.000000000000
         C            3.640039424388    -0.404800906972     0.000004246566    12.000000000000
         H           -1.208431575612     1.992962093028    -0.000018753434     1.007825032230
         H           -2.242071575612    -2.224881906972     0.000027246566     1.007825032230
         H           -4.031552575612     0.992273093028    -0.883262753434     1.007825032230
         H           -4.407974575612    -0.494070906972     0.000010246566     1.007825032230
         H           -4.031555575612     0.992297093028     0.883244246566     1.007825032230
         H            1.802509424388    -1.506907906972    -0.000018753434     1.007825032230
         H            4.088995424388    -0.852744906972    -0.891255753434     1.007825032230
         H            4.088973424388    -0.852720906972     0.891288246566     1.007825032230
         H            3.834228424388     0.667432093028    -0.000006753434     1.007825032230

  Basis Set: AUG-CC-PVTZ
    Blend: AUG-CC-PVTZ
  Basis Set: (AUG-CC-PVTZ AUX)
    Blend: AUG-CC-PVTZ-JKFIT
	 Reference Energy          =    -474.5832196714889051 [Eh]
	 Singles Energy            =      -0.0000000000000000 [Eh]
	 Same-Spin Energy          =      -0.4919097879667313 [Eh]
	 Opposite-Spin Energy      =      -1.5286517577093632 [Eh]
	 Correlation Energy        =      -2.0205615456760944 [Eh]
	 Total Energy              =    -476.6037812171650216 [Eh]

	 ================> DF-SCS-MP2 Energies <==================
	-----------------------------------------------------------
	 SCS Same-Spin Scale       =       0.3333333333333333 [-]
	 SCS Opposite-Spin Scale   =       1.2000000000000000 [-]
	 SCS Same-Spin Energy      =      -0.1639699293222438 [Eh]
	 SCS Opposite-Spin Energy  =      -1.8343821092512358 [Eh]
	 SCS Correlation Energy    =      -1.9983520385734796 [Eh]
	 SCS Total Energy          =    -476.5815717100624056 [Eh]
	-----------------------------------------------------------

  Dipole Moment: [D]
     X:    -0.0545      Y:    -4.4454      Z:    -0.0000     Total:     4.4458

*** Psi4 exiting successfully. Buy a developer a beer!
