                               Psi4 1.4a3.dev225

  ==> Input File <==

--------------------------------------------------------------------------
#psi4
#
memory 32 gb

molecule  {
0 1
  O       -0.4083860    -1.2037120     0.0000020
  O        1.8061731     1.6397908     0.0000141
  N        2.2253870    -0.5811730    -0.0000150
  C       -2.3031430     0.0242890     0.0000050
  C       -0.0581500     0.1228580    -0.0000120
  C       -1.1822370     0.9067590    -0.0000090
  C       -1.7775000    -1.2415930     0.0000090
  C        1.3735220     0.4821180    -0.0000010
  C       -3.7529710     0.3950310    -0.0000010
  C        3.6643050    -0.4088610     0.0000040
  H       -1.1841660     1.9889020    -0.0000190
  H       -2.2178060    -2.2289420     0.0000270
  H       -4.0072870     0.9882130    -0.8832630
  H       -4.3837090    -0.4981310     0.0000100
  H       -4.0072900     0.9882370     0.8832440
  H        1.8267750    -1.5109680    -0.0000190
  H        4.1132610    -0.8568050    -0.8912560
  H        4.1132390    -0.8567810     0.8912880
  H        3.8584940     0.6633720    -0.0000070
units angstrom
no_reorient  #important for SAPT in psi4, default
symmetry c1  #important for SAPT in psi4, default
}

set PROPERTIES_ORIGIN ["COM"]
properties('MP2/aug-cc-pvtz', properties = ['dipole'])
--------------------------------------------------------------------------

    Molecular point group: c1
  Charge       = 0
  Multiplicity = 1
  Basis Set: AUG-CC-PVTZ
    Blend: AUG-CC-PVTZ
  Basis Set: (AUG-CC-PVTZ AUX)
    Blend: AUG-CC-PVTZ-JKFIT

    Orbital Energies [Eh]
    ---------------------

    Doubly Occupied:

       1A    -20.639357     2A    -20.512211     3A    -15.582610
       4A    -11.357638     5A    -11.303572     6A    -11.302575
       7A    -11.254220     8A    -11.252300     9A    -11.249649
      10A    -11.240250    11A     -1.470323    12A     -1.369360
      13A     -1.223634    14A     -1.115521    15A     -1.043753
      16A     -0.973837    17A     -0.940027    18A     -0.840723
      19A     -0.799224    20A     -0.770291    21A     -0.738707
      22A     -0.669556    23A     -0.657838    24A     -0.633640
      25A     -0.615192    26A     -0.598458    27A     -0.591767
      28A     -0.581609    29A     -0.580883    30A     -0.552823
      31A     -0.539261    32A     -0.532374    33A     -0.523268
      34A     -0.431212    35A     -0.400356    36A     -0.386126
      37A     -0.326696

  @DF-RHF Final Energy:  -474.65277644387356

   => Energetics <=

    Nuclear Repulsion Energy =            509.5233157485437800
    One-Electron Energy =               -1657.1504992057898562
    Two-Electron Energy =                 672.9744070133724563
    Total Energy =                       -474.6527764438735630
  Basis Set: (AUG-CC-PVTZ AUX)
    Blend: AUG-CC-PVTZ-RI
    Molecular point group: c1

    Geometry (in Angstrom), charge = 0, multiplicity = 1:

       Center              X                  Y                   Z               Mass
    ------------   -----------------  -----------------  -----------------  -----------------
         O           -0.431270463622    -1.209973836931     0.000002053852    15.994914619570
         O            1.783288636378     1.633528963069     0.000014153852    15.994914619570
         N            2.202502536378    -0.587434836931    -0.000014946148    14.003074004430
         C           -2.326027463622     0.018027163069     0.000005053852    12.000000000000
         C           -0.081034463622     0.116596163069    -0.000011946148    12.000000000000
         C           -1.205121463622     0.900497163069    -0.000008946148    12.000000000000
         C           -1.800384463622    -1.247854836931     0.000009053852    12.000000000000
         C            1.350637536378     0.475856163069    -0.000000946148    12.000000000000
         C           -3.775855463622     0.388769163069    -0.000000946148    12.000000000000
         C            3.641420536378    -0.415122836931     0.000004053852    12.000000000000
         H           -1.207050463622     1.982640163069    -0.000018946148     1.007825032230
         H           -2.240690463622    -2.235203836931     0.000027053852     1.007825032230
         H           -4.030171463622     0.981951163069    -0.883262946148     1.007825032230
         H           -4.406593463622    -0.504392836931     0.000010053852     1.007825032230
         H           -4.030174463622     0.981975163069     0.883244053852     1.007825032230
         H            1.803890536378    -1.517229836931    -0.000018946148     1.007825032230
         H            4.090376536378    -0.863066836931    -0.891255946148     1.007825032230
         H            4.090354536378    -0.863042836931     0.891288053852     1.007825032230
         H            3.835609536378     0.657110163069    -0.000006946148     1.007825032230

  Basis Set: AUG-CC-PVTZ
    Blend: AUG-CC-PVTZ
  Basis Set: (AUG-CC-PVTZ AUX)
    Blend: AUG-CC-PVTZ-JKFIT
	 Reference Energy          =    -474.6527764438735630 [Eh]
	 Singles Energy            =      -0.0000000000000000 [Eh]
	 Same-Spin Energy          =      -0.4909865546792345 [Eh]
	 Opposite-Spin Energy      =      -1.5265627271140798 [Eh]
	 Correlation Energy        =      -2.0175492817933143 [Eh]
	 Total Energy              =    -476.6703257256668849 [Eh]

	 ================> DF-SCS-MP2 Energies <==================
	-----------------------------------------------------------
	 SCS Same-Spin Scale       =       0.3333333333333333 [-]
	 SCS Opposite-Spin Scale   =       1.2000000000000000 [-]
	 SCS Same-Spin Energy      =      -0.1636621848930782 [Eh]
	 SCS Opposite-Spin Energy  =      -1.8318752725368956 [Eh]
	 SCS Correlation Energy    =      -1.9955374574299738 [Eh]
	 SCS Total Energy          =    -476.6483139013035384 [Eh]
	-----------------------------------------------------------

  Dipole Moment: [D]
     X:    -1.6139      Y:    -3.0964      Z:    -0.0000     Total:     3.4918

*** Psi4 exiting successfully. Buy a developer a beer!
