                               Psi4 1.4a3.dev225

  ==> Input File <==

--------------------------------------------------------------------------
#psi4
#
memory 32 gb

molecule  {
0 1
  O       -0.4083860    -1.2037120     0.0000020
  O        1.7243640     1.6671510     0.0000140
  N        2.2253870    -0.5811730    -0.0000150
  C       -2.3031430     0.0242890     0.0000050
  C       -0.0581500     0.1228580    -0.0000120
  C       -1.1822370     0.9067590    -0.0000090
  C       -1.7775000    -1.2415930     0.0000090
  C        1.3735220     0.4821180    -0.0000010
  C       -3.7529710     0.3950310    -0.0000010
  C        3.6643050    -0.4088610     0.0000040
  H       -1.1841660     1.9889020    -0.0000190
  H       -2.2178060    -2.2289420     0.0000270
  H       -4.0072870     0.9882130    -0.8832630
  H       -4.3837090    -0.4981310     0.0000100
  H       -4.0072900     0.9882370     0.8832440
  H        1.8188945    -1.5293500    -0.0000191
  H        4.1132610    -0.8568050    -0.8912560
  H        4.1132390    -0.8567810     0.8912880
  H        3.8584940     0.6633720    -0.0000070
units angstrom
no_reorient  #important for SAPT in psi4, default
symmetry c1  #important for SAPT in psi4, default
}

set PROPERTIES_ORIGIN ["COM"]
properties('MP2/aug-cc-pvtz', properties = ['dipole'])
--------------------------------------------------------------------------

    Molecular point group: c1
  Charge       = 0
  Multiplicity = 1
  Basis Set: AUG-CC-PVTZ
    Blend: AUG-CC-PVTZ
  Basis Set: (AUG-CC-PVTZ AUX)
    Blend: AUG-CC-PVTZ-JKFIT

    Orbital Energies [Eh]
    ---------------------

    Doubly Occupied:

       1A    -20.636774     2A    -20.514024     3A    -15.588794
       4A    -11.358283     5A    -11.300868     6A    -11.298939
       7A    -11.257973     8A    -11.250158     9A    -11.246377
      10A    -11.238724    11A     -1.467990    12A     -1.368714
      13A     -1.227217    14A     -1.113080    15A     -1.040931
      16A     -0.973291    17A     -0.940470    18A     -0.838612
      19A     -0.796565    20A     -0.769344    21A     -0.736978
      22A     -0.667759    23A     -0.656033    24A     -0.635410
      25A     -0.617164    26A     -0.596445    27A     -0.590881
      28A     -0.580110    29A     -0.578636    30A     -0.551380
      31A     -0.542113    32A     -0.533979    33A     -0.521714
      34A     -0.431706    35A     -0.398853    36A     -0.388600
      37A     -0.323959

  @DF-RHF Final Energy:  -474.65293573269787

   => Energetics <=

    Nuclear Repulsion Energy =            509.5479288271942551
    One-Electron Energy =               -1657.2440295792184770
    Two-Electron Energy =                 673.0431650193263522
    Total Energy =                       -474.6529357326978698
  Basis Set: (AUG-CC-PVTZ AUX)
    Blend: AUG-CC-PVTZ-RI
    Molecular point group: c1

    Geometry (in Angstrom), charge = 0, multiplicity = 1:

       Center              X                  Y                   Z               Mass
    ------------   -----------------  -----------------  -----------------  -----------------
         O           -0.421803756988    -1.212987559008     0.000002066079    15.994914619570
         O            1.710946243012     1.657875440992     0.000014066079    15.994914619570
         N            2.211969243012    -0.590448559008    -0.000014933921    14.003074004430
         C           -2.316560756988     0.015013440992     0.000005066079    12.000000000000
         C           -0.071567756988     0.113582440992    -0.000011933921    12.000000000000
         C           -1.195654756988     0.897483440992    -0.000008933921    12.000000000000
         C           -1.790917756988    -1.250868559008     0.000009066079    12.000000000000
         C            1.360104243012     0.472842440992    -0.000000933921    12.000000000000
         C           -3.766388756988     0.385755440992    -0.000000933921    12.000000000000
         C            3.650887243012    -0.418136559008     0.000004066079    12.000000000000
         H           -1.197583756988     1.979626440992    -0.000018933921     1.007825032230
         H           -2.231223756988    -2.238217559008     0.000027066079     1.007825032230
         H           -4.020704756988     0.978937440992    -0.883262933921     1.007825032230
         H           -4.397126756988    -0.507406559008     0.000010066079     1.007825032230
         H           -4.020707756988     0.978961440992     0.883244066079     1.007825032230
         H            1.805476743012    -1.538625559008    -0.000019033921     1.007825032230
         H            4.099843243012    -0.866080559008    -0.891255933921     1.007825032230
         H            4.099821243012    -0.866056559008     0.891288066079     1.007825032230
         H            3.845076243012     0.654096440992    -0.000006933921     1.007825032230

  Basis Set: AUG-CC-PVTZ
    Blend: AUG-CC-PVTZ
  Basis Set: (AUG-CC-PVTZ AUX)
    Blend: AUG-CC-PVTZ-JKFIT
	 Reference Energy          =    -474.6529357326978698 [Eh]
	 Singles Energy            =      -0.0000000000000000 [Eh]
	 Same-Spin Energy          =      -0.4910118684442837 [Eh]
	 Opposite-Spin Energy      =      -1.5268686672551144 [Eh]
	 Correlation Energy        =      -2.0178805356993981 [Eh]
	 Total Energy              =    -476.6708162683972887 [Eh]

	 ================> DF-SCS-MP2 Energies <==================
	-----------------------------------------------------------
	 SCS Same-Spin Scale       =       0.3333333333333333 [-]
	 SCS Opposite-Spin Scale   =       1.2000000000000000 [-]
	 SCS Same-Spin Energy      =      -0.1636706228147612 [Eh]
	 SCS Opposite-Spin Energy  =      -1.8322424007061371 [Eh]
	 SCS Correlation Energy    =      -1.9959130235208984 [Eh]
	 SCS Total Energy          =    -476.6488487562187402 [Eh]
	-----------------------------------------------------------

  Dipole Moment: [D]
     X:    -1.2966      Y:    -3.1656      Z:    -0.0000     Total:     3.4208

*** Psi4 exiting successfully. Buy a developer a beer!
