                               Psi4 1.4a3.dev225

  ==> Input File <==

--------------------------------------------------------------------------
#psi4
#
memory 32 gb

molecule  {
0 1
  O       -0.4083860    -1.2037120     0.0000020
  O        1.7243640     1.6671510     0.0000140
  N        2.2253870    -0.5811730    -0.0000150
  C       -2.3031430     0.0242890     0.0000050
  C       -0.0581500     0.1228580    -0.0000120
  C       -1.1822370     0.9067590    -0.0000090
  C       -1.7775000    -1.2415930     0.0000090
  C        1.3735220     0.4821180    -0.0000010
  C       -3.7529710     0.3950310    -0.0000010
  C        3.6643050    -0.4088610     0.0000040
  H       -1.1841660     1.9889020    -0.0000190
  H       -2.2178060    -2.2289420     0.0000270
  H       -4.0072870     0.9882130    -0.8832630
  H       -4.3837090    -0.4981310     0.0000100
  H       -4.0072900     0.9882370     0.8832440
  H        1.8267750    -1.5109680    -0.0000190
  H        4.0722182    -0.8158548    -0.8097786
  H        4.1132390    -0.8567810     0.8912880
  H        3.8584940     0.6633720    -0.0000070
units angstrom
no_reorient  #important for SAPT in psi4, default
symmetry c1  #important for SAPT in psi4, default
}

set PROPERTIES_ORIGIN ["COM"]
properties('MP2/aug-cc-pvtz', properties = ['dipole'])
--------------------------------------------------------------------------

    Molecular point group: c1
  Charge       = 0
  Multiplicity = 1
  Basis Set: AUG-CC-PVTZ
    Blend: AUG-CC-PVTZ
  Basis Set: (AUG-CC-PVTZ AUX)
    Blend: AUG-CC-PVTZ-JKFIT

    Orbital Energies [Eh]
    ---------------------

    Doubly Occupied:

       1A    -20.636431     2A    -20.513549     3A    -15.586005
       4A    -11.357740     5A    -11.300581     6A    -11.298601
       7A    -11.249885     8A    -11.246060     9A    -11.245614
      10A    -11.238532    11A     -1.467640    12A     -1.368372
      13A     -1.229409    14A     -1.112797    15A     -1.041404
      16A     -0.976939    17A     -0.945736    18A     -0.841928
      19A     -0.796263    20A     -0.772434    21A     -0.737678
      22A     -0.668914    23A     -0.656373    24A     -0.638760
      25A     -0.625069    26A     -0.596206    27A     -0.592017
      28A     -0.580107    29A     -0.578289    30A     -0.552002
      31A     -0.545446    32A     -0.536438    33A     -0.521621
      34A     -0.431312    35A     -0.399058    36A     -0.389430
      37A     -0.323721

  @DF-RHF Final Energy:  -474.64807593819580

   => Energetics <=

    Nuclear Repulsion Energy =            510.1322763848282875
    One-Electron Energy =               -1658.3639930963331608
    Two-Electron Energy =                 673.5836407733089573
    Total Energy =                       -474.6480759381958023
  Basis Set: (AUG-CC-PVTZ AUX)
    Blend: AUG-CC-PVTZ-RI
    Molecular point group: c1

    Geometry (in Angstrom), charge = 0, multiplicity = 1:

       Center              X                  Y                   Z               Mass
    ------------   -----------------  -----------------  -----------------  -----------------
         O           -0.421563421909    -1.213417553579    -0.000588420751    15.994914619570
         O            1.711186578091     1.657445446421    -0.000576420751    15.994914619570
         N            2.212209578091    -0.590878553579    -0.000605420751    14.003074004430
         C           -2.316320421909     0.014583446421    -0.000585420751    12.000000000000
         C           -0.071327421909     0.113152446421    -0.000602420751    12.000000000000
         C           -1.195414421909     0.897053446421    -0.000599420751    12.000000000000
         C           -1.790677421909    -1.251298553579    -0.000581420751    12.000000000000
         C            1.360344578091     0.472412446421    -0.000591420751    12.000000000000
         C           -3.766148421909     0.385325446421    -0.000591420751    12.000000000000
         C            3.651127578091    -0.418566553579    -0.000586420751    12.000000000000
         H           -1.197343421909     1.979196446421    -0.000609420751     1.007825032230
         H           -2.230983421909    -2.238647553579    -0.000563420751     1.007825032230
         H           -4.020464421909     0.978507446421    -0.883853420751     1.007825032230
         H           -4.396886421909    -0.507836553579    -0.000580420751     1.007825032230
         H           -4.020467421909     0.978531446421     0.882653579249     1.007825032230
         H            1.813597578091    -1.520673553579    -0.000609420751     1.007825032230
         H            4.059040778091    -0.825560353579    -0.810369020751     1.007825032230
         H            4.100061578091    -0.866486553579     0.890697579249     1.007825032230
         H            3.845316578091     0.653666446421    -0.000597420751     1.007825032230

  Basis Set: AUG-CC-PVTZ
    Blend: AUG-CC-PVTZ
  Basis Set: (AUG-CC-PVTZ AUX)
    Blend: AUG-CC-PVTZ-JKFIT
	 Reference Energy          =    -474.6480759381958023 [Eh]
	 Singles Energy            =      -0.0000000000000000 [Eh]
	 Same-Spin Energy          =      -0.4908924507020977 [Eh]
	 Opposite-Spin Energy      =      -1.5260395455607245 [Eh]
	 Correlation Energy        =      -2.0169319962628220 [Eh]
	 Total Energy              =    -476.6650079344586288 [Eh]

	 ================> DF-SCS-MP2 Energies <==================
	-----------------------------------------------------------
	 SCS Same-Spin Scale       =       0.3333333333333333 [-]
	 SCS Opposite-Spin Scale   =       1.2000000000000000 [-]
	 SCS Same-Spin Energy      =      -0.1636308169006992 [Eh]
	 SCS Opposite-Spin Energy  =      -1.8312474546728694 [Eh]
	 SCS Correlation Energy    =      -1.9948782715735687 [Eh]
	 SCS Total Energy          =    -476.6429542097693570 [Eh]
	-----------------------------------------------------------

  Dipole Moment: [D]
     X:    -1.2364      Y:    -3.1675      Z:    -0.0310     Total:     3.4004

*** Psi4 exiting successfully. Buy a developer a beer!
