                               Psi4 1.4a3.dev225

  ==> Input File <==

--------------------------------------------------------------------------
#psi4
#
memory 32 gb

molecule  {
0 1
  O       -0.4083860    -1.2037120     0.0000020
  O        1.7243640     1.6671510     0.0000140
  N        2.2253870    -0.5811730    -0.0000150
  C       -2.3031430     0.0242890     0.0000050
  C       -0.0581500     0.1228580    -0.0000120
  C       -1.1822370     0.9067590    -0.0000090
  C       -1.7775000    -1.2415930     0.0000090
  C        1.3735220     0.4821180    -0.0000010
  C       -3.7529710     0.3950310    -0.0000010
  C        3.6146597    -0.4148061     0.0000033
  H       -1.1841660     1.9889020    -0.0000190
  H       -2.2178060    -2.2289420     0.0000270
  H       -4.0072870     0.9882130    -0.8832630
  H       -4.3837090    -0.4981310     0.0000100
  H       -4.0072900     0.9882370     0.8832440
  H        1.8267750    -1.5109680    -0.0000190
  H        4.1132610    -0.8568050    -0.8912560
  H        4.1132390    -0.8567810     0.8912880
  H        3.8584940     0.6633720    -0.0000070
units angstrom
no_reorient  #important for SAPT in psi4, default
symmetry c1  #important for SAPT in psi4, default
}

set PROPERTIES_ORIGIN ["COM"]
properties('MP2/aug-cc-pvtz', properties = ['dipole'])
--------------------------------------------------------------------------

    Molecular point group: c1
  Charge       = 0
  Multiplicity = 1
  Basis Set: AUG-CC-PVTZ
    Blend: AUG-CC-PVTZ
  Basis Set: (AUG-CC-PVTZ AUX)
    Blend: AUG-CC-PVTZ-JKFIT

    Orbital Energies [Eh]
    ---------------------

    Doubly Occupied:

       1A    -20.637878     2A    -20.516120     3A    -15.588500
       4A    -11.360146     5A    -11.301935     6A    -11.300073
       7A    -11.257553     8A    -11.251078     9A    -11.247592
      10A    -11.239389    11A     -1.469123    12A     -1.371882
      13A     -1.241296    14A     -1.114081    15A     -1.043146
      16A     -0.974408    17A     -0.939625    18A     -0.839448
      19A     -0.797641    20A     -0.777979    21A     -0.738641
      22A     -0.669960    23A     -0.657463    24A     -0.647536
      25A     -0.617230    26A     -0.597713    27A     -0.595094
      28A     -0.580654    29A     -0.579540    30A     -0.552657
      31A     -0.533675    32A     -0.529446    33A     -0.520849
      34A     -0.433983    35A     -0.399239    36A     -0.387890
      37A     -0.324929

  @DF-RHF Final Energy:  -474.65124739392684

   => Energetics <=

    Nuclear Repulsion Energy =            510.5917015477197651
    One-Electron Energy =               -1659.2151112634412584
    Two-Electron Energy =                 673.9721623217945989
    Total Energy =                       -474.6512473939268375
  Basis Set: (AUG-CC-PVTZ AUX)
    Blend: AUG-CC-PVTZ-RI
    Molecular point group: c1

    Geometry (in Angstrom), charge = 0, multiplicity = 1:

       Center              X                  Y                   Z               Mass
    ------------   -----------------  -----------------  -----------------  -----------------
         O           -0.417576895450    -1.212607765422     0.000002125758    15.994914619570
         O            1.715173104550     1.658255234578     0.000014125758    15.994914619570
         N            2.216196104550    -0.590068765422    -0.000014874242    14.003074004430
         C           -2.312333895450     0.015393234578     0.000005125758    12.000000000000
         C           -0.067340895450     0.113962234578    -0.000011874242    12.000000000000
         C           -1.191427895450     0.897863234578    -0.000008874242    12.000000000000
         C           -1.786690895450    -1.250488765422     0.000009125758    12.000000000000
         C            1.364331104550     0.473222234578    -0.000000874242    12.000000000000
         C           -3.762161895450     0.386135234578    -0.000000874242    12.000000000000
         C            3.605468804550    -0.423701865422     0.000003425758    12.000000000000
         H           -1.193356895450     1.980006234578    -0.000018874242     1.007825032230
         H           -2.226996895450    -2.237837765422     0.000027125758     1.007825032230
         H           -4.016477895450     0.979317234578    -0.883262874242     1.007825032230
         H           -4.392899895450    -0.507026765422     0.000010125758     1.007825032230
         H           -4.016480895450     0.979341234578     0.883244125758     1.007825032230
         H            1.817584104550    -1.519863765422    -0.000018874242     1.007825032230
         H            4.104070104550    -0.865700765422    -0.891255874242     1.007825032230
         H            4.104048104550    -0.865676765422     0.891288125758     1.007825032230
         H            3.849303104550     0.654476234578    -0.000006874242     1.007825032230

  Basis Set: AUG-CC-PVTZ
    Blend: AUG-CC-PVTZ
  Basis Set: (AUG-CC-PVTZ AUX)
    Blend: AUG-CC-PVTZ-JKFIT
	 Reference Energy          =    -474.6512473939268375 [Eh]
	 Singles Energy            =      -0.0000000000000000 [Eh]
	 Same-Spin Energy          =      -0.4912501147964184 [Eh]
	 Opposite-Spin Energy      =      -1.5266539612110559 [Eh]
	 Correlation Energy        =      -2.0179040760074742 [Eh]
	 Total Energy              =    -476.6691514699343202 [Eh]

	 ================> DF-SCS-MP2 Energies <==================
	-----------------------------------------------------------
	 SCS Same-Spin Scale       =       0.3333333333333333 [-]
	 SCS Opposite-Spin Scale   =       1.2000000000000000 [-]
	 SCS Same-Spin Energy      =      -0.1637500382654728 [Eh]
	 SCS Opposite-Spin Energy  =      -1.8319847534532669 [Eh]
	 SCS Correlation Energy    =      -1.9957347917187398 [Eh]
	 SCS Total Energy          =    -476.6469821856455837 [Eh]
	-----------------------------------------------------------

  Dipole Moment: [D]
     X:    -1.4691      Y:    -3.1146      Z:    -0.0000     Total:     3.4437

*** Psi4 exiting successfully. Buy a developer a beer!
