                               Psi4 1.4a3.dev225

  ==> Input File <==

--------------------------------------------------------------------------
#psi4
#
memory 32 gb

molecule  {
0 1
  O       -0.4083860    -1.2037120     0.0000020
  O        1.7243640     1.6671510     0.0000140
  N        2.2253870    -0.5811730    -0.0000150
  C       -2.3031430     0.0242890     0.0000050
  C       -0.0581500     0.1228580    -0.0000120
  C       -1.1822370     0.9067590    -0.0000090
  C       -1.7775000    -1.2415930     0.0000090
  C        1.3735220     0.4821180    -0.0000010
  C       -3.8498536     0.4198053    -0.0000014
  C        3.6643050    -0.4088610     0.0000040
  H       -1.1841660     1.9889020    -0.0000190
  H       -2.2178060    -2.2289420     0.0000270
  H       -4.0072870     0.9882130    -0.8832630
  H       -4.3837090    -0.4981310     0.0000100
  H       -4.0072900     0.9882370     0.8832440
  H        1.8267750    -1.5109680    -0.0000190
  H        4.1132610    -0.8568050    -0.8912560
  H        4.1132390    -0.8567810     0.8912880
  H        3.8584940     0.6633720    -0.0000070
units angstrom
no_reorient  #important for SAPT in psi4, default
symmetry c1  #important for SAPT in psi4, default
}

set PROPERTIES_ORIGIN ["COM"]
properties('MP2/aug-cc-pvtz', properties = ['dipole'])
--------------------------------------------------------------------------

    Molecular point group: c1
  Charge       = 0
  Multiplicity = 1
  Basis Set: AUG-CC-PVTZ
    Blend: AUG-CC-PVTZ
  Basis Set: (AUG-CC-PVTZ AUX)
    Blend: AUG-CC-PVTZ-JKFIT

    Orbital Energies [Eh]
    ---------------------

    Doubly Occupied:

       1A    -20.636112     2A    -20.513578     3A    -15.586615
       4A    -11.357805     5A    -11.300104     6A    -11.298013
       7A    -11.257686     8A    -11.252930     9A    -11.246044
      10A    -11.238253    11A     -1.467171    12A     -1.368419
      13A     -1.229023    14A     -1.105280    15A     -1.038413
      16A     -0.972827    17A     -0.942109    18A     -0.838547
      19A     -0.795733    20A     -0.772141    21A     -0.733690
      22A     -0.667215    23A     -0.655079    24A     -0.634264
      25A     -0.617082    26A     -0.602630    27A     -0.594546
      28A     -0.589046    29A     -0.578323    30A     -0.545846
      31A     -0.533692    32A     -0.533289    33A     -0.519464
      34A     -0.431265    35A     -0.400736    36A     -0.388814
      37A     -0.323749

  @DF-RHF Final Energy:  -474.64670718140883

   => Energetics <=

    Nuclear Repulsion Energy =            508.0041891797503126
    One-Electron Energy =               -1654.1707295595097094
    Two-Electron Energy =                 671.5198331983506250
    Total Energy =                       -474.6467071814088285
  Basis Set: (AUG-CC-PVTZ AUX)
    Blend: AUG-CC-PVTZ-RI
    Molecular point group: c1

    Geometry (in Angstrom), charge = 0, multiplicity = 1:

       Center              X                  Y                   Z               Mass
    ------------   -----------------  -----------------  -----------------  -----------------
         O           -0.413500712275    -1.215258592235     0.000002099871    15.994914619570
         O            1.719249287725     1.655604407765     0.000014099871    15.994914619570
         N            2.220272287725    -0.592719592235    -0.000014900129    14.003074004430
         C           -2.308257712275     0.012742407765     0.000005099871    12.000000000000
         C           -0.063264712275     0.111311407765    -0.000011900129    12.000000000000
         C           -1.187351712275     0.895212407765    -0.000008900129    12.000000000000
         C           -1.782614712275    -1.253139592235     0.000009099871    12.000000000000
         C            1.368407287725     0.470571407765    -0.000000900129    12.000000000000
         C           -3.854968312275     0.408258707765    -0.000001300129    12.000000000000
         C            3.659190287725    -0.420407592235     0.000004099871    12.000000000000
         H           -1.189280712275     1.977355407765    -0.000018900129     1.007825032230
         H           -2.222920712275    -2.240488592235     0.000027099871     1.007825032230
         H           -4.012401712275     0.976666407765    -0.883262900129     1.007825032230
         H           -4.388823712275    -0.509677592235     0.000010099871     1.007825032230
         H           -4.012404712275     0.976690407765     0.883244099871     1.007825032230
         H            1.821660287725    -1.522514592235    -0.000018900129     1.007825032230
         H            4.108146287725    -0.868351592235    -0.891255900129     1.007825032230
         H            4.108124287725    -0.868327592235     0.891288099871     1.007825032230
         H            3.853379287725     0.651825407765    -0.000006900129     1.007825032230

  Basis Set: AUG-CC-PVTZ
    Blend: AUG-CC-PVTZ
  Basis Set: (AUG-CC-PVTZ AUX)
    Blend: AUG-CC-PVTZ-JKFIT
	 Reference Energy          =    -474.6467071814088285 [Eh]
	 Singles Energy            =      -0.0000000000000000 [Eh]
	 Same-Spin Energy          =      -0.4904193489893701 [Eh]
	 Opposite-Spin Energy      =      -1.5263402176327323 [Eh]
	 Correlation Energy        =      -2.0167595666221025 [Eh]
	 Total Energy              =    -476.6634667480309417 [Eh]

	 ================> DF-SCS-MP2 Energies <==================
	-----------------------------------------------------------
	 SCS Same-Spin Scale       =       0.3333333333333333 [-]
	 SCS Opposite-Spin Scale   =       1.2000000000000000 [-]
	 SCS Same-Spin Energy      =      -0.1634731163297900 [Eh]
	 SCS Opposite-Spin Energy  =      -1.8316082611592788 [Eh]
	 SCS Correlation Energy    =      -1.9950813774890688 [Eh]
	 SCS Total Energy          =    -476.6417885588978720 [Eh]
	-----------------------------------------------------------

  Dipole Moment: [D]
     X:    -1.3318      Y:    -3.1419      Z:    -0.0000     Total:     3.4125

*** Psi4 exiting successfully. Buy a developer a beer!
