                               Psi4 1.4a3.dev225

  ==> Input File <==

--------------------------------------------------------------------------
#psi4
#
memory 32 gb

molecule  {
0 1
  O       -0.4083860    -1.2037120     0.0000020
  O        1.7243640     1.6671510     0.0000140
  N        2.2253870    -0.5811730    -0.0000150
  C       -2.3031430     0.0242890     0.0000050
  C       -0.0581500     0.1228580    -0.0000120
  C       -1.1822370     0.9067590    -0.0000090
  C       -1.7775000    -1.2415930     0.0000090
  C        1.3735220     0.4821180    -0.0000010
  C       -3.7529710     0.3950310    -0.0000010
  C        3.6643050    -0.4088610     0.0000040
  H       -1.1840769     1.9389021    -0.0000185
  H       -2.2178060    -2.2289420     0.0000270
  H       -4.0072870     0.9882130    -0.8832630
  H       -4.3837090    -0.4981310     0.0000100
  H       -4.0072900     0.9882370     0.8832440
  H        1.8267750    -1.5109680    -0.0000190
  H        4.1132610    -0.8568050    -0.8912560
  H        4.1132390    -0.8567810     0.8912880
  H        3.8584940     0.6633720    -0.0000070
units angstrom
no_reorient  #important for SAPT in psi4, default
symmetry c1  #important for SAPT in psi4, default
}

set PROPERTIES_ORIGIN ["COM"]
properties('MP2/aug-cc-pvtz', properties = ['dipole'])
--------------------------------------------------------------------------

    Molecular point group: c1
  Charge       = 0
  Multiplicity = 1
  Basis Set: AUG-CC-PVTZ
    Blend: AUG-CC-PVTZ
  Basis Set: (AUG-CC-PVTZ AUX)
    Blend: AUG-CC-PVTZ-JKFIT

    Orbital Energies [Eh]
    ---------------------

    Doubly Occupied:

       1A    -20.636609     2A    -20.514299     3A    -15.587198
       4A    -11.358459     5A    -11.300703     6A    -11.298886
       7A    -11.258092     8A    -11.249844     9A    -11.241116
      10A    -11.238776    11A     -1.467825    12A     -1.369097
      13A     -1.229602    14A     -1.113752    15A     -1.041575
      16A     -0.973740    17A     -0.940863    18A     -0.841300
      19A     -0.801103    20A     -0.773260    21A     -0.738685
      22A     -0.669450    23A     -0.655931    24A     -0.636014
      25A     -0.617398    26A     -0.599818    27A     -0.591551
      28A     -0.583051    29A     -0.580170    30A     -0.551377
      31A     -0.543451    32A     -0.534172    33A     -0.521880
      34A     -0.432022    35A     -0.398914    36A     -0.388977
      37A     -0.323917

  @DF-RHF Final Energy:  -474.65321020732705

   => Energetics <=

    Nuclear Repulsion Energy =            509.9187156994289580
    One-Electron Energy =               -1657.9380959463371710
    Two-Electron Energy =                 673.3661700395811067
    Total Energy =                       -474.6532102073271062
  Basis Set: (AUG-CC-PVTZ AUX)
    Blend: AUG-CC-PVTZ-RI
    Molecular point group: c1

    Geometry (in Angstrom), charge = 0, multiplicity = 1:

       Center              X                  Y                   Z               Mass
    ------------   -----------------  -----------------  -----------------  -----------------
         O           -0.421861514576    -1.212758416563     0.000002061730    15.994914619570
         O            1.710888485424     1.658104583437     0.000014061730    15.994914619570
         N            2.211911485424    -0.590219416563    -0.000014938270    14.003074004430
         C           -2.316618514576     0.015242583437     0.000005061730    12.000000000000
         C           -0.071625514576     0.113811583437    -0.000011938270    12.000000000000
         C           -1.195712514576     0.897712583437    -0.000008938270    12.000000000000
         C           -1.790975514576    -1.250639416563     0.000009061730    12.000000000000
         C            1.360046485424     0.473071583437    -0.000000938270    12.000000000000
         C           -3.766446514576     0.385984583437    -0.000000938270    12.000000000000
         C            3.650829485424    -0.417907416563     0.000004061730    12.000000000000
         H           -1.197552414576     1.929855683437    -0.000018438270     1.007825032230
         H           -2.231281514576    -2.237988416563     0.000027061730     1.007825032230
         H           -4.020762514576     0.979166583437    -0.883262938270     1.007825032230
         H           -4.397184514576    -0.507177416563     0.000010061730     1.007825032230
         H           -4.020765514576     0.979190583437     0.883244061730     1.007825032230
         H            1.813299485424    -1.520014416563    -0.000018938270     1.007825032230
         H            4.099785485424    -0.865851416563    -0.891255938270     1.007825032230
         H            4.099763485424    -0.865827416563     0.891288061730     1.007825032230
         H            3.845018485424     0.654325583437    -0.000006938270     1.007825032230

  Basis Set: AUG-CC-PVTZ
    Blend: AUG-CC-PVTZ
  Basis Set: (AUG-CC-PVTZ AUX)
    Blend: AUG-CC-PVTZ-JKFIT
	 Reference Energy          =    -474.6532102073270494 [Eh]
	 Singles Energy            =      -0.0000000000000000 [Eh]
	 Same-Spin Energy          =      -0.4907486203812005 [Eh]
	 Opposite-Spin Energy      =      -1.5261671067023510 [Eh]
	 Correlation Energy        =      -2.0169157270835516 [Eh]
	 Total Energy              =    -476.6701259344105779 [Eh]

	 ================> DF-SCS-MP2 Energies <==================
	-----------------------------------------------------------
	 SCS Same-Spin Scale       =       0.3333333333333333 [-]
	 SCS Opposite-Spin Scale   =       1.2000000000000000 [-]
	 SCS Same-Spin Energy      =      -0.1635828734604002 [Eh]
	 SCS Opposite-Spin Energy  =      -1.8314005280428212 [Eh]
	 SCS Correlation Energy    =      -1.9949834015032213 [Eh]
	 SCS Total Energy          =    -476.6481936088302973 [Eh]
	-----------------------------------------------------------

  Dipole Moment: [D]
     X:    -1.2917      Y:    -3.1579      Z:    -0.0000     Total:     3.4118

*** Psi4 exiting successfully. Buy a developer a beer!
