                               Psi4 1.4a3.dev225

  ==> Input File <==

--------------------------------------------------------------------------
#psi4
#
memory 32 gb

molecule  {
0 1
  O       -0.4083860    -1.2037120     0.0000020
  O        1.7243640     1.6671510     0.0000140
  N        2.2253870    -0.5811730    -0.0000150
  C       -2.3031430     0.0242890     0.0000050
  C       -0.0581500     0.1228580    -0.0000120
  C       -1.1822370     0.9067590    -0.0000090
  C       -1.9774235    -1.2471245     0.0000100
  C        1.3735220     0.4821180    -0.0000010
  C       -3.7529710     0.3950310    -0.0000010
  C        3.6643050    -0.4088610     0.0000040
  H       -1.1841660     1.9889020    -0.0000190
  H       -2.2178060    -2.2289420     0.0000270
  H       -4.0072870     0.9882130    -0.8832630
  H       -4.3837090    -0.4981310     0.0000100
  H       -4.0072900     0.9882370     0.8832440
  H        1.8267750    -1.5109680    -0.0000190
  H        4.1132610    -0.8568050    -0.8912560
  H        4.1132390    -0.8567810     0.8912880
  H        3.8584940     0.6633720    -0.0000070
units angstrom
no_reorient  #important for SAPT in psi4, default
symmetry c1  #important for SAPT in psi4, default
}

set PROPERTIES_ORIGIN ["COM"]
properties('MP2/aug-cc-pvtz', properties = ['dipole'])
--------------------------------------------------------------------------

    Molecular point group: c1
  Charge       = 0
  Multiplicity = 1
  Basis Set: AUG-CC-PVTZ
    Blend: AUG-CC-PVTZ
  Basis Set: (AUG-CC-PVTZ AUX)
    Blend: AUG-CC-PVTZ-JKFIT

    Orbital Energies [Eh]
    ---------------------

    Doubly Occupied:

       1A    -20.604302     2A    -20.517806     3A    -15.587983
       4A    -11.359878     5A    -11.307192     6A    -11.296953
       7A    -11.259381     8A    -11.258235     9A    -11.241140
      10A    -11.240616    11A     -1.405163    12A     -1.368575
      13A     -1.229511    14A     -1.121977    15A     -1.033715
      16A     -0.972711    17A     -0.943432    18A     -0.850459
      19A     -0.789960    20A     -0.772800    21A     -0.724697
      22A     -0.656698    23A     -0.634530    24A     -0.633313
      25A     -0.623588    26A     -0.609342    27A     -0.588411
      28A     -0.577973    29A     -0.563094    30A     -0.544981
      31A     -0.539124    32A     -0.530409    33A     -0.514785
      34A     -0.433054    35A     -0.405457    36A     -0.388904
      37A     -0.333094

  @DF-RHF Final Energy:  -474.61897381958687

   => Energetics <=

    Nuclear Repulsion Energy =            506.9521359845661550
    One-Electron Energy =               -1652.2157356466289002
    Two-Electron Energy =                 670.6446258424757616
    Total Energy =                       -474.6189738195869268
  Basis Set: (AUG-CC-PVTZ AUX)
    Blend: AUG-CC-PVTZ-RI
    Molecular point group: c1

    Geometry (in Angstrom), charge = 0, multiplicity = 1:

       Center              X                  Y                   Z               Mass
    ------------   -----------------  -----------------  -----------------  -----------------
         O           -0.404609146015    -1.212643455636     0.000001979062    15.994914619570
         O            1.728140853985     1.658219544364     0.000013979062    15.994914619570
         N            2.229163853985    -0.590104455636    -0.000015020938    14.003074004430
         C           -2.299366146015     0.015357544364     0.000004979062    12.000000000000
         C           -0.054373146015     0.113926544364    -0.000012020938    12.000000000000
         C           -1.178460146015     0.897827544364    -0.000009020938    12.000000000000
         C           -1.973646646015    -1.256055955636     0.000009979062    12.000000000000
         C            1.377298853985     0.473186544364    -0.000001020938    12.000000000000
         C           -3.749194146015     0.386099544364    -0.000001020938    12.000000000000
         C            3.668081853985    -0.417792455636     0.000003979062    12.000000000000
         H           -1.180389146015     1.979970544364    -0.000019020938     1.007825032230
         H           -2.214029146015    -2.237873455636     0.000026979062     1.007825032230
         H           -4.003510146015     0.979281544364    -0.883263020938     1.007825032230
         H           -4.379932146015    -0.507062455636     0.000009979062     1.007825032230
         H           -4.003513146015     0.979305544364     0.883243979062     1.007825032230
         H            1.830551853985    -1.519899455636    -0.000019020938     1.007825032230
         H            4.117037853985    -0.865736455636    -0.891256020938     1.007825032230
         H            4.117015853985    -0.865712455636     0.891287979062     1.007825032230
         H            3.862270853985     0.654440544364    -0.000007020938     1.007825032230

  Basis Set: AUG-CC-PVTZ
    Blend: AUG-CC-PVTZ
  Basis Set: (AUG-CC-PVTZ AUX)
    Blend: AUG-CC-PVTZ-JKFIT
	 Reference Energy          =    -474.6189738195868699 [Eh]
	 Singles Energy            =      -0.0000000000000000 [Eh]
	 Same-Spin Energy          =      -0.4909931109554321 [Eh]
	 Opposite-Spin Energy      =      -1.5304925076309615 [Eh]
	 Correlation Energy        =      -2.0214856185863934 [Eh]
	 Total Energy              =    -476.6404594381732522 [Eh]

	 ================> DF-SCS-MP2 Energies <==================
	-----------------------------------------------------------
	 SCS Same-Spin Scale       =       0.3333333333333333 [-]
	 SCS Opposite-Spin Scale   =       1.2000000000000000 [-]
	 SCS Same-Spin Energy      =      -0.1636643703184774 [Eh]
	 SCS Opposite-Spin Energy  =      -1.8365910091571536 [Eh]
	 SCS Correlation Energy    =      -2.0002553794756310 [Eh]
	 SCS Total Energy          =    -476.6192291990624881 [Eh]
	-----------------------------------------------------------

  Dipole Moment: [D]
     X:    -1.5364      Y:    -3.0570      Z:    -0.0000     Total:     3.4214

*** Psi4 exiting successfully. Buy a developer a beer!
