                               Psi4 1.4a3.dev225

  ==> Input File <==

--------------------------------------------------------------------------
#psi4
#
memory 32 gb

molecule  {
0 1
  O       -0.4083860    -1.2037120     0.0000020
  O        1.7243640     1.6671510     0.0000140
  N        2.2253870    -0.5811730    -0.0000150
  C       -2.3031430     0.0242890     0.0000050
  C       -0.0581500     0.1228580    -0.0000120
  C       -1.1822370     0.9067590    -0.0000090
  C       -1.7775000    -1.2415930     0.0000090
  C        1.3735220     0.4821180    -0.0000010
  C       -3.7529710     0.3950310    -0.0000010
  C        3.6643050    -0.4088610     0.0000040
  H       -1.1841660     1.9889020    -0.0000190
  H       -2.2178060    -2.2289420     0.0000270
  H       -4.0072870     0.9882130    -0.8832630
  H       -4.3837090    -0.4981310     0.0000100
  H       -4.0072900     0.9882370     0.8832440
  H        1.8346555    -1.4925860    -0.0000189
  H        4.1132610    -0.8568050    -0.8912560
  H        4.1132390    -0.8567810     0.8912880
  H        3.8584940     0.6633720    -0.0000070
units angstrom
no_reorient  #important for SAPT in psi4, default
symmetry c1  #important for SAPT in psi4, default
}

set PROPERTIES_ORIGIN ["COM"]
properties('MP2/aug-cc-pvtz', properties = ['dipole'])
--------------------------------------------------------------------------

    Molecular point group: c1
  Charge       = 0
  Multiplicity = 1
  Basis Set: AUG-CC-PVTZ
    Blend: AUG-CC-PVTZ
  Basis Set: (AUG-CC-PVTZ AUX)
    Blend: AUG-CC-PVTZ-JKFIT

    Orbital Energies [Eh]
    ---------------------

    Doubly Occupied:

       1A    -20.636753     2A    -20.514308     3A    -15.585420
       4A    -11.358493     5A    -11.300944     6A    -11.299025
       7A    -11.258131     8A    -11.250181     9A    -11.246512
      10A    -11.238752    11A     -1.467970    12A     -1.369261
      13A     -1.232009    14A     -1.113121    15A     -1.041080
      16A     -0.973571    17A     -0.941170    18A     -0.841338
      19A     -0.796619    20A     -0.776781    21A     -0.737055
      22A     -0.668460    23A     -0.656083    24A     -0.636489
      25A     -0.617583    26A     -0.596493    27A     -0.591869
      28A     -0.580136    29A     -0.578609    30A     -0.551467
      31A     -0.544351    32A     -0.534219    33A     -0.521806
      34A     -0.432086    35A     -0.399078    36A     -0.389262
      37A     -0.324062

  @DF-RHF Final Energy:  -474.65449468929307

   => Energetics <=

    Nuclear Repulsion Energy =            509.7566269152097220
    One-Electron Energy =               -1657.6211458375453276
    Two-Electron Energy =                 673.2100242330426454
    Total Energy =                       -474.6544946892930739
  Basis Set: (AUG-CC-PVTZ AUX)
    Blend: AUG-CC-PVTZ-RI
    Molecular point group: c1

    Geometry (in Angstrom), charge = 0, multiplicity = 1:

       Center              X                  Y                   Z               Mass
    ------------   -----------------  -----------------  -----------------  -----------------
         O           -0.421917980706    -1.213253996464     0.000002064629    15.994914619570
         O            1.710832019294     1.657609003536     0.000014064629    15.994914619570
         N            2.211855019294    -0.590714996464    -0.000014935371    14.003074004430
         C           -2.316674980706     0.014747003536     0.000005064629    12.000000000000
         C           -0.071681980706     0.113316003536    -0.000011935371    12.000000000000
         C           -1.195768980706     0.897217003536    -0.000008935371    12.000000000000
         C           -1.791031980706    -1.251134996464     0.000009064629    12.000000000000
         C            1.359990019294     0.472576003536    -0.000000935371    12.000000000000
         C           -3.766502980706     0.385489003536    -0.000000935371    12.000000000000
         C            3.650773019294    -0.418402996464     0.000004064629    12.000000000000
         H           -1.197697980706     1.979360003536    -0.000018935371     1.007825032230
         H           -2.231337980706    -2.238483996464     0.000027064629     1.007825032230
         H           -4.020818980706     0.978671003536    -0.883262935371     1.007825032230
         H           -4.397240980706    -0.507672996464     0.000010064629     1.007825032230
         H           -4.020821980706     0.978695003536     0.883244064629     1.007825032230
         H            1.821123519294    -1.502127996464    -0.000018835371     1.007825032230
         H            4.099729019294    -0.866346996464    -0.891255935371     1.007825032230
         H            4.099707019294    -0.866322996464     0.891288064629     1.007825032230
         H            3.844962019294     0.653830003536    -0.000006935371     1.007825032230

  Basis Set: AUG-CC-PVTZ
    Blend: AUG-CC-PVTZ
  Basis Set: (AUG-CC-PVTZ AUX)
    Blend: AUG-CC-PVTZ-JKFIT
	 Reference Energy          =    -474.6544946892930739 [Eh]
	 Singles Energy            =      -0.0000000000000000 [Eh]
	 Same-Spin Energy          =      -0.4906831652746497 [Eh]
	 Opposite-Spin Energy      =      -1.5261188829787173 [Eh]
	 Correlation Energy        =      -2.0168020482533668 [Eh]
	 Total Energy              =    -476.6712967375464132 [Eh]

	 ================> DF-SCS-MP2 Energies <==================
	-----------------------------------------------------------
	 SCS Same-Spin Scale       =       0.3333333333333333 [-]
	 SCS Opposite-Spin Scale   =       1.2000000000000000 [-]
	 SCS Same-Spin Energy      =      -0.1635610550915499 [Eh]
	 SCS Opposite-Spin Energy  =      -1.8313426595744606 [Eh]
	 SCS Correlation Energy    =      -1.9949037146660105 [Eh]
	 SCS Total Energy          =    -476.6493984039590828 [Eh]
	-----------------------------------------------------------

  Dipole Moment: [D]
     X:    -1.2909      Y:    -3.1293      Z:    -0.0000     Total:     3.3851

*** Psi4 exiting successfully. Buy a developer a beer!
