                               Psi4 1.4a3.dev225

  ==> Input File <==

--------------------------------------------------------------------------
#psi4
#
memory 32 gb

molecule  {
0 1
  O       -0.4083860    -1.2037120     0.0000020
  O        1.7243640     1.6671510     0.0000140
  N        2.2253870    -0.5811730    -0.0000150
  C       -2.3031430     0.0242890     0.0000050
  C       -0.0581500     0.1228580    -0.0000120
  C       -1.1822370     0.9067590    -0.0000090
  C       -1.7775000    -1.2415930     0.0000090
  C        1.3735220     0.4821180    -0.0000010
  C       -3.7529710     0.3950310    -0.0000010
  C        3.6643050    -0.4088610     0.0000040
  H       -1.1841660     1.9889020    -0.0000190
  H       -2.2178060    -2.2289420     0.0000270
  H       -4.0072870     0.9882130    -0.8832630
  H       -4.3837090    -0.4981310     0.0000100
  H       -4.0072900     0.9882370     0.8832440
  H        1.8267750    -1.5109680    -0.0000190
  H        4.0927396    -0.8363299    -0.8505173
  H        4.1132390    -0.8567810     0.8912880
  H        3.8584940     0.6633720    -0.0000070
units angstrom
no_reorient  #important for SAPT in psi4, default
symmetry c1  #important for SAPT in psi4, default
}

set PROPERTIES_ORIGIN ["COM"]
properties('MP2/aug-cc-pvtz', properties = ['dipole'])
--------------------------------------------------------------------------

    Molecular point group: c1
  Charge       = 0
  Multiplicity = 1
  Basis Set: AUG-CC-PVTZ
    Blend: AUG-CC-PVTZ
  Basis Set: (AUG-CC-PVTZ AUX)
    Blend: AUG-CC-PVTZ-JKFIT

    Orbital Energies [Eh]
    ---------------------

    Doubly Occupied:

       1A    -20.636582     2A    -20.513827     3A    -15.586526
       4A    -11.358033     5A    -11.300728     6A    -11.298775
       7A    -11.251875     8A    -11.250014     9A    -11.246234
      10A    -11.238626    11A     -1.467795    12A     -1.368646
      13A     -1.229402    14A     -1.112934    15A     -1.041132
      16A     -0.974856    17A     -0.943175    18A     -0.840821
      19A     -0.796412    20A     -0.772722    21A     -0.737291
      22A     -0.668371    23A     -0.656136    24A     -0.636802
      25A     -0.621516    26A     -0.596325    27A     -0.591743
      28A     -0.580115    29A     -0.578443    30A     -0.551615
      31A     -0.544268    32A     -0.535681    33A     -0.521699
      34A     -0.431576    35A     -0.398997    36A     -0.389191
      37A     -0.323851

  @DF-RHF Final Energy:  -474.65309351589144

   => Energetics <=

    Nuclear Repulsion Energy =            509.8837574718702967
    One-Electron Energy =               -1657.8882304178782761
    Two-Electron Energy =                 673.3513794301165944
    Total Energy =                       -474.6530935158914417
  Basis Set: (AUG-CC-PVTZ AUX)
    Blend: AUG-CC-PVTZ-RI
    Molecular point group: c1

    Geometry (in Angstrom), charge = 0, multiplicity = 1:

       Center              X                  Y                   Z               Mass
    ------------   -----------------  -----------------  -----------------  -----------------
         O           -0.421712145378    -1.213269165658    -0.000293177699    15.994914619570
         O            1.711037854622     1.657593834342    -0.000281177699    15.994914619570
         N            2.212060854622    -0.590730165658    -0.000310177699    14.003074004430
         C           -2.316469145378     0.014731834342    -0.000290177699    12.000000000000
         C           -0.071476145378     0.113300834342    -0.000307177699    12.000000000000
         C           -1.195563145378     0.897201834342    -0.000304177699    12.000000000000
         C           -1.790826145378    -1.251150165658    -0.000286177699    12.000000000000
         C            1.360195854622     0.472560834342    -0.000296177699    12.000000000000
         C           -3.766297145378     0.385473834342    -0.000296177699    12.000000000000
         C            3.650978854622    -0.418418165658    -0.000291177699    12.000000000000
         H           -1.197492145378     1.979344834342    -0.000314177699     1.007825032230
         H           -2.231132145378    -2.238499165658    -0.000268177699     1.007825032230
         H           -4.020613145378     0.978655834342    -0.883558177699     1.007825032230
         H           -4.397035145378    -0.507688165658    -0.000285177699     1.007825032230
         H           -4.020616145378     0.978679834342     0.882948822301     1.007825032230
         H            1.813448854622    -1.520525165658    -0.000314177699     1.007825032230
         H            4.079413454622    -0.845887065658    -0.850812477699     1.007825032230
         H            4.099912854622    -0.866338165658     0.890992822301     1.007825032230
         H            3.845167854622     0.653814834342    -0.000302177699     1.007825032230

  Basis Set: AUG-CC-PVTZ
    Blend: AUG-CC-PVTZ
  Basis Set: (AUG-CC-PVTZ AUX)
    Blend: AUG-CC-PVTZ-JKFIT
	 Reference Energy          =    -474.6530935158914417 [Eh]
	 Singles Energy            =      -0.0000000000000000 [Eh]
	 Same-Spin Energy          =      -0.4908627347369915 [Eh]
	 Opposite-Spin Energy      =      -1.5262272503330612 [Eh]
	 Correlation Energy        =      -2.0170899850700525 [Eh]
	 Total Energy              =    -476.6701835009615138 [Eh]

	 ================> DF-SCS-MP2 Energies <==================
	-----------------------------------------------------------
	 SCS Same-Spin Scale       =       0.3333333333333333 [-]
	 SCS Opposite-Spin Scale   =       1.2000000000000000 [-]
	 SCS Same-Spin Energy      =      -0.1636209115789972 [Eh]
	 SCS Opposite-Spin Energy  =      -1.8314727003996734 [Eh]
	 SCS Correlation Energy    =      -1.9950936119786704 [Eh]
	 SCS Total Energy          =    -476.6481871278701306 [Eh]
	-----------------------------------------------------------

  Dipole Moment: [D]
     X:    -1.2624      Y:    -3.1587      Z:    -0.0173     Total:     3.4017

*** Psi4 exiting successfully. Buy a developer a beer!
