                               Psi4 1.4a3.dev225

  ==> Input File <==

--------------------------------------------------------------------------
#psi4
#
memory 32 gb

molecule  {
0 1
  O       -0.4083860    -1.2037120     0.0000020
  O        1.7243640     1.6671510     0.0000140
  N        2.2253870    -0.5811730    -0.0000150
  C       -2.3031430     0.0242890     0.0000050
  C       -0.0581500     0.1228580    -0.0000120
  C       -1.1822370     0.9067590    -0.0000090
  C       -1.7775000    -1.2415930     0.0000090
  C        1.3735220     0.4821180    -0.0000010
  C       -3.7529710     0.3950310    -0.0000010
  C        3.8628862    -0.3850807     0.0000066
  H       -1.1841660     1.9889020    -0.0000190
  H       -2.2178060    -2.2289420     0.0000270
  H       -4.0072870     0.9882130    -0.8832630
  H       -4.3837090    -0.4981310     0.0000100
  H       -4.0072900     0.9882370     0.8832440
  H        1.8267750    -1.5109680    -0.0000190
  H        4.1132610    -0.8568050    -0.8912560
  H        4.1132390    -0.8567810     0.8912880
  H        3.8584940     0.6633720    -0.0000070
units angstrom
no_reorient  #important for SAPT in psi4, default
symmetry c1  #important for SAPT in psi4, default
}

set PROPERTIES_ORIGIN ["COM"]
properties('MP2/aug-cc-pvtz', properties = ['dipole'])
--------------------------------------------------------------------------

    Molecular point group: c1
  Charge       = 0
  Multiplicity = 1
  Basis Set: AUG-CC-PVTZ
    Blend: AUG-CC-PVTZ
  Basis Set: (AUG-CC-PVTZ AUX)
    Blend: AUG-CC-PVTZ-JKFIT

    Orbital Energies [Eh]
    ---------------------

    Doubly Occupied:

       1A    -20.632332     2A    -20.507268     3A    -15.577982
       4A    -11.351251     5A    -11.296850     6A    -11.294633
       7A    -11.269511     8A    -11.246581     9A    -11.241874
      10A    -11.236159    11A     -1.463472    12A     -1.359992
      13A     -1.194858    14A     -1.109221    15A     -1.033805
      16A     -0.973883    17A     -0.946930    18A     -0.838431
      19A     -0.792471    20A     -0.756925    21A     -0.731216
      22A     -0.663247    23A     -0.651763    24A     -0.633783
      25A     -0.608657    26A     -0.597967    27A     -0.591197
      28A     -0.578058    29A     -0.569489    30A     -0.560329
      31A     -0.543528    32A     -0.531785    33A     -0.516208
      34A     -0.423851    35A     -0.395962    36A     -0.386062
      37A     -0.320027

  @DF-RHF Final Energy:  -474.62653427611252

   => Energetics <=

    Nuclear Repulsion Energy =            506.1871278369886795
    One-Electron Energy =               -1650.7722123178918991
    Two-Electron Energy =                 669.9585502047908676
    Total Energy =                       -474.6265342761124657
  Basis Set: (AUG-CC-PVTZ AUX)
    Blend: AUG-CC-PVTZ-RI
    Molecular point group: c1

    Geometry (in Angstrom), charge = 0, multiplicity = 1:

       Center              X                  Y                   Z               Mass
    ------------   -----------------  -----------------  -----------------  -----------------
         O           -0.438996762437    -1.215172818364     0.000001840996    15.994914619570
         O            1.693753237563     1.655690181636     0.000013840996    15.994914619570
         N            2.194776237563    -0.592633818364    -0.000015159004    14.003074004430
         C           -2.333753762437     0.012828181636     0.000004840996    12.000000000000
         C           -0.088760762437     0.111397181636    -0.000012159004    12.000000000000
         C           -1.212847762437     0.895298181636    -0.000009159004    12.000000000000
         C           -1.808110762437    -1.253053818364     0.000008840996    12.000000000000
         C            1.342911237563     0.470657181636    -0.000001159004    12.000000000000
         C           -3.783581762437     0.383570181636    -0.000001159004    12.000000000000
         C            3.832275437563    -0.396541518364     0.000006440996    12.000000000000
         H           -1.214776762437     1.977441181636    -0.000019159004     1.007825032230
         H           -2.248416762437    -2.240402818364     0.000026840996     1.007825032230
         H           -4.037897762437     0.976752181636    -0.883263159004     1.007825032230
         H           -4.414319762437    -0.509591818364     0.000009840996     1.007825032230
         H           -4.037900762437     0.976776181636     0.883243840996     1.007825032230
         H            1.796164237563    -1.522428818364    -0.000019159004     1.007825032230
         H            4.082650237563    -0.868265818364    -0.891256159004     1.007825032230
         H            4.082628237563    -0.868241818364     0.891287840996     1.007825032230
         H            3.827883237563     0.651911181636    -0.000007159004     1.007825032230

  Basis Set: AUG-CC-PVTZ
    Blend: AUG-CC-PVTZ
  Basis Set: (AUG-CC-PVTZ AUX)
    Blend: AUG-CC-PVTZ-JKFIT
	 Reference Energy          =    -474.6265342761125225 [Eh]
	 Singles Energy            =      -0.0000000000000000 [Eh]
	 Same-Spin Energy          =      -0.4907232575609995 [Eh]
	 Opposite-Spin Energy      =      -1.5282969740881622 [Eh]
	 Correlation Energy        =      -2.0190202316491619 [Eh]
	 Total Energy              =    -476.6455545077616875 [Eh]

	 ================> DF-SCS-MP2 Energies <==================
	-----------------------------------------------------------
	 SCS Same-Spin Scale       =       0.3333333333333333 [-]
	 SCS Opposite-Spin Scale   =       1.2000000000000000 [-]
	 SCS Same-Spin Energy      =      -0.1635744191869998 [Eh]
	 SCS Opposite-Spin Energy  =      -1.8339563689057945 [Eh]
	 SCS Correlation Energy    =      -1.9975307880927944 [Eh]
	 SCS Total Energy          =    -476.6240650642052969 [Eh]
	-----------------------------------------------------------

  Dipole Moment: [D]
     X:    -0.6823      Y:    -3.2349      Z:    -0.0000     Total:     3.3061

*** Psi4 exiting successfully. Buy a developer a beer!
