                               Psi4 1.4a3.dev225

  ==> Input File <==

--------------------------------------------------------------------------
#psi4
#
memory 32 gb

molecule  {
0 1
  O       -0.4083860    -1.2037120     0.0000020
  O        1.7243640     1.6671510     0.0000140
  N        2.2253870    -0.5811730    -0.0000150
  C       -2.3031430     0.0242890     0.0000050
  C       -0.0581500     0.1228580    -0.0000120
  C       -1.1822370     0.9067590    -0.0000090
  C       -1.7775000    -1.2415930     0.0000090
  C        1.3735220     0.4821180    -0.0000010
  C       -3.7529710     0.3950310    -0.0000010
  C        3.6643050    -0.4088610     0.0000040
  H       -1.1841660     1.9889020    -0.0000190
  H       -2.2178060    -2.2289420     0.0000270
  H       -4.0072870     0.9882130    -0.8832630
  H       -4.3837090    -0.4981310     0.0000100
  H       -4.0072900     0.9882370     0.8832440
  H        1.8267750    -1.5109680    -0.0000190
  H        4.1953465    -0.9387055    -1.0542108
  H        4.1132390    -0.8567810     0.8912880
  H        3.8584940     0.6633720    -0.0000070
units angstrom
no_reorient  #important for SAPT in psi4, default
symmetry c1  #important for SAPT in psi4, default
}

set PROPERTIES_ORIGIN ["COM"]
properties('MP2/aug-cc-pvtz', properties = ['dipole'])
--------------------------------------------------------------------------

    Molecular point group: c1
  Charge       = 0
  Multiplicity = 1
  Basis Set: AUG-CC-PVTZ
    Blend: AUG-CC-PVTZ
  Basis Set: (AUG-CC-PVTZ AUX)
    Blend: AUG-CC-PVTZ-JKFIT

    Orbital Energies [Eh]
    ---------------------

    Doubly Occupied:

       1A    -20.637802     2A    -20.516128     3A    -15.590589
       4A    -11.360418     5A    -11.301933     6A    -11.300146
       7A    -11.281074     8A    -11.251061     9A    -11.247653
      10A    -11.239383    11A     -1.469040    12A     -1.370929
      13A     -1.231378    14A     -1.114060    15A     -1.041491
      16A     -0.971328    17A     -0.934603    18A     -0.837956
      19A     -0.797622    20A     -0.775135    21A     -0.736950
      22A     -0.668576    23A     -0.656638    24A     -0.636991
      25A     -0.606495    26A     -0.597310    27A     -0.589129
      28A     -0.580382    29A     -0.579273    30A     -0.551823
      31A     -0.543718    32A     -0.524095    33A     -0.514976
      34A     -0.433760    35A     -0.399065    36A     -0.387330
      37A     -0.324941

  @DF-RHF Final Energy:  -474.63412600620734

   => Energetics <=

    Nuclear Repulsion Energy =            508.8420072216931658
    One-Electron Energy =               -1655.7499012975520145
    Two-Electron Energy =                 672.2737680696515099
    Total Energy =                       -474.6341260062073388
  Basis Set: (AUG-CC-PVTZ AUX)
    Blend: AUG-CC-PVTZ-RI
    Molecular point group: c1

    Geometry (in Angstrom), charge = 0, multiplicity = 1:

       Center              X                  Y                   Z               Mass
    ------------   -----------------  -----------------  -----------------  -----------------
         O           -0.422455761998    -1.212527225324     0.001183037565    15.994914619570
         O            1.710294238002     1.658335774676     0.001195037565    15.994914619570
         N            2.211317238002    -0.589988225324     0.001166037565    14.003074004430
         C           -2.317212761998     0.015473774676     0.001186037565    12.000000000000
         C           -0.072219761998     0.114042774676     0.001169037565    12.000000000000
         C           -1.196306761998     0.897943774676     0.001172037565    12.000000000000
         C           -1.791569761998    -1.250408225324     0.001190037565    12.000000000000
         C            1.359452238002     0.473302774676     0.001180037565    12.000000000000
         C           -3.767040761998     0.386215774676     0.001180037565    12.000000000000
         C            3.650235238002    -0.417676225324     0.001185037565    12.000000000000
         H           -1.198235761998     1.980086774676     0.001162037565     1.007825032230
         H           -2.231875761998    -2.237757225324     0.001208037565     1.007825032230
         H           -4.021356761998     0.979397774676    -0.882081962435     1.007825032230
         H           -4.397778761998    -0.506946225324     0.001191037565     1.007825032230
         H           -4.021359761998     0.979421774676     0.884425037565     1.007825032230
         H            1.812705238002    -1.519783225324     0.001162037565     1.007825032230
         H            4.181276738002    -0.947520725324    -1.053029762435     1.007825032230
         H            4.099169238002    -0.865596225324     0.892469037565     1.007825032230
         H            3.844424238002     0.654556774676     0.001174037565     1.007825032230

  Basis Set: AUG-CC-PVTZ
    Blend: AUG-CC-PVTZ
  Basis Set: (AUG-CC-PVTZ AUX)
    Blend: AUG-CC-PVTZ-JKFIT
	 Reference Energy          =    -474.6341260062073388 [Eh]
	 Singles Energy            =      -0.0000000000000000 [Eh]
	 Same-Spin Energy          =      -0.4908296514444976 [Eh]
	 Opposite-Spin Energy      =      -1.5279876925378904 [Eh]
	 Correlation Energy        =      -2.0188173439823878 [Eh]
	 Total Energy              =    -476.6529433501897302 [Eh]

	 ================> DF-SCS-MP2 Energies <==================
	-----------------------------------------------------------
	 SCS Same-Spin Scale       =       0.3333333333333333 [-]
	 SCS Opposite-Spin Scale   =       1.2000000000000000 [-]
	 SCS Same-Spin Energy      =      -0.1636098838148325 [Eh]
	 SCS Opposite-Spin Energy  =      -1.8335852310454683 [Eh]
	 SCS Correlation Energy    =      -1.9971951148603009 [Eh]
	 SCS Total Energy          =    -476.6313211210676286 [Eh]
	-----------------------------------------------------------

  Dipole Moment: [D]
     X:    -1.4725      Y:    -3.0770      Z:     0.1058     Total:     3.4128

*** Psi4 exiting successfully. Buy a developer a beer!
