                               Psi4 1.4a3.dev225

  ==> Input File <==

--------------------------------------------------------------------------
#psi4
#
memory 32 gb

molecule  {
0 1
  O       -0.4083860    -1.2037120     0.0000020
  O        1.7243640     1.6671510     0.0000140
  N        2.2253870    -0.5811730    -0.0000150
  C       -2.3031430     0.0242890     0.0000050
  C       -0.0581500     0.1228580    -0.0000120
  C       -1.1822370     0.9067590    -0.0000090
  C       -1.7775000    -1.2415930     0.0000090
  C        1.3735220     0.4821180    -0.0000010
  C       -3.7529710     0.3950310    -0.0000010
  C        3.6444469    -0.4112390     0.0000037
  H       -1.1841660     1.9889020    -0.0000190
  H       -2.2178060    -2.2289420     0.0000270
  H       -4.0072870     0.9882130    -0.8832630
  H       -4.3837090    -0.4981310     0.0000100
  H       -4.0072900     0.9882370     0.8832440
  H        1.8267750    -1.5109680    -0.0000190
  H        4.1132610    -0.8568050    -0.8912560
  H        4.1132390    -0.8567810     0.8912880
  H        3.8584940     0.6633720    -0.0000070
units angstrom
no_reorient  #important for SAPT in psi4, default
symmetry c1  #important for SAPT in psi4, default
}

set PROPERTIES_ORIGIN ["COM"]
properties('MP2/aug-cc-pvtz', properties = ['dipole'])
--------------------------------------------------------------------------

    Molecular point group: c1
  Charge       = 0
  Multiplicity = 1
  Basis Set: AUG-CC-PVTZ
    Blend: AUG-CC-PVTZ
  Basis Set: (AUG-CC-PVTZ AUX)
    Blend: AUG-CC-PVTZ-JKFIT

    Orbital Energies [Eh]
    ---------------------

    Doubly Occupied:

       1A    -20.637205     2A    -20.514927     3A    -15.587725
       4A    -11.359085     5A    -11.301313     6A    -11.299414
       7A    -11.257743     8A    -11.250529     9A    -11.246899
      10A    -11.238996    11A     -1.468433    12A     -1.370088
      13A     -1.234058    14A     -1.113489    15A     -1.041839
      16A     -0.973773    17A     -0.940282    18A     -0.839757
      19A     -0.797006    20A     -0.774978    21A     -0.737658
      22A     -0.668790    23A     -0.656601    24A     -0.640491
      25A     -0.617089    26A     -0.596909    27A     -0.592974
      28A     -0.580327    29A     -0.578996    30A     -0.551825
      31A     -0.539434    32A     -0.532291    33A     -0.521702
      34A     -0.432718    35A     -0.399075    36A     -0.388657
      37A     -0.324380

  @DF-RHF Final Energy:  -474.65356002217055

   => Energetics <=

    Nuclear Repulsion Energy =            510.0225378404207959
    One-Electron Energy =               -1658.1372801847924165
    Two-Electron Energy =                 673.4611823222012390
    Total Energy =                       -474.6535600221704954
  Basis Set: (AUG-CC-PVTZ AUX)
    Blend: AUG-CC-PVTZ-RI
    Molecular point group: c1

    Geometry (in Angstrom), charge = 0, multiplicity = 1:

       Center              X                  Y                   Z               Mass
    ------------   -----------------  -----------------  -----------------  -----------------
         O           -0.420147281214    -1.212915576262     0.000002091242    15.994914619570
         O            1.712602718786     1.657947423738     0.000014091242    15.994914619570
         N            2.213625718786    -0.590376576262    -0.000014908758    14.003074004430
         C           -2.314904281214     0.015085423738     0.000005091242    12.000000000000
         C           -0.069911281214     0.113654423738    -0.000011908758    12.000000000000
         C           -1.193998281214     0.897555423738    -0.000008908758    12.000000000000
         C           -1.789261281214    -1.250796576262     0.000009091242    12.000000000000
         C            1.361760718786     0.472914423738    -0.000000908758    12.000000000000
         C           -3.764732281214     0.385827423738    -0.000000908758    12.000000000000
         C            3.632685618786    -0.420442576262     0.000003791242    12.000000000000
         H           -1.195927281214     1.979698423738    -0.000018908758     1.007825032230
         H           -2.229567281214    -2.238145576262     0.000027091242     1.007825032230
         H           -4.019048281214     0.979009423738    -0.883262908758     1.007825032230
         H           -4.395470281214    -0.507334576262     0.000010091242     1.007825032230
         H           -4.019051281214     0.979033423738     0.883244091242     1.007825032230
         H            1.815013718786    -1.520171576262    -0.000018908758     1.007825032230
         H            4.101499718786    -0.866008576262    -0.891255908758     1.007825032230
         H            4.101477718786    -0.865984576262     0.891288091242     1.007825032230
         H            3.846732718786     0.654168423738    -0.000006908758     1.007825032230

  Basis Set: AUG-CC-PVTZ
    Blend: AUG-CC-PVTZ
  Basis Set: (AUG-CC-PVTZ AUX)
    Blend: AUG-CC-PVTZ-JKFIT
	 Reference Energy          =    -474.6535600221705522 [Eh]
	 Singles Energy            =      -0.0000000000000000 [Eh]
	 Same-Spin Energy          =      -0.4909863350764609 [Eh]
	 Opposite-Spin Energy      =      -1.5265178445940064 [Eh]
	 Correlation Energy        =      -2.0175041796704671 [Eh]
	 Total Energy              =    -476.6710642018410340 [Eh]

	 ================> DF-SCS-MP2 Energies <==================
	-----------------------------------------------------------
	 SCS Same-Spin Scale       =       0.3333333333333333 [-]
	 SCS Opposite-Spin Scale   =       1.2000000000000000 [-]
	 SCS Same-Spin Energy      =      -0.1636621116921536 [Eh]
	 SCS Opposite-Spin Energy  =      -1.8318214135128077 [Eh]
	 SCS Correlation Energy    =      -1.9954835252049614 [Eh]
	 SCS Total Energy          =    -476.6490435473755269 [Eh]
	-----------------------------------------------------------

  Dipole Moment: [D]
     X:    -1.3624      Y:    -3.1349      Z:    -0.0000     Total:     3.4182

*** Psi4 exiting successfully. Buy a developer a beer!
