                               Psi4 1.4a3.dev225

  ==> Input File <==

--------------------------------------------------------------------------
#psi4
#
memory 32 gb

molecule  {
0 1
  O       -0.4083860    -1.2037120     0.0000020
  O        1.7243640     1.6671510     0.0000140
  N        2.2253870    -0.5811730    -0.0000150
  C       -2.3031430     0.0242890     0.0000050
  C       -0.0581500     0.1228580    -0.0000120
  C       -1.1822370     0.9067590    -0.0000090
  C       -1.7775000    -1.2415930     0.0000090
  C        1.3860269     0.4665095    -0.0000012
  C       -3.7529710     0.3950310    -0.0000010
  C        3.6643050    -0.4088610     0.0000040
  H       -1.1841660     1.9889020    -0.0000190
  H       -2.2178060    -2.2289420     0.0000270
  H       -4.0072870     0.9882130    -0.8832630
  H       -4.3837090    -0.4981310     0.0000100
  H       -4.0072900     0.9882370     0.8832440
  H        1.8267750    -1.5109680    -0.0000190
  H        4.1132610    -0.8568050    -0.8912560
  H        4.1132390    -0.8567810     0.8912880
  H        3.8584940     0.6633720    -0.0000070
units angstrom
no_reorient  #important for SAPT in psi4, default
symmetry c1  #important for SAPT in psi4, default
}

set PROPERTIES_ORIGIN ["COM"]
properties('MP2/aug-cc-pvtz', properties = ['dipole'])
--------------------------------------------------------------------------

    Molecular point group: c1
  Charge       = 0
  Multiplicity = 1
  Basis Set: AUG-CC-PVTZ
    Blend: AUG-CC-PVTZ
  Basis Set: (AUG-CC-PVTZ AUX)
    Blend: AUG-CC-PVTZ-JKFIT

    Orbital Energies [Eh]
    ---------------------

    Doubly Occupied:

       1A    -20.635918     2A    -20.510895     3A    -15.591311
       4A    -11.358019     5A    -11.299769     6A    -11.299049
       7A    -11.260392     8A    -11.249505     9A    -11.245359
      10A    -11.238215    11A     -1.467345    12A     -1.362758
      13A     -1.235771    14A     -1.112223    15A     -1.039422
      16A     -0.974769    17A     -0.943117    18A     -0.838202
      19A     -0.795378    20A     -0.778166    21A     -0.736994
      22A     -0.667081    23A     -0.655709    24A     -0.637909
      25A     -0.620293    26A     -0.595790    27A     -0.586443
      28A     -0.579592    29A     -0.577996    30A     -0.551197
      31A     -0.545028    32A     -0.532438    33A     -0.521289
      34A     -0.429081    35A     -0.399232    36A     -0.389473
      37A     -0.323096

  @DF-RHF Final Energy:  -474.65308124486097

   => Energetics <=

    Nuclear Repulsion Energy =            509.6412405765391327
    One-Electron Energy =               -1657.4201971010122634
    Two-Electron Energy =                 673.1258752796122735
    Total Energy =                       -474.6530812448609140
  Basis Set: (AUG-CC-PVTZ AUX)
    Blend: AUG-CC-PVTZ-RI
    Molecular point group: c1

    Geometry (in Angstrom), charge = 0, multiplicity = 1:

       Center              X                  Y                   Z               Mass
    ------------   -----------------  -----------------  -----------------  -----------------
         O           -0.422939936935    -1.211773894974     0.000002082612    15.994914619570
         O            1.709810063065     1.659089105026     0.000014082612    15.994914619570
         N            2.210833063065    -0.589234894974    -0.000014917388    14.003074004430
         C           -2.317696936935     0.016227105026     0.000005082612    12.000000000000
         C           -0.072703936935     0.114796105026    -0.000011917388    12.000000000000
         C           -1.196790936935     0.898697105026    -0.000008917388    12.000000000000
         C           -1.792053936935    -1.249654894974     0.000009082612    12.000000000000
         C            1.371472963065     0.458447605026    -0.000001117388    12.000000000000
         C           -3.767524936935     0.386969105026    -0.000000917388    12.000000000000
         C            3.649751063065    -0.416922894974     0.000004082612    12.000000000000
         H           -1.198719936935     1.980840105026    -0.000018917388     1.007825032230
         H           -2.232359936935    -2.237003894974     0.000027082612     1.007825032230
         H           -4.021840936935     0.980151105026    -0.883262917388     1.007825032230
         H           -4.398262936935    -0.506192894974     0.000010082612     1.007825032230
         H           -4.021843936935     0.980175105026     0.883244082612     1.007825032230
         H            1.812221063065    -1.519029894974    -0.000018917388     1.007825032230
         H            4.098707063065    -0.864866894974    -0.891255917388     1.007825032230
         H            4.098685063065    -0.864842894974     0.891288082612     1.007825032230
         H            3.843940063065     0.655310105026    -0.000006917388     1.007825032230

  Basis Set: AUG-CC-PVTZ
    Blend: AUG-CC-PVTZ
  Basis Set: (AUG-CC-PVTZ AUX)
    Blend: AUG-CC-PVTZ-JKFIT
	 Reference Energy          =    -474.6530812448609709 [Eh]
	 Singles Energy            =      -0.0000000000000000 [Eh]
	 Same-Spin Energy          =      -0.4909464172527723 [Eh]
	 Opposite-Spin Energy      =      -1.5266847526849319 [Eh]
	 Correlation Energy        =      -2.0176311699377041 [Eh]
	 Total Energy              =    -476.6707124147986860 [Eh]

	 ================> DF-SCS-MP2 Energies <==================
	-----------------------------------------------------------
	 SCS Same-Spin Scale       =       0.3333333333333333 [-]
	 SCS Opposite-Spin Scale   =       1.2000000000000000 [-]
	 SCS Same-Spin Energy      =      -0.1636488057509241 [Eh]
	 SCS Opposite-Spin Energy  =      -1.8320217032219182 [Eh]
	 SCS Correlation Energy    =      -1.9956705089728421 [Eh]
	 SCS Total Energy          =    -476.6487517538338352 [Eh]
	-----------------------------------------------------------

  Dipole Moment: [D]
     X:    -1.1546      Y:    -3.2742      Z:    -0.0000     Total:     3.4718

*** Psi4 exiting successfully. Buy a developer a beer!
