                               Psi4 1.4a3.dev225

  ==> Input File <==

--------------------------------------------------------------------------
#psi4
#
memory 32 gb

molecule  {
0 1
  O       -0.4083860    -1.2037120     0.0000020
  O        1.7243640     1.6671510     0.0000140
  N        2.2253870    -0.5811730    -0.0000150
  C       -2.2047593    -0.0880433     0.0000050
  C       -0.0581500     0.1228580    -0.0000120
  C       -1.1822370     0.9067590    -0.0000090
  C       -1.7775000    -1.2415930     0.0000090
  C        1.3735220     0.4821180    -0.0000010
  C       -3.7529710     0.3950310    -0.0000010
  C        3.6643050    -0.4088610     0.0000040
  H       -1.1841660     1.9889020    -0.0000190
  H       -2.2178060    -2.2289420     0.0000270
  H       -4.0072870     0.9882130    -0.8832630
  H       -4.3837090    -0.4981310     0.0000100
  H       -4.0072900     0.9882370     0.8832440
  H        1.8267750    -1.5109680    -0.0000190
  H        4.1132610    -0.8568050    -0.8912560
  H        4.1132390    -0.8567810     0.8912880
  H        3.8584940     0.6633720    -0.0000070
units angstrom
no_reorient  #important for SAPT in psi4, default
symmetry c1  #important for SAPT in psi4, default
}

set PROPERTIES_ORIGIN ["COM"]
properties('MP2/aug-cc-pvtz', properties = ['dipole'])
--------------------------------------------------------------------------

    Molecular point group: c1
  Charge       = 0
  Multiplicity = 1
  Basis Set: AUG-CC-PVTZ
    Blend: AUG-CC-PVTZ
  Basis Set: (AUG-CC-PVTZ AUX)
    Blend: AUG-CC-PVTZ-JKFIT

    Orbital Energies [Eh]
    ---------------------

    Doubly Occupied:

       1A    -20.625753     2A    -20.516046     3A    -15.588062
       4A    -11.358925     5A    -11.301113     6A    -11.278334
       7A    -11.258555     8A    -11.245010     9A    -11.241760
      10A    -11.234607    11A     -1.468940    12A     -1.370406
      13A     -1.230495    14A     -1.120360    15A     -1.046958
      16A     -0.963642    17A     -0.943168    18A     -0.847284
      19A     -0.802071    20A     -0.773516    21A     -0.726139
      22A     -0.670208    23A     -0.659206    24A     -0.635800
      25A     -0.618429    26A     -0.606895    27A     -0.589039
      28A     -0.576746    29A     -0.569825    30A     -0.548964
      31A     -0.537022    32A     -0.535260    33A     -0.497041
      34A     -0.433000    35A     -0.410441    36A     -0.390239
      37A     -0.341766

  @DF-RHF Final Energy:  -474.62602505512524

   => Energetics <=

    Nuclear Repulsion Energy =            511.6008724690416898
    One-Electron Energy =               -1661.3317449907406171
    Two-Electron Energy =                 675.1048474665738013
    Total Energy =                       -474.6260250551251829
  Basis Set: (AUG-CC-PVTZ AUX)
    Blend: AUG-CC-PVTZ-RI
    Molecular point group: c1

    Geometry (in Angstrom), charge = 0, multiplicity = 1:

       Center              X                  Y                   Z               Mass
    ------------   -----------------  -----------------  -----------------  -----------------
         O           -0.430350557771    -1.203427441511     0.000002065354    15.994914619570
         O            1.702399442229     1.667435558489     0.000014065354    15.994914619570
         N            2.203422442229    -0.580888441511    -0.000014934646    14.003074004430
         C           -2.226723857771    -0.087758741511     0.000005065354    12.000000000000
         C           -0.080114557771     0.123142558489    -0.000011934646    12.000000000000
         C           -1.204201557771     0.907043558489    -0.000008934646    12.000000000000
         C           -1.799464557771    -1.241308441511     0.000009065354    12.000000000000
         C            1.351557442229     0.482402558489    -0.000000934646    12.000000000000
         C           -3.774935557771     0.395315558489    -0.000000934646    12.000000000000
         C            3.642340442229    -0.408576441511     0.000004065354    12.000000000000
         H           -1.206130557771     1.989186558489    -0.000018934646     1.007825032230
         H           -2.239770557771    -2.228657441511     0.000027065354     1.007825032230
         H           -4.029251557771     0.988497558489    -0.883262934646     1.007825032230
         H           -4.405673557771    -0.497846441511     0.000010065354     1.007825032230
         H           -4.029254557771     0.988521558489     0.883244065354     1.007825032230
         H            1.804810442229    -1.510683441511    -0.000018934646     1.007825032230
         H            4.091296442229    -0.856520441511    -0.891255934646     1.007825032230
         H            4.091274442229    -0.856496441511     0.891288065354     1.007825032230
         H            3.836529442229     0.663656558489    -0.000006934646     1.007825032230

  Basis Set: AUG-CC-PVTZ
    Blend: AUG-CC-PVTZ
  Basis Set: (AUG-CC-PVTZ AUX)
    Blend: AUG-CC-PVTZ-JKFIT
	 Reference Energy          =    -474.6260250551252398 [Eh]
	 Singles Energy            =      -0.0000000000000000 [Eh]
	 Same-Spin Energy          =      -0.4885785366282539 [Eh]
	 Opposite-Spin Energy      =      -1.5233556394215539 [Eh]
	 Correlation Energy        =      -2.0119341760498077 [Eh]
	 Total Energy              =    -476.6379592311750457 [Eh]

	 ================> DF-SCS-MP2 Energies <==================
	-----------------------------------------------------------
	 SCS Same-Spin Scale       =       0.3333333333333333 [-]
	 SCS Opposite-Spin Scale   =       1.2000000000000000 [-]
	 SCS Same-Spin Energy      =      -0.1628595122094180 [Eh]
	 SCS Opposite-Spin Energy  =      -1.8280267673058646 [Eh]
	 SCS Correlation Energy    =      -1.9908862795152824 [Eh]
	 SCS Total Energy          =    -476.6169113346405197 [Eh]
	-----------------------------------------------------------

  Dipole Moment: [D]
     X:    -1.1246      Y:    -3.1473      Z:    -0.0000     Total:     3.3422

*** Psi4 exiting successfully. Buy a developer a beer!
