                               Psi4 1.4a3.dev225

  ==> Input File <==

--------------------------------------------------------------------------
#psi4
#
memory 32 gb

molecule  {
0 1
  O       -0.4083860    -1.2037120     0.0000020
  O        1.7243640     1.6671510     0.0000140
  N        2.2253870    -0.5811730    -0.0000150
  C       -2.3031430     0.0242890     0.0000050
  C       -0.0581500     0.1228580    -0.0000120
  C       -1.1822370     0.9067590    -0.0000090
  C       -1.7775000    -1.2415930     0.0000090
  C        1.4360466     0.4040753    -0.0000020
  C       -3.7529710     0.3950310    -0.0000010
  C        3.6643050    -0.4088610     0.0000040
  H       -1.1841660     1.9889020    -0.0000190
  H       -2.2178060    -2.2289420     0.0000270
  H       -4.0072870     0.9882130    -0.8832630
  H       -4.3837090    -0.4981310     0.0000100
  H       -4.0072900     0.9882370     0.8832440
  H        1.8267750    -1.5109680    -0.0000190
  H        4.1132610    -0.8568050    -0.8912560
  H        4.1132390    -0.8567810     0.8912880
  H        3.8584940     0.6633720    -0.0000070
units angstrom
no_reorient  #important for SAPT in psi4, default
symmetry c1  #important for SAPT in psi4, default
}

set PROPERTIES_ORIGIN ["COM"]
properties('MP2/aug-cc-pvtz', properties = ['dipole'])
--------------------------------------------------------------------------

    Molecular point group: c1
  Charge       = 0
  Multiplicity = 1
  Basis Set: AUG-CC-PVTZ
    Blend: AUG-CC-PVTZ
  Basis Set: (AUG-CC-PVTZ AUX)
    Blend: AUG-CC-PVTZ-JKFIT

    Orbital Energies [Eh]
    ---------------------

    Doubly Occupied:

       1A    -20.632688     2A    -20.497318     3A    -15.607227
       4A    -11.355450     5A    -11.299757     6A    -11.295378
       7A    -11.269864     8A    -11.246942     9A    -11.241166
      10A    -11.236186    11A     -1.464970    12A     -1.351088
      13A     -1.250767    14A     -1.108915    15A     -1.034261
      16A     -0.983830    17A     -0.948947    18A     -0.833519
      19A     -0.801082    20A     -0.787577    21A     -0.736711
      22A     -0.666024    23A     -0.656686    24A     -0.644695
      25A     -0.631657    26A     -0.593070    27A     -0.577510
      28A     -0.576111    29A     -0.566762    30A     -0.555628
      31A     -0.543170    32A     -0.531040    33A     -0.518572
      34A     -0.414969    35A     -0.400571    36A     -0.387675
      37A     -0.319436

  @DF-RHF Final Energy:  -474.63714828103690

   => Energetics <=

    Nuclear Repulsion Energy =            509.6778387706207809
    One-Electron Energy =               -1657.4955320828541971
    Two-Electron Energy =                 673.1805450311965160
    Total Energy =                       -474.6371482810368434
  Basis Set: (AUG-CC-PVTZ AUX)
    Blend: AUG-CC-PVTZ-RI
    Molecular point group: c1

    Geometry (in Angstrom), charge = 0, multiplicity = 1:

       Center              X                  Y                   Z               Mass
    ------------   -----------------  -----------------  -----------------  -----------------
         O           -0.427256217915    -1.206386346669     0.000002151646    15.994914619570
         O            1.705493782085     1.664476653331     0.000014151646    15.994914619570
         N            2.206516782085    -0.583847346669    -0.000014848354    14.003074004430
         C           -2.322013217915     0.021614653331     0.000005151646    12.000000000000
         C           -0.077020217915     0.120183653331    -0.000011848354    12.000000000000
         C           -1.201107217915     0.904084653331    -0.000008848354    12.000000000000
         C           -1.796370217915    -1.244267346669     0.000009151646    12.000000000000
         C            1.417176382085     0.401400953331    -0.000001848354    12.000000000000
         C           -3.771841217915     0.392356653331    -0.000000848354    12.000000000000
         C            3.645434782085    -0.411535346669     0.000004151646    12.000000000000
         H           -1.203036217915     1.986227653331    -0.000018848354     1.007825032230
         H           -2.236676217915    -2.231616346669     0.000027151646     1.007825032230
         H           -4.026157217915     0.985538653331    -0.883262848354     1.007825032230
         H           -4.402579217915    -0.500805346669     0.000010151646     1.007825032230
         H           -4.026160217915     0.985562653331     0.883244151646     1.007825032230
         H            1.807904782085    -1.513642346669    -0.000018848354     1.007825032230
         H            4.094390782085    -0.859479346669    -0.891255848354     1.007825032230
         H            4.094368782085    -0.859455346669     0.891288151646     1.007825032230
         H            3.839623782085     0.660697653331    -0.000006848354     1.007825032230

  Basis Set: AUG-CC-PVTZ
    Blend: AUG-CC-PVTZ
  Basis Set: (AUG-CC-PVTZ AUX)
    Blend: AUG-CC-PVTZ-JKFIT
	 Reference Energy          =    -474.6371482810369002 [Eh]
	 Singles Energy            =      -0.0000000000000000 [Eh]
	 Same-Spin Energy          =      -0.4913986199924499 [Eh]
	 Opposite-Spin Energy      =      -1.5275869006492480 [Eh]
	 Correlation Energy        =      -2.0189855206416980 [Eh]
	 Total Energy              =    -476.6561338016786067 [Eh]

	 ================> DF-SCS-MP2 Energies <==================
	-----------------------------------------------------------
	 SCS Same-Spin Scale       =       0.3333333333333333 [-]
	 SCS Opposite-Spin Scale   =       1.2000000000000000 [-]
	 SCS Same-Spin Energy      =      -0.1637995399974833 [Eh]
	 SCS Opposite-Spin Energy  =      -1.8331042807790974 [Eh]
	 SCS Correlation Energy    =      -1.9969038207765806 [Eh]
	 SCS Total Energy          =    -476.6340521018134950 [Eh]
	-----------------------------------------------------------

  Dipole Moment: [D]
     X:    -0.6311      Y:    -3.7837      Z:    -0.0000     Total:     3.8360

*** Psi4 exiting successfully. Buy a developer a beer!
