                               Psi4 1.4a3.dev225

  ==> Input File <==

--------------------------------------------------------------------------
#psi4
#
memory 32 gb

molecule  {
0 1
  O       -0.4083860    -1.2037120     0.0000020
  O        1.7243640     1.6671510     0.0000140
  N        2.2253870    -0.5811730    -0.0000150
  C       -2.3031430     0.0242890     0.0000050
  C       -0.0581500     0.1228580    -0.0000120
  C       -1.1822370     0.9067590    -0.0000090
  C       -1.7775000    -1.2415930     0.0000090
  C        1.3735220     0.4821180    -0.0000010
  C       -3.7529710     0.3950310    -0.0000010
  C        3.5650144    -0.4207512     0.0000027
  H       -1.1841660     1.9889020    -0.0000190
  H       -2.2178060    -2.2289420     0.0000270
  H       -4.0072870     0.9882130    -0.8832630
  H       -4.3837090    -0.4981310     0.0000100
  H       -4.0072900     0.9882370     0.8832440
  H        1.8267750    -1.5109680    -0.0000190
  H        4.1132610    -0.8568050    -0.8912560
  H        4.1132390    -0.8567810     0.8912880
  H        3.8584940     0.6633720    -0.0000070
units angstrom
no_reorient  #important for SAPT in psi4, default
symmetry c1  #important for SAPT in psi4, default
}

set PROPERTIES_ORIGIN ["COM"]
properties('MP2/aug-cc-pvtz', properties = ['dipole'])
--------------------------------------------------------------------------

    Molecular point group: c1
  Charge       = 0
  Multiplicity = 1
  Basis Set: AUG-CC-PVTZ
    Blend: AUG-CC-PVTZ
  Basis Set: (AUG-CC-PVTZ AUX)
    Blend: AUG-CC-PVTZ-JKFIT

    Orbital Energies [Eh]
    ---------------------

    Doubly Occupied:

       1A    -20.639044     2A    -20.518272     3A    -15.589572
       4A    -11.361976     5A    -11.303017     6A    -11.301221
       7A    -11.257928     8A    -11.252034     9A    -11.248794
      10A    -11.240071    11A     -1.470325    12A     -1.375330
      13A     -1.254672    14A     -1.115111    15A     -1.045494
      16A     -0.975786    17A     -0.938983    18A     -0.838632
      19A     -0.798751    20A     -0.783422    21A     -0.740361
      22A     -0.672793    23A     -0.659071    24A     -0.658890
      25A     -0.618949    26A     -0.599897    27A     -0.597413
      28A     -0.581272    29A     -0.580516    30A     -0.554067
      31A     -0.528324    32A     -0.524683    33A     -0.514109
      34A     -0.436211    35A     -0.399612    36A     -0.385424
      37A     -0.325831

  @DF-RHF Final Energy:  -474.64259030664130

   => Energetics <=

    Nuclear Repulsion Energy =            511.5745584467024401
    One-Electron Energy =               -1661.0625837918357774
    Two-Electron Energy =                 674.8454350384920417
    Total Energy =                       -474.6425903066412957
  Basis Set: (AUG-CC-PVTZ AUX)
    Blend: AUG-CC-PVTZ-RI
    Molecular point group: c1

    Geometry (in Angstrom), charge = 0, multiplicity = 1:

       Center              X                  Y                   Z               Mass
    ------------   -----------------  -----------------  -----------------  -----------------
         O           -0.413292922052    -1.212094753107     0.000002177533    15.994914619570
         O            1.719457077948     1.658768246893     0.000014177533    15.994914619570
         N            2.220480077948    -0.589555753107    -0.000014822467    14.003074004430
         C           -2.308049922052     0.015906246893     0.000005177533    12.000000000000
         C           -0.063056922052     0.114475246893    -0.000011822467    12.000000000000
         C           -1.187143922052     0.898376246893    -0.000008822467    12.000000000000
         C           -1.782406922052    -1.249975753107     0.000009177533    12.000000000000
         C            1.368615077948     0.473735246893    -0.000000822467    12.000000000000
         C           -3.757877922052     0.386648246893    -0.000000822467    12.000000000000
         C            3.560107477948    -0.429133953107     0.000002877533    12.000000000000
         H           -1.189072922052     1.980519246893    -0.000018822467     1.007825032230
         H           -2.222712922052    -2.237324753107     0.000027177533     1.007825032230
         H           -4.012193922052     0.979830246893    -0.883262822467     1.007825032230
         H           -4.388615922052    -0.506513753107     0.000010177533     1.007825032230
         H           -4.012196922052     0.979854246893     0.883244177533     1.007825032230
         H            1.821868077948    -1.519350753107    -0.000018822467     1.007825032230
         H            4.108354077948    -0.865187753107    -0.891255822467     1.007825032230
         H            4.108332077948    -0.865163753107     0.891288177533     1.007825032230
         H            3.853587077948     0.654989246893    -0.000006822467     1.007825032230

  Basis Set: AUG-CC-PVTZ
    Blend: AUG-CC-PVTZ
  Basis Set: (AUG-CC-PVTZ AUX)
    Blend: AUG-CC-PVTZ-JKFIT
	 Reference Energy          =    -474.6425903066412957 [Eh]
	 Singles Energy            =      -0.0000000000000000 [Eh]
	 Same-Spin Energy          =      -0.4918401458699737 [Eh]
	 Opposite-Spin Energy      =      -1.5271309707664082 [Eh]
	 Correlation Energy        =      -2.0189711166363820 [Eh]
	 Total Energy              =    -476.6615614232777034 [Eh]

	 ================> DF-SCS-MP2 Energies <==================
	-----------------------------------------------------------
	 SCS Same-Spin Scale       =       0.3333333333333333 [-]
	 SCS Opposite-Spin Scale   =       1.2000000000000000 [-]
	 SCS Same-Spin Energy      =      -0.1639467152899912 [Eh]
	 SCS Opposite-Spin Energy  =      -1.8325571649196899 [Eh]
	 SCS Correlation Energy    =      -1.9965038802096811 [Eh]
	 SCS Total Energy          =    -476.6390941868509685 [Eh]
	-----------------------------------------------------------

  Dipole Moment: [D]
     X:    -1.6582      Y:    -3.0762      Z:    -0.0000     Total:     3.4946

*** Psi4 exiting successfully. Buy a developer a beer!
