                               Psi4 1.4a3.dev225

  ==> Input File <==

--------------------------------------------------------------------------
#psi4
#
memory 32 gb

molecule  {
0 1
  O       -0.4083860    -1.2037120     0.0000020
  O        1.7449922     1.6608475     0.0000140
  N        2.2253870    -0.5811730    -0.0000150
  C       -2.3031430     0.0242890     0.0000050
  C       -0.0581500     0.1228580    -0.0000120
  C       -1.1822370     0.9067590    -0.0000090
  C       -1.7775000    -1.2415930     0.0000090
  C        1.3735220     0.4821180    -0.0000010
  C       -3.7529710     0.3950310    -0.0000010
  C        3.6643050    -0.4088610     0.0000040
  H       -1.1841660     1.9889020    -0.0000190
  H       -2.2178060    -2.2289420     0.0000270
  H       -4.0072870     0.9882130    -0.8832630
  H       -4.3837090    -0.4981310     0.0000100
  H       -4.0072900     0.9882370     0.8832440
  H        1.8267750    -1.5109680    -0.0000190
  H        4.1132610    -0.8568050    -0.8912560
  H        4.1132390    -0.8567810     0.8912880
  H        3.8584940     0.6633720    -0.0000070
units angstrom
no_reorient  #important for SAPT in psi4, default
symmetry c1  #important for SAPT in psi4, default
}

set PROPERTIES_ORIGIN ["COM"]
properties('MP2/aug-cc-pvtz', properties = ['dipole'])
--------------------------------------------------------------------------

    Molecular point group: c1
  Charge       = 0
  Multiplicity = 1
  Basis Set: AUG-CC-PVTZ
    Blend: AUG-CC-PVTZ
  Basis Set: (AUG-CC-PVTZ AUX)
    Blend: AUG-CC-PVTZ-JKFIT

    Orbital Energies [Eh]
    ---------------------

    Doubly Occupied:

       1A    -20.637429     2A    -20.513698     3A    -15.586018
       4A    -11.358182     5A    -11.301587     6A    -11.299883
       7A    -11.257117     8A    -11.250712     9A    -11.247264
      10A    -11.239123    11A     -1.468579    12A     -1.369013
      13A     -1.228099    14A     -1.113717    15A     -1.041704
      16A     -0.973516    17A     -0.940639    18A     -0.840101
      19A     -0.797261    20A     -0.772393    21A     -0.737456
      22A     -0.668462    23A     -0.656503    24A     -0.635366
      25A     -0.616834    26A     -0.596974    27A     -0.591455
      28A     -0.580502    29A     -0.579202    30A     -0.551762
      31A     -0.542295    32A     -0.533667    33A     -0.522196
      34A     -0.431823    35A     -0.399223    36A     -0.388338
      37A     -0.324701

  @DF-RHF Final Energy:  -474.65400996895409

   => Energetics <=

    Nuclear Repulsion Energy =            509.6070945283517517
    One-Electron Energy =               -1657.3366285275928931
    Two-Electron Energy =                 673.0755240302869424
    Total Energy =                       -474.6540099689541421
  Basis Set: (AUG-CC-PVTZ AUX)
    Blend: AUG-CC-PVTZ-RI
    Molecular point group: c1

    Geometry (in Angstrom), charge = 0, multiplicity = 1:

       Center              X                  Y                   Z               Mass
    ------------   -----------------  -----------------  -----------------  -----------------
         O           -0.424233502245    -1.212395755939     0.000002065354    15.994914619570
         O            1.729144697755     1.652163744061     0.000014065354    15.994914619570
         N            2.209539497755    -0.589856755939    -0.000014934646    14.003074004430
         C           -2.318990502245     0.015605244061     0.000005065354    12.000000000000
         C           -0.073997502245     0.114174244061    -0.000011934646    12.000000000000
         C           -1.198084502245     0.898075244061    -0.000008934646    12.000000000000
         C           -1.793347502245    -1.250276755939     0.000009065354    12.000000000000
         C            1.357674497755     0.473434244061    -0.000000934646    12.000000000000
         C           -3.768818502245     0.386347244061    -0.000000934646    12.000000000000
         C            3.648457497755    -0.417544755939     0.000004065354    12.000000000000
         H           -1.200013502245     1.980218244061    -0.000018934646     1.007825032230
         H           -2.233653502245    -2.237625755939     0.000027065354     1.007825032230
         H           -4.023134502245     0.979529244061    -0.883262934646     1.007825032230
         H           -4.399556502245    -0.506814755939     0.000010065354     1.007825032230
         H           -4.023137502245     0.979553244061     0.883244065354     1.007825032230
         H            1.810927497755    -1.519651755939    -0.000018934646     1.007825032230
         H            4.097413497755    -0.865488755939    -0.891255934646     1.007825032230
         H            4.097391497755    -0.865464755939     0.891288065354     1.007825032230
         H            3.842646497755     0.654688244061    -0.000006934646     1.007825032230

  Basis Set: AUG-CC-PVTZ
    Blend: AUG-CC-PVTZ
  Basis Set: (AUG-CC-PVTZ AUX)
    Blend: AUG-CC-PVTZ-JKFIT
	 Reference Energy          =    -474.6540099689540853 [Eh]
	 Singles Energy            =      -0.0000000000000000 [Eh]
	 Same-Spin Energy          =      -0.4908680011221620 [Eh]
	 Opposite-Spin Energy      =      -1.5264832300588138 [Eh]
	 Correlation Energy        =      -2.0173512311809758 [Eh]
	 Total Energy              =    -476.6713612001350384 [Eh]

	 ================> DF-SCS-MP2 Energies <==================
	-----------------------------------------------------------
	 SCS Same-Spin Scale       =       0.3333333333333333 [-]
	 SCS Opposite-Spin Scale   =       1.2000000000000000 [-]
	 SCS Same-Spin Energy      =      -0.1636226670407206 [Eh]
	 SCS Opposite-Spin Energy  =      -1.8317798760705766 [Eh]
	 SCS Correlation Energy    =      -1.9954025431112972 [Eh]
	 SCS Total Energy          =    -476.6494125120653962 [Eh]
	-----------------------------------------------------------

  Dipole Moment: [D]
     X:    -1.3745      Y:    -3.1366      Z:    -0.0000     Total:     3.4245

*** Psi4 exiting successfully. Buy a developer a beer!
