                               Psi4 1.4a3.dev225

  ==> Input File <==

--------------------------------------------------------------------------
#psi4
#
memory 32 gb

molecule  {
0 1
  O       -0.4083860    -1.2037120     0.0000020
  O        1.7243640     1.6671510     0.0000140
  N        2.2253870    -0.5811730    -0.0000150
  C       -2.3031430     0.0242890     0.0000050
  C       -0.0581500     0.1228580    -0.0000120
  C       -1.1822370     0.9067590    -0.0000090
  C       -1.7775000    -1.2415930     0.0000090
  C        1.4111493     0.5111999    -0.0000011
  C       -3.7529710     0.3950310    -0.0000010
  C        3.6643050    -0.4088610     0.0000040
  H       -1.1841660     1.9889020    -0.0000190
  H       -2.2178060    -2.2289420     0.0000270
  H       -4.0072870     0.9882130    -0.8832630
  H       -4.3837090    -0.4981310     0.0000100
  H       -4.0072900     0.9882370     0.8832440
  H        1.8267750    -1.5109680    -0.0000190
  H        4.1132610    -0.8568050    -0.8912560
  H        4.1132390    -0.8567810     0.8912880
  H        3.8584940     0.6633720    -0.0000070
units angstrom
no_reorient  #important for SAPT in psi4, default
symmetry c1  #important for SAPT in psi4, default
}

set PROPERTIES_ORIGIN ["COM"]
properties('MP2/aug-cc-pvtz', properties = ['dipole'])
--------------------------------------------------------------------------

    Molecular point group: c1
  Charge       = 0
  Multiplicity = 1
  Basis Set: AUG-CC-PVTZ
    Blend: AUG-CC-PVTZ
  Basis Set: (AUG-CC-PVTZ AUX)
    Blend: AUG-CC-PVTZ-JKFIT

    Orbital Energies [Eh]
    ---------------------

    Doubly Occupied:

       1A    -20.633838     2A    -20.522315     3A    -15.586162
       4A    -11.359649     5A    -11.297540     6A    -11.296257
       7A    -11.258140     8A    -11.247019     9A    -11.240860
      10A    -11.236494    11A     -1.464419    12A     -1.395787
      13A     -1.234575    14A     -1.109475    15A     -1.033354
      16A     -0.970111    17A     -0.939016    18A     -0.831585
      19A     -0.793033    20A     -0.776548    21A     -0.733471
      22A     -0.668923    23A     -0.653206    24A     -0.641140
      25A     -0.619764    26A     -0.597787    27A     -0.593221
      28A     -0.577869    29A     -0.575536    30A     -0.548939
      31A     -0.545795    32A     -0.545435    33A     -0.519123
      34A     -0.434973    35A     -0.398353    36A     -0.391756
      37A     -0.320601

  @DF-RHF Final Energy:  -474.65417429257838

   => Energetics <=

    Nuclear Repulsion Energy =            509.5662832006665894
    One-Electron Energy =               -1657.2567811804160556
    Two-Electron Energy =                 673.0363236871712616
    Total Energy =                       -474.6541742925783183
  Basis Set: (AUG-CC-PVTZ AUX)
    Blend: AUG-CC-PVTZ-RI
    Molecular point group: c1

    Geometry (in Angstrom), charge = 0, multiplicity = 1:

       Center              X                  Y                   Z               Mass
    ------------   -----------------  -----------------  -----------------  -----------------
         O           -0.425107789547    -1.215630302020     0.000002073983    15.994914619570
         O            1.707642210453     1.655232697980     0.000014073983    15.994914619570
         N            2.208665210453    -0.593091302020    -0.000014926017    14.003074004430
         C           -2.319864789547     0.012370697980     0.000005073983    12.000000000000
         C           -0.074871789547     0.110939697980    -0.000011926017    12.000000000000
         C           -1.198958789547     0.894840697980    -0.000008926017    12.000000000000
         C           -1.794221789547    -1.253511302020     0.000009073983    12.000000000000
         C            1.394427510453     0.499281597980    -0.000001026017    12.000000000000
         C           -3.769692789547     0.383112697980    -0.000000926017    12.000000000000
         C            3.647583210453    -0.420779302020     0.000004073983    12.000000000000
         H           -1.200887789547     1.976983697980    -0.000018926017     1.007825032230
         H           -2.234527789547    -2.240860302020     0.000027073983     1.007825032230
         H           -4.024008789547     0.976294697980    -0.883262926017     1.007825032230
         H           -4.400430789547    -0.510049302020     0.000010073983     1.007825032230
         H           -4.024011789547     0.976318697980     0.883244073983     1.007825032230
         H            1.810053210453    -1.522886302020    -0.000018926017     1.007825032230
         H            4.096539210453    -0.868723302020    -0.891255926017     1.007825032230
         H            4.096517210453    -0.868699302020     0.891288073983     1.007825032230
         H            3.841772210453     0.651453697980    -0.000006926017     1.007825032230

  Basis Set: AUG-CC-PVTZ
    Blend: AUG-CC-PVTZ
  Basis Set: (AUG-CC-PVTZ AUX)
    Blend: AUG-CC-PVTZ-JKFIT
	 Reference Energy          =    -474.6541742925783751 [Eh]
	 Singles Energy            =      -0.0000000000000000 [Eh]
	 Same-Spin Energy          =      -0.4898158174015264 [Eh]
	 Opposite-Spin Energy      =      -1.5246398740416862 [Eh]
	 Correlation Energy        =      -2.0144556914432128 [Eh]
	 Total Energy              =    -476.6686299840216066 [Eh]

	 ================> DF-SCS-MP2 Energies <==================
	-----------------------------------------------------------
	 SCS Same-Spin Scale       =       0.3333333333333333 [-]
	 SCS Opposite-Spin Scale   =       1.2000000000000000 [-]
	 SCS Same-Spin Energy      =      -0.1632719391338421 [Eh]
	 SCS Opposite-Spin Energy  =      -1.8295678488500233 [Eh]
	 SCS Correlation Energy    =      -1.9928397879838655 [Eh]
	 SCS Total Energy          =    -476.6470140805622577 [Eh]
	-----------------------------------------------------------

  Dipole Moment: [D]
     X:    -1.0055      Y:    -2.9400      Z:    -0.0000     Total:     3.1072

*** Psi4 exiting successfully. Buy a developer a beer!
