                               Psi4 1.4a3.dev225

  ==> Input File <==

--------------------------------------------------------------------------
#psi4
#
memory 32 gb

molecule  {
0 1
  O       -0.4083860    -1.2037120     0.0000020
  O        1.7243640     1.6671510     0.0000140
  N        2.2253870    -0.5811730    -0.0000150
  C       -2.3031430     0.0242890     0.0000050
  C       -0.0581500     0.1228580    -0.0000120
  C       -1.1822370     0.9067590    -0.0000090
  C       -1.7775000    -1.2415930     0.0000090
  C        1.3735220     0.4821180    -0.0000010
  C       -3.7529710     0.3950310    -0.0000010
  C        3.6643050    -0.4088610     0.0000040
  H       -1.1841660     1.9889020    -0.0000190
  H       -2.2178060    -2.2289420     0.0000270
  H       -4.0072870     0.9882130    -0.8832630
  H       -4.3837090    -0.4981310     0.0000100
  H       -4.0072900     0.9882370     0.8832440
  H        1.8267750    -1.5109680    -0.0000190
  H        4.1132610    -0.8568050    -0.8912560
  H        4.1132390    -0.8567810     0.8912880
  H        3.8584940     0.6633720    -0.0000070
units angstrom
no_reorient  #important for SAPT in psi4, default
symmetry c1  #important for SAPT in psi4, default
}

set PROPERTIES_ORIGIN ["COM"]
properties('MP2/aug-cc-pvtz', properties = ['dipole'])
--------------------------------------------------------------------------

    Molecular point group: c1
  Charge       = 0
  Multiplicity = 1
  Basis Set: AUG-CC-PVTZ
    Blend: AUG-CC-PVTZ
  Basis Set: (AUG-CC-PVTZ AUX)
    Blend: AUG-CC-PVTZ-JKFIT

    Orbital Energies [Eh]
    ---------------------

    Doubly Occupied:

       1A    -20.636763     2A    -20.514164     3A    -15.587143
       4A    -11.358386     5A    -11.300906     6A    -11.298982
       7A    -11.258052     8A    -11.250169     9A    -11.246444
      10A    -11.238738    11A     -1.467980    12A     -1.368980
      13A     -1.229540    14A     -1.113100    15A     -1.041005
      16A     -0.973428    17A     -0.940808    18A     -0.839886
      19A     -0.796591    20A     -0.773072    21A     -0.737023
      22A     -0.668114    23A     -0.656058    24A     -0.635954
      25A     -0.617373    26A     -0.596469    27A     -0.591379
      28A     -0.580123    29A     -0.578622    30A     -0.551420
      31A     -0.543267    32A     -0.534098    33A     -0.521762
      34A     -0.431896    35A     -0.398961    36A     -0.388931
      37A     -0.324010

  @DF-RHF Final Energy:  -474.65405063600662

   => Energetics <=

    Nuclear Repulsion Energy =            509.6507838272502795
    One-Electron Energy =               -1657.4304723613131500
    Two-Electron Energy =                 673.1256378980563113
    Total Energy =                       -474.6540506360065592
  Basis Set: (AUG-CC-PVTZ AUX)
    Blend: AUG-CC-PVTZ-RI
    Molecular point group: c1

    Geometry (in Angstrom), charge = 0, multiplicity = 1:

       Center              X                  Y                   Z               Mass
    ------------   -----------------  -----------------  -----------------  -----------------
         O           -0.421860868847    -1.213120777736     0.000002065354    15.994914619570
         O            1.710889131153     1.657742222264     0.000014065354    15.994914619570
         N            2.211912131153    -0.590581777736    -0.000014934646    14.003074004430
         C           -2.316617868847     0.014880222264     0.000005065354    12.000000000000
         C           -0.071624868847     0.113449222264    -0.000011934646    12.000000000000
         C           -1.195711868847     0.897350222264    -0.000008934646    12.000000000000
         C           -1.790974868847    -1.251001777736     0.000009065354    12.000000000000
         C            1.360047131153     0.472709222264    -0.000000934646    12.000000000000
         C           -3.766445868847     0.385622222264    -0.000000934646    12.000000000000
         C            3.650830131153    -0.418269777736     0.000004065354    12.000000000000
         H           -1.197640868847     1.979493222264    -0.000018934646     1.007825032230
         H           -2.231280868847    -2.238350777736     0.000027065354     1.007825032230
         H           -4.020761868847     0.978804222264    -0.883262934646     1.007825032230
         H           -4.397183868847    -0.507539777736     0.000010065354     1.007825032230
         H           -4.020764868847     0.978828222264     0.883244065354     1.007825032230
         H            1.813300131153    -1.520376777736    -0.000018934646     1.007825032230
         H            4.099786131153    -0.866213777736    -0.891255934646     1.007825032230
         H            4.099764131153    -0.866189777736     0.891288065354     1.007825032230
         H            3.845019131153     0.653963222264    -0.000006934646     1.007825032230

  Basis Set: AUG-CC-PVTZ
    Blend: AUG-CC-PVTZ
  Basis Set: (AUG-CC-PVTZ AUX)
    Blend: AUG-CC-PVTZ-JKFIT
	 Reference Energy          =    -474.6540506360066161 [Eh]
	 Singles Energy            =      -0.0000000000000000 [Eh]
	 Same-Spin Energy          =      -0.4908458086028061 [Eh]
	 Opposite-Spin Energy      =      -1.5264857146912805 [Eh]
	 Correlation Energy        =      -2.0173315232940867 [Eh]
	 Total Energy              =    -476.6713821593007196 [Eh]

	 ================> DF-SCS-MP2 Energies <==================
	-----------------------------------------------------------
	 SCS Same-Spin Scale       =       0.3333333333333333 [-]
	 SCS Opposite-Spin Scale   =       1.2000000000000000 [-]
	 SCS Same-Spin Energy      =      -0.1636152695342687 [Eh]
	 SCS Opposite-Spin Energy  =      -1.8317828576295365 [Eh]
	 SCS Correlation Energy    =      -1.9953981271638053 [Eh]
	 SCS Total Energy          =    -476.6494487631704260 [Eh]
	-----------------------------------------------------------

  Dipole Moment: [D]
     X:    -1.2937      Y:    -3.1475      Z:    -0.0000     Total:     3.4030

*** Psi4 exiting successfully. Buy a developer a beer!
