                               Psi4 1.4a3.dev225

  ==> Input File <==

--------------------------------------------------------------------------
#psi4
#
memory 32 gb

molecule  {
0 1
  O       -0.4083860    -1.2037120     0.0000020
  O        1.7243640     1.6671510     0.0000140
  N        2.2253870    -0.5811730    -0.0000150
  C       -2.3031430     0.0242890     0.0000050
  C       -0.0581500     0.1228580    -0.0000120
  C       -1.1822370     0.9067590    -0.0000090
  C       -1.7775000    -1.2415930     0.0000090
  C        1.3735220     0.4821180    -0.0000010
  C       -3.7529710     0.3950310    -0.0000010
  C        3.4657238    -0.4326413     0.0000014
  H       -1.1841660     1.9889020    -0.0000190
  H       -2.2178060    -2.2289420     0.0000270
  H       -4.0072870     0.9882130    -0.8832630
  H       -4.3837090    -0.4981310     0.0000100
  H       -4.0072900     0.9882370     0.8832440
  H        1.8267750    -1.5109680    -0.0000190
  H        4.1132610    -0.8568050    -0.8912560
  H        4.1132390    -0.8567810     0.8912880
  H        3.8584940     0.6633720    -0.0000070
units angstrom
no_reorient  #important for SAPT in psi4, default
symmetry c1  #important for SAPT in psi4, default
}

set PROPERTIES_ORIGIN ["COM"]
properties('MP2/aug-cc-pvtz', properties = ['dipole'])
--------------------------------------------------------------------------

    Molecular point group: c1
  Charge       = 0
  Multiplicity = 1
  Basis Set: AUG-CC-PVTZ
    Blend: AUG-CC-PVTZ
  Basis Set: (AUG-CC-PVTZ AUX)
    Blend: AUG-CC-PVTZ-JKFIT

    Orbital Energies [Eh]
    ---------------------

    Doubly Occupied:

       1A    -20.641691     2A    -20.523500     3A    -15.591366
       4A    -11.366121     5A    -11.305495     6A    -11.303866
       7A    -11.260946     8A    -11.254223     9A    -11.251534
      10A    -11.241631    11A     -1.473085    12A     -1.385161
      13A     -1.286447    14A     -1.117460    15A     -1.051009
      16A     -0.979799    17A     -0.939878    18A     -0.836264
      19A     -0.801419    20A     -0.796313    21A     -0.743951
      22A     -0.687735    23A     -0.671243    24A     -0.663447
      25A     -0.627608    26A     -0.605803    27A     -0.600010
      28A     -0.582953    29A     -0.582863    30A     -0.556804
      31A     -0.528423    32A     -0.517341    33A     -0.487623
      34A     -0.441408    35A     -0.401125    36A     -0.375077
      37A     -0.327538

  @DF-RHF Final Energy:  -474.60255572381567

   => Energetics <=

    Nuclear Repulsion Energy =            513.6945168288051491
    One-Electron Energy =               -1664.9778233851905043
    Two-Electron Energy =                 676.6807508325697427
    Total Energy =                       -474.6025557238157262
  Basis Set: (AUG-CC-PVTZ AUX)
    Blend: AUG-CC-PVTZ-RI
    Molecular point group: c1

    Geometry (in Angstrom), charge = 0, multiplicity = 1:

       Center              X                  Y                   Z               Mass
    ------------   -----------------  -----------------  -----------------  -----------------
         O           -0.404724975257    -1.211068737108     0.000002289712    15.994914619570
         O            1.728025024743     1.659794262892     0.000014289712    15.994914619570
         N            2.229048024743    -0.588529737108    -0.000014710288    14.003074004430
         C           -2.299481975257     0.016932262892     0.000005289712    12.000000000000
         C           -0.054488975257     0.115501262892    -0.000011710288    12.000000000000
         C           -1.178575975257     0.899402262892    -0.000008710288    12.000000000000
         C           -1.773838975257    -1.248949737108     0.000009289712    12.000000000000
         C            1.377183024743     0.474761262892    -0.000000710288    12.000000000000
         C           -3.749309975257     0.387674262892    -0.000000710288    12.000000000000
         C            3.469384824743    -0.439998037108     0.000001689712    12.000000000000
         H           -1.180504975257     1.981545262892    -0.000018710288     1.007825032230
         H           -2.214144975257    -2.236298737108     0.000027289712     1.007825032230
         H           -4.003625975257     0.980856262892    -0.883262710288     1.007825032230
         H           -4.380047975257    -0.505487737108     0.000010289712     1.007825032230
         H           -4.003628975257     0.980880262892     0.883244289712     1.007825032230
         H            1.830436024743    -1.518324737108    -0.000018710288     1.007825032230
         H            4.116922024743    -0.864161737108    -0.891255710288     1.007825032230
         H            4.116900024743    -0.864137737108     0.891288289712     1.007825032230
         H            3.862155024743     0.656015262892    -0.000006710288     1.007825032230

  Basis Set: AUG-CC-PVTZ
    Blend: AUG-CC-PVTZ
  Basis Set: (AUG-CC-PVTZ AUX)
    Blend: AUG-CC-PVTZ-JKFIT
	 Reference Energy          =    -474.6025557238156694 [Eh]
	 Singles Energy            =      -0.0000000000000000 [Eh]
	 Same-Spin Energy          =      -0.4936337168545849 [Eh]
	 Opposite-Spin Energy      =      -1.5291080541461053 [Eh]
	 Correlation Energy        =      -2.0227417710006903 [Eh]
	 Total Energy              =    -476.6252974948163796 [Eh]

	 ================> DF-SCS-MP2 Energies <==================
	-----------------------------------------------------------
	 SCS Same-Spin Scale       =       0.3333333333333333 [-]
	 SCS Opposite-Spin Scale   =       1.2000000000000000 [-]
	 SCS Same-Spin Energy      =      -0.1645445722848616 [Eh]
	 SCS Opposite-Spin Energy  =      -1.8349296649753262 [Eh]
	 SCS Correlation Energy    =      -1.9994742372601877 [Eh]
	 SCS Total Energy          =    -476.6020299610758570 [Eh]
	-----------------------------------------------------------

  Dipole Moment: [D]
     X:    -2.0986      Y:    -2.9792      Z:    -0.0000     Total:     3.6441

*** Psi4 exiting successfully. Buy a developer a beer!
