                               Psi4 1.4a3.dev225

  ==> Input File <==

--------------------------------------------------------------------------
#psi4
#
memory 32 gb

molecule  {
0 1
  O       -0.4083860    -1.2037120     0.0000020
  O        1.7243640     1.6671510     0.0000140
  N        2.2253870    -0.5811730    -0.0000150
  C       -2.3031430     0.0242890     0.0000050
  C       -0.0581500     0.1228580    -0.0000120
  C       -1.1822370     0.9067590    -0.0000090
  C       -1.7775000    -1.2415930     0.0000090
  C        1.3735220     0.4821180    -0.0000010
  C       -3.7529710     0.3950310    -0.0000010
  C        3.6643050    -0.4088610     0.0000040
  H       -1.1841660     1.9889020    -0.0000190
  H       -2.2178060    -2.2289420     0.0000270
  H       -4.0072870     0.9882130    -0.8832630
  H       -4.3837090    -0.4981310     0.0000100
  H       -4.0072900     0.9882370     0.8832440
  H        1.8267750    -1.5109680    -0.0000190
  H        4.1132610    -0.8568050    -0.8912560
  H        4.1374894    -0.7870721     0.9108356
  H        3.8584940     0.6633720    -0.0000070
units angstrom
no_reorient  #important for SAPT in psi4, default
symmetry c1  #important for SAPT in psi4, default
}

set PROPERTIES_ORIGIN ["COM"]
properties('MP2/aug-cc-pvtz', properties = ['dipole'])
--------------------------------------------------------------------------

    Molecular point group: c1
  Charge       = 0
  Multiplicity = 1
  Basis Set: AUG-CC-PVTZ
    Blend: AUG-CC-PVTZ
  Basis Set: (AUG-CC-PVTZ AUX)
    Blend: AUG-CC-PVTZ-JKFIT

    Orbital Energies [Eh]
    ---------------------

    Doubly Occupied:

       1A    -20.636838     2A    -20.514322     3A    -15.587592
       4A    -11.358594     5A    -11.300994     6A    -11.299091
       7A    -11.257592     8A    -11.250239     9A    -11.246562
      10A    -11.238789    11A     -1.468057    12A     -1.369064
      13A     -1.229446    14A     -1.113180    15A     -1.041033
      16A     -0.973373    17A     -0.940816    18A     -0.840395
      19A     -0.796673    20A     -0.772949    21A     -0.737098
      22A     -0.667888    23A     -0.656206    24A     -0.637259
      25A     -0.618706    26A     -0.596555    27A     -0.591138
      28A     -0.580233    29A     -0.578496    30A     -0.551230
      31A     -0.539989    32A     -0.533833    33A     -0.521372
      34A     -0.432037    35A     -0.399288    36A     -0.389620
      37A     -0.324127

  @DF-RHF Final Energy:  -474.65345771525170

   => Energetics <=

    Nuclear Repulsion Energy =            509.6280497515693924
    One-Electron Energy =               -1657.3816709728725982
    Two-Electron Energy =                 673.1001635060513308
    Total Energy =                       -474.6534577152517613
  Basis Set: (AUG-CC-PVTZ AUX)
    Blend: AUG-CC-PVTZ-RI
    Molecular point group: c1

    Geometry (in Angstrom), charge = 0, multiplicity = 1:

       Center              X                  Y                   Z               Mass
    ------------   -----------------  -----------------  -----------------  -----------------
         O           -0.422036617266    -1.213625974722    -0.000139600755    15.994914619570
         O            1.710713382734     1.657237025278    -0.000127600755    15.994914619570
         N            2.211736382734    -0.591086974722    -0.000156600755    14.003074004430
         C           -2.316793617266     0.014375025278    -0.000136600755    12.000000000000
         C           -0.071800617266     0.112944025278    -0.000153600755    12.000000000000
         C           -1.195887617266     0.896845025278    -0.000150600755    12.000000000000
         C           -1.791150617266    -1.251506974722    -0.000132600755    12.000000000000
         C            1.359871382734     0.472204025278    -0.000142600755    12.000000000000
         C           -3.766621617266     0.385117025278    -0.000142600755    12.000000000000
         C            3.650654382734    -0.418774974722    -0.000137600755    12.000000000000
         H           -1.197816617266     1.978988025278    -0.000160600755     1.007825032230
         H           -2.231456617266    -2.238855974722    -0.000114600755     1.007825032230
         H           -4.020937617266     0.978299025278    -0.883404600755     1.007825032230
         H           -4.397359617266    -0.508044974722    -0.000131600755     1.007825032230
         H           -4.020940617266     0.978323025278     0.883102399245     1.007825032230
         H            1.813124382734    -1.520881974722    -0.000160600755     1.007825032230
         H            4.099610382734    -0.866718974722    -0.891397600755     1.007825032230
         H            4.123838782734    -0.796986074722     0.910693999245     1.007825032230
         H            3.844843382734     0.653458025278    -0.000148600755     1.007825032230

  Basis Set: AUG-CC-PVTZ
    Blend: AUG-CC-PVTZ
  Basis Set: (AUG-CC-PVTZ AUX)
    Blend: AUG-CC-PVTZ-JKFIT
	 Reference Energy          =    -474.6534577152517045 [Eh]
	 Singles Energy            =      -0.0000000000000000 [Eh]
	 Same-Spin Energy          =      -0.4909024651611170 [Eh]
	 Opposite-Spin Energy      =      -1.5265454947212111 [Eh]
	 Correlation Energy        =      -2.0174479598823281 [Eh]
	 Total Energy              =    -476.6709056751340086 [Eh]

	 ================> DF-SCS-MP2 Energies <==================
	-----------------------------------------------------------
	 SCS Same-Spin Scale       =       0.3333333333333333 [-]
	 SCS Opposite-Spin Scale   =       1.2000000000000000 [-]
	 SCS Same-Spin Energy      =      -0.1636341550537057 [Eh]
	 SCS Opposite-Spin Energy  =      -1.8318545936654533 [Eh]
	 SCS Correlation Energy    =      -1.9954887487191590 [Eh]
	 SCS Total Energy          =    -476.6489464639708444 [Eh]
	-----------------------------------------------------------

  Dipole Moment: [D]
     X:    -1.3016      Y:    -3.1127      Z:     0.0109     Total:     3.3739

*** Psi4 exiting successfully. Buy a developer a beer!
