                               Psi4 1.4a3.dev225

  ==> Input File <==

--------------------------------------------------------------------------
#psi4
#
memory 32 gb

molecule  {
0 1
  O       -0.4083860    -1.2037120     0.0000020
  O        1.7243640     1.6671510     0.0000140
  N        2.2253870    -0.5811730    -0.0000150
  C       -2.3332579     0.0639456     0.0000050
  C       -0.0581500     0.1228580    -0.0000120
  C       -1.1822370     0.9067590    -0.0000090
  C       -1.7775000    -1.2415930     0.0000090
  C        1.3735220     0.4821180    -0.0000010
  C       -3.7529710     0.3950310    -0.0000010
  C        3.6643050    -0.4088610     0.0000040
  H       -1.1841660     1.9889020    -0.0000190
  H       -2.2178060    -2.2289420     0.0000270
  H       -4.0072870     0.9882130    -0.8832630
  H       -4.3837090    -0.4981310     0.0000100
  H       -4.0072900     0.9882370     0.8832440
  H        1.8267750    -1.5109680    -0.0000190
  H        4.1132610    -0.8568050    -0.8912560
  H        4.1132390    -0.8567810     0.8912880
  H        3.8584940     0.6633720    -0.0000070
units angstrom
no_reorient  #important for SAPT in psi4, default
symmetry c1  #important for SAPT in psi4, default
}

set PROPERTIES_ORIGIN ["COM"]
properties('MP2/aug-cc-pvtz', properties = ['dipole'])
--------------------------------------------------------------------------

    Molecular point group: c1
  Charge       = 0
  Multiplicity = 1
  Basis Set: AUG-CC-PVTZ
    Blend: AUG-CC-PVTZ
  Basis Set: (AUG-CC-PVTZ AUX)
    Blend: AUG-CC-PVTZ-JKFIT

    Orbital Energies [Eh]
    ---------------------

    Doubly Occupied:

       1A    -20.640393     2A    -20.513434     3A    -15.586738
       4A    -11.358109     5A    -11.307467     6A    -11.298233
       7A    -11.257821     8A    -11.255245     9A    -11.247398
      10A    -11.237635    11A     -1.468309    12A     -1.368422
      13A     -1.229152    14A     -1.112852    15A     -1.040717
      16A     -0.977171    17A     -0.939056    18A     -0.838043
      19A     -0.793605    20A     -0.772965    21A     -0.740259
      22A     -0.667574    23A     -0.655591    24A     -0.636165
      25A     -0.617099    26A     -0.597256    27A     -0.593466
      28A     -0.584230    29A     -0.578049    30A     -0.561219
      31A     -0.543029    32A     -0.533699    33A     -0.515571
      34A     -0.431393    35A     -0.396770    36A     -0.388345
      37A     -0.317387

  @DF-RHF Final Energy:  -474.64759321514532

   => Energetics <=

    Nuclear Repulsion Energy =            509.1172966693380317
    One-Electron Energy =               -1656.3300473310582674
    Two-Electron Energy =                 672.5651574465749718
    Total Energy =                       -474.6475932151453208
  Basis Set: (AUG-CC-PVTZ AUX)
    Blend: AUG-CC-PVTZ-RI
    Molecular point group: c1

    Geometry (in Angstrom), charge = 0, multiplicity = 1:

       Center              X                  Y                   Z               Mass
    ------------   -----------------  -----------------  -----------------  -----------------
         O           -0.419262205319    -1.216542810022     0.000002065354    15.994914619570
         O            1.713487794681     1.654320189978     0.000014065354    15.994914619570
         N            2.214510794681    -0.594003810022    -0.000014934646    14.003074004430
         C           -2.344134105319     0.051114789978     0.000005065354    12.000000000000
         C           -0.069026205319     0.110027189978    -0.000011934646    12.000000000000
         C           -1.193113205319     0.893928189978    -0.000008934646    12.000000000000
         C           -1.788376205319    -1.254423810022     0.000009065354    12.000000000000
         C            1.362645794681     0.469287189978    -0.000000934646    12.000000000000
         C           -3.763847205319     0.382200189978    -0.000000934646    12.000000000000
         C            3.653428794681    -0.421691810022     0.000004065354    12.000000000000
         H           -1.195042205319     1.976071189978    -0.000018934646     1.007825032230
         H           -2.228682205319    -2.241772810022     0.000027065354     1.007825032230
         H           -4.018163205319     0.975382189978    -0.883262934646     1.007825032230
         H           -4.394585205319    -0.510961810022     0.000010065354     1.007825032230
         H           -4.018166205319     0.975406189978     0.883244065354     1.007825032230
         H            1.815898794681    -1.523798810022    -0.000018934646     1.007825032230
         H            4.102384794681    -0.869635810022    -0.891255934646     1.007825032230
         H            4.102362794681    -0.869611810022     0.891288065354     1.007825032230
         H            3.847617794681     0.650541189978    -0.000006934646     1.007825032230

  Basis Set: AUG-CC-PVTZ
    Blend: AUG-CC-PVTZ
  Basis Set: (AUG-CC-PVTZ AUX)
    Blend: AUG-CC-PVTZ-JKFIT
	 Reference Energy          =    -474.6475932151453208 [Eh]
	 Singles Energy            =      -0.0000000000000000 [Eh]
	 Same-Spin Energy          =      -0.4920926659210551 [Eh]
	 Opposite-Spin Energy      =      -1.5283554233570946 [Eh]
	 Correlation Energy        =      -2.0204480892781498 [Eh]
	 Total Energy              =    -476.6680413044234683 [Eh]

	 ================> DF-SCS-MP2 Energies <==================
	-----------------------------------------------------------
	 SCS Same-Spin Scale       =       0.3333333333333333 [-]
	 SCS Opposite-Spin Scale   =       1.2000000000000000 [-]
	 SCS Same-Spin Energy      =      -0.1640308886403517 [Eh]
	 SCS Opposite-Spin Energy  =      -1.8340265080285134 [Eh]
	 SCS Correlation Energy    =      -1.9980573966688651 [Eh]
	 SCS Total Energy          =    -476.6456506118141760 [Eh]
	-----------------------------------------------------------

  Dipole Moment: [D]
     X:    -1.3594      Y:    -3.1400      Z:    -0.0000     Total:     3.4216

*** Psi4 exiting successfully. Buy a developer a beer!
