                               Psi4 1.4a3.dev225

  ==> Input File <==

--------------------------------------------------------------------------
#psi4
#
memory 32 gb

molecule  {
0 1
  O       -0.4083860    -1.2037120     0.0000020
  O        1.7243640     1.6671510     0.0000140
  N        2.2253870    -0.5811730    -0.0000150
  C       -2.3619705     0.1046291     0.0000049
  C       -0.0581500     0.1228580    -0.0000120
  C       -1.1822370     0.9067590    -0.0000090
  C       -1.7775000    -1.2415930     0.0000090
  C        1.3735220     0.4821180    -0.0000010
  C       -3.7529710     0.3950310    -0.0000010
  C        3.6643050    -0.4088610     0.0000040
  H       -1.1841660     1.9889020    -0.0000190
  H       -2.2178060    -2.2289420     0.0000270
  H       -4.0072870     0.9882130    -0.8832630
  H       -4.3837090    -0.4981310     0.0000100
  H       -4.0072900     0.9882370     0.8832440
  H        1.8267750    -1.5109680    -0.0000190
  H        4.1132610    -0.8568050    -0.8912560
  H        4.1132390    -0.8567810     0.8912880
  H        3.8584940     0.6633720    -0.0000070
units angstrom
no_reorient  #important for SAPT in psi4, default
symmetry c1  #important for SAPT in psi4, default
}

set PROPERTIES_ORIGIN ["COM"]
properties('MP2/aug-cc-pvtz', properties = ['dipole'])
--------------------------------------------------------------------------

    Molecular point group: c1
  Charge       = 0
  Multiplicity = 1
  Basis Set: AUG-CC-PVTZ
    Blend: AUG-CC-PVTZ
  Basis Set: (AUG-CC-PVTZ AUX)
    Blend: AUG-CC-PVTZ-JKFIT

    Orbital Energies [Eh]
    ---------------------

    Doubly Occupied:

       1A    -20.643902     2A    -20.512624     3A    -15.586256
       4A    -11.357750     5A    -11.313345     6A    -11.297406
       7A    -11.260256     8A    -11.257538     9A    -11.248503
      10A    -11.236658    11A     -1.468788    12A     -1.367793
      13A     -1.228699    14A     -1.113837    15A     -1.041347
      16A     -0.980425    17A     -0.937272    18A     -0.836612
      19A     -0.790186    20A     -0.772803    21A     -0.743183
      22A     -0.667128    23A     -0.655279    24A     -0.636545
      25A     -0.616852    26A     -0.599207    27A     -0.597399
      28A     -0.588709    29A     -0.577514    30A     -0.569590
      31A     -0.542418    32A     -0.533255    33A     -0.506129
      34A     -0.430798    35A     -0.395131    36A     -0.387707
      37A     -0.310639

  @DF-RHF Final Energy:  -474.63470585188031

   => Energetics <=

    Nuclear Repulsion Energy =            508.6341628806376320
    One-Electron Energy =               -1655.3187718271763060
    Two-Electron Energy =                 672.0499030946583616
    Total Energy =                       -474.6347058518803124
  Basis Set: (AUG-CC-PVTZ AUX)
    Blend: AUG-CC-PVTZ-RI
    Molecular point group: c1

    Geometry (in Angstrom), charge = 0, multiplicity = 1:

       Center              X                  Y                   Z               Mass
    ------------   -----------------  -----------------  -----------------  -----------------
         O           -0.416784548530    -1.220053455173     0.000002073983    15.994914619570
         O            1.715965451470     1.650809544827     0.000014073983    15.994914619570
         N            2.216988451470    -0.597514455173    -0.000014926017    14.003074004430
         C           -2.370369048530     0.088287644827     0.000004973983    12.000000000000
         C           -0.066548548530     0.106516544827    -0.000011926017    12.000000000000
         C           -1.190635548530     0.890417544827    -0.000008926017    12.000000000000
         C           -1.785898548530    -1.257934455173     0.000009073983    12.000000000000
         C            1.365123451470     0.465776544827    -0.000000926017    12.000000000000
         C           -3.761369548530     0.378689544827    -0.000000926017    12.000000000000
         C            3.655906451470    -0.425202455173     0.000004073983    12.000000000000
         H           -1.192564548530     1.972560544827    -0.000018926017     1.007825032230
         H           -2.226204548530    -2.245283455173     0.000027073983     1.007825032230
         H           -4.015685548530     0.971871544827    -0.883262926017     1.007825032230
         H           -4.392107548530    -0.514472455173     0.000010073983     1.007825032230
         H           -4.015688548530     0.971895544827     0.883244073983     1.007825032230
         H            1.818376451470    -1.527309455173    -0.000018926017     1.007825032230
         H            4.104862451470    -0.873146455173    -0.891255926017     1.007825032230
         H            4.104840451470    -0.873122455173     0.891288073983     1.007825032230
         H            3.850095451470     0.647030544827    -0.000006926017     1.007825032230

  Basis Set: AUG-CC-PVTZ
    Blend: AUG-CC-PVTZ
  Basis Set: (AUG-CC-PVTZ AUX)
    Blend: AUG-CC-PVTZ-JKFIT
	 Reference Energy          =    -474.6347058518803124 [Eh]
	 Singles Energy            =      -0.0000000000000000 [Eh]
	 Same-Spin Energy          =      -0.4935494391972434 [Eh]
	 Opposite-Spin Energy      =      -1.5306049022714712 [Eh]
	 Correlation Energy        =      -2.0241543414687144 [Eh]
	 Total Energy              =    -476.6588601933490281 [Eh]

	 ================> DF-SCS-MP2 Energies <==================
	-----------------------------------------------------------
	 SCS Same-Spin Scale       =       0.3333333333333333 [-]
	 SCS Opposite-Spin Scale   =       1.2000000000000000 [-]
	 SCS Same-Spin Energy      =      -0.1645164797324145 [Eh]
	 SCS Opposite-Spin Energy  =      -1.8367258827257653 [Eh]
	 SCS Correlation Energy    =      -2.0012423624581799 [Eh]
	 SCS Total Energy          =    -476.6359482143384980 [Eh]
	-----------------------------------------------------------

  Dipole Moment: [D]
     X:    -1.4325      Y:    -3.1253      Z:    -0.0000     Total:     3.4380

*** Psi4 exiting successfully. Buy a developer a beer!
