                               Psi4 1.4a3.dev225

  ==> Input File <==

--------------------------------------------------------------------------
#psi4
#
memory 32 gb

molecule  {
0 1
  O       -0.4083860    -1.2037120     0.0000020
  O        1.7243640     1.6671510     0.0000140
  N        2.2253870    -0.5811730    -0.0000150
  C       -2.3031430     0.0242890     0.0000050
  C       -0.0581500     0.1228580    -0.0000120
  C       -1.1822370     0.9067590    -0.0000090
  C       -1.5775765    -1.2360615     0.0000080
  C        1.3735220     0.4821180    -0.0000010
  C       -3.7529710     0.3950310    -0.0000010
  C        3.6643050    -0.4088610     0.0000040
  H       -1.1841660     1.9889020    -0.0000190
  H       -2.2178060    -2.2289420     0.0000270
  H       -4.0072870     0.9882130    -0.8832630
  H       -4.3837090    -0.4981310     0.0000100
  H       -4.0072900     0.9882370     0.8832440
  H        1.8267750    -1.5109680    -0.0000190
  H        4.1132610    -0.8568050    -0.8912560
  H        4.1132390    -0.8567810     0.8912880
  H        3.8584940     0.6633720    -0.0000070
units angstrom
no_reorient  #important for SAPT in psi4, default
symmetry c1  #important for SAPT in psi4, default
}

set PROPERTIES_ORIGIN ["COM"]
properties('MP2/aug-cc-pvtz', properties = ['dipole'])
--------------------------------------------------------------------------

    Molecular point group: c1
  Charge       = 0
  Multiplicity = 1
  Basis Set: AUG-CC-PVTZ
    Blend: AUG-CC-PVTZ
  Basis Set: (AUG-CC-PVTZ AUX)
    Blend: AUG-CC-PVTZ-JKFIT

    Orbital Energies [Eh]
    ---------------------

    Doubly Occupied:

       1A    -20.670867     2A    -20.507905     3A    -15.584305
       4A    -11.354616     5A    -11.321613     6A    -11.286448
       7A    -11.256717     8A    -11.251901     9A    -11.242418
      10A    -11.238008    11A     -1.578548    12A     -1.365066
      13A     -1.227882    14A     -1.114561    15A     -1.052968
      16A     -0.974196    17A     -0.940541    18A     -0.829657
      19A     -0.825900    20A     -0.769985    21A     -0.766662
      22A     -0.714161    23A     -0.677798    24A     -0.633716
      25A     -0.619212    26A     -0.602091    27A     -0.592876
      28A     -0.578933    29A     -0.577388    30A     -0.545569
      31A     -0.542442    32A     -0.535239    33A     -0.489321
      34A     -0.426627    35A     -0.401092    36A     -0.389407
      37A     -0.305244

  @DF-RHF Final Energy:  -474.60472325046834

   => Energetics <=

    Nuclear Repulsion Energy =            513.0617677116800905
    One-Electron Energy =               -1663.7492255810291226
    Two-Electron Energy =                 676.0827346188808633
    Total Energy =                       -474.6047232504682825
  Basis Set: (AUG-CC-PVTZ AUX)
    Blend: AUG-CC-PVTZ-RI
    Molecular point group: c1

    Geometry (in Angstrom), charge = 0, multiplicity = 1:

       Center              X                  Y                   Z               Mass
    ------------   -----------------  -----------------  -----------------  -----------------
         O           -0.439112591679    -1.213598099836     0.000002151646    15.994914619570
         O            1.693637408321     1.657264900164     0.000014151646    15.994914619570
         N            2.194660408321    -0.591059099836    -0.000014848354    14.003074004430
         C           -2.333869591679     0.014402900164     0.000005151646    12.000000000000
         C           -0.088876591679     0.112971900164    -0.000011848354    12.000000000000
         C           -1.212963591679     0.896872900164    -0.000008848354    12.000000000000
         C           -1.608303091679    -1.245947599836     0.000008151646    12.000000000000
         C            1.342795408321     0.472231900164    -0.000000848354    12.000000000000
         C           -3.783697591679     0.385144900164    -0.000000848354    12.000000000000
         C            3.633578408321    -0.418747099836     0.000004151646    12.000000000000
         H           -1.214892591679     1.979015900164    -0.000018848354     1.007825032230
         H           -2.248532591679    -2.238828099836     0.000027151646     1.007825032230
         H           -4.038013591679     0.978326900164    -0.883262848354     1.007825032230
         H           -4.414435591679    -0.508017099836     0.000010151646     1.007825032230
         H           -4.038016591679     0.978350900164     0.883244151646     1.007825032230
         H            1.796048408321    -1.520854099836    -0.000018848354     1.007825032230
         H            4.082534408321    -0.866691099836    -0.891255848354     1.007825032230
         H            4.082512408321    -0.866667099836     0.891288151646     1.007825032230
         H            3.827767408321     0.653485900164    -0.000006848354     1.007825032230

  Basis Set: AUG-CC-PVTZ
    Blend: AUG-CC-PVTZ
  Basis Set: (AUG-CC-PVTZ AUX)
    Blend: AUG-CC-PVTZ-JKFIT
	 Reference Energy          =    -474.6047232504683393 [Eh]
	 Singles Energy            =      -0.0000000000000000 [Eh]
	 Same-Spin Energy          =      -0.4914066061785354 [Eh]
	 Opposite-Spin Energy      =      -1.5230508984122726 [Eh]
	 Correlation Energy        =      -2.0144575045908080 [Eh]
	 Total Energy              =    -476.6191807550591193 [Eh]

	 ================> DF-SCS-MP2 Energies <==================
	-----------------------------------------------------------
	 SCS Same-Spin Scale       =       0.3333333333333333 [-]
	 SCS Opposite-Spin Scale   =       1.2000000000000000 [-]
	 SCS Same-Spin Energy      =      -0.1638022020595118 [Eh]
	 SCS Opposite-Spin Energy  =      -1.8276610780947271 [Eh]
	 SCS Correlation Energy    =      -1.9914632801542389 [Eh]
	 SCS Total Energy          =    -476.5961865306225604 [Eh]
	-----------------------------------------------------------

  Dipole Moment: [D]
     X:    -1.1262      Y:    -3.2964      Z:    -0.0000     Total:     3.4835

*** Psi4 exiting successfully. Buy a developer a beer!
