                               Psi4 1.4a3.dev225

  ==> Input File <==

--------------------------------------------------------------------------
#psi4
#
memory 32 gb

molecule  {
0 1
  O       -0.4083860    -1.2037120     0.0000020
  O        1.7243640     1.6671510     0.0000140
  N        2.2253870    -0.5811730    -0.0000150
  C       -2.3031430     0.0242890     0.0000050
  C       -0.0581500     0.1228580    -0.0000120
  C       -1.1822370     0.9067590    -0.0000090
  C       -1.7775000    -1.2415930     0.0000090
  C        1.3735220     0.4821180    -0.0000010
  C       -3.8014123     0.4074181    -0.0000012
  C        3.6643050    -0.4088610     0.0000040
  H       -1.1841660     1.9889020    -0.0000190
  H       -2.2178060    -2.2289420     0.0000270
  H       -4.0072870     0.9882130    -0.8832630
  H       -4.3837090    -0.4981310     0.0000100
  H       -4.0072900     0.9882370     0.8832440
  H        1.8267750    -1.5109680    -0.0000190
  H        4.1132610    -0.8568050    -0.8912560
  H        4.1132390    -0.8567810     0.8912880
  H        3.8584940     0.6633720    -0.0000070
units angstrom
no_reorient  #important for SAPT in psi4, default
symmetry c1  #important for SAPT in psi4, default
}

set PROPERTIES_ORIGIN ["COM"]
properties('MP2/aug-cc-pvtz', properties = ['dipole'])
--------------------------------------------------------------------------

    Molecular point group: c1
  Charge       = 0
  Multiplicity = 1
  Basis Set: AUG-CC-PVTZ
    Blend: AUG-CC-PVTZ
  Basis Set: (AUG-CC-PVTZ AUX)
    Blend: AUG-CC-PVTZ-JKFIT

    Orbital Energies [Eh]
    ---------------------

    Doubly Occupied:

       1A    -20.636446     2A    -20.513872     3A    -15.586879
       4A    -11.358097     5A    -11.300492     6A    -11.298497
       7A    -11.257870     8A    -11.251746     9A    -11.246256
      10A    -11.238089    11A     -1.467578    12A     -1.368700
      13A     -1.229282    14A     -1.108836    15A     -1.039656
      16A     -0.972953    17A     -0.941456    18A     -0.839193
      19A     -0.796190    20A     -0.772596    21A     -0.735298
      22A     -0.667647    23A     -0.655551    24A     -0.635013
      25A     -0.617192    26A     -0.598962    27A     -0.589974
      28A     -0.587274    29A     -0.578499    30A     -0.545061
      31A     -0.536940    32A     -0.533905    33A     -0.526868
      34A     -0.431591    35A     -0.400005    36A     -0.388916
      37A     -0.323938

  @DF-RHF Final Energy:  -474.65240751916144

   => Energetics <=

    Nuclear Repulsion Energy =            508.8143310172369524
    One-Electron Energy =               -1655.7788373219825644
    Two-Electron Energy =                 672.3120987855841122
    Total Energy =                       -474.6524075191614429
  Basis Set: (AUG-CC-PVTZ AUX)
    Blend: AUG-CC-PVTZ-RI
    Molecular point group: c1

    Geometry (in Angstrom), charge = 0, multiplicity = 1:

       Center              X                  Y                   Z               Mass
    ------------   -----------------  -----------------  -----------------  -----------------
         O           -0.417680790561    -1.214189680671     0.000002082612    15.994914619570
         O            1.715069209439     1.656673319329     0.000014082612    15.994914619570
         N            2.216092209439    -0.591650680671    -0.000014917388    14.003074004430
         C           -2.312437790561     0.013811319329     0.000005082612    12.000000000000
         C           -0.067444790561     0.112380319329    -0.000011917388    12.000000000000
         C           -1.191531790561     0.896281319329    -0.000008917388    12.000000000000
         C           -1.786794790561    -1.252070680671     0.000009082612    12.000000000000
         C            1.364227209439     0.471640319329    -0.000000917388    12.000000000000
         C           -3.810707090561     0.396940419329    -0.000001117388    12.000000000000
         C            3.655010209439    -0.419338680671     0.000004082612    12.000000000000
         H           -1.193460790561     1.978424319329    -0.000018917388     1.007825032230
         H           -2.227100790561    -2.239419680671     0.000027082612     1.007825032230
         H           -4.016581790561     0.977735319329    -0.883262917388     1.007825032230
         H           -4.393003790561    -0.508608680671     0.000010082612     1.007825032230
         H           -4.016584790561     0.977759319329     0.883244082612     1.007825032230
         H            1.817480209439    -1.521445680671    -0.000018917388     1.007825032230
         H            4.103966209439    -0.867282680671    -0.891255917388     1.007825032230
         H            4.103944209439    -0.867258680671     0.891288082612     1.007825032230
         H            3.849199209439     0.652894319329    -0.000006917388     1.007825032230

  Basis Set: AUG-CC-PVTZ
    Blend: AUG-CC-PVTZ
  Basis Set: (AUG-CC-PVTZ AUX)
    Blend: AUG-CC-PVTZ-JKFIT
	 Reference Energy          =    -474.6524075191614429 [Eh]
	 Singles Energy            =      -0.0000000000000000 [Eh]
	 Same-Spin Energy          =      -0.4905449204602840 [Eh]
	 Opposite-Spin Energy      =      -1.5262594705126644 [Eh]
	 Correlation Energy        =      -2.0168043909729483 [Eh]
	 Total Energy              =    -476.6692119101343792 [Eh]

	 ================> DF-SCS-MP2 Energies <==================
	-----------------------------------------------------------
	 SCS Same-Spin Scale       =       0.3333333333333333 [-]
	 SCS Opposite-Spin Scale   =       1.2000000000000000 [-]
	 SCS Same-Spin Energy      =      -0.1635149734867613 [Eh]
	 SCS Opposite-Spin Energy  =      -1.8315113646151973 [Eh]
	 SCS Correlation Energy    =      -1.9950263381019586 [Eh]
	 SCS Total Energy          =    -476.6474338572634224 [Eh]
	-----------------------------------------------------------

  Dipole Moment: [D]
     X:    -1.3144      Y:    -3.1444      Z:    -0.0000     Total:     3.4081

*** Psi4 exiting successfully. Buy a developer a beer!
