                               Psi4 1.4a3.dev225

  ==> Input File <==

--------------------------------------------------------------------------
#psi4
#
memory 32 gb

molecule  {
0 1
  O       -0.4198458    -1.0608081    -0.0000003
  O        1.7243640     1.6671510     0.0000140
  N        2.2253870    -0.5811730    -0.0000150
  C       -2.3031430     0.0242890     0.0000050
  C       -0.0581500     0.1228580    -0.0000120
  C       -1.1822370     0.9067590    -0.0000090
  C       -1.7775000    -1.2415930     0.0000090
  C        1.3735220     0.4821180    -0.0000010
  C       -3.7529710     0.3950310    -0.0000010
  C        3.6643050    -0.4088610     0.0000040
  H       -1.1841660     1.9889020    -0.0000190
  H       -2.2178060    -2.2289420     0.0000270
  H       -4.0072870     0.9882130    -0.8832630
  H       -4.3837090    -0.4981310     0.0000100
  H       -4.0072900     0.9882370     0.8832440
  H        1.8267750    -1.5109680    -0.0000190
  H        4.1132610    -0.8568050    -0.8912560
  H        4.1132390    -0.8567810     0.8912880
  H        3.8584940     0.6633720    -0.0000070
units angstrom
no_reorient  #important for SAPT in psi4, default
symmetry c1  #important for SAPT in psi4, default
}

set PROPERTIES_ORIGIN ["COM"]
properties('MP2/aug-cc-pvtz', properties = ['dipole'])
--------------------------------------------------------------------------

    Molecular point group: c1
  Charge       = 0
  Multiplicity = 1
  Basis Set: AUG-CC-PVTZ
    Blend: AUG-CC-PVTZ
  Basis Set: (AUG-CC-PVTZ AUX)
    Blend: AUG-CC-PVTZ-JKFIT

    Orbital Energies [Eh]
    ---------------------

    Doubly Occupied:

       1A    -20.637516     2A    -20.516506     3A    -15.590566
       4A    -11.359113     5A    -11.294889     6A    -11.292820
       7A    -11.260269     8A    -11.248502     9A    -11.235737
      10A    -11.226802    11A     -1.522888    12A     -1.370932
      13A     -1.232545    14A     -1.107799    15A     -1.050461
      16A     -0.975113    17A     -0.950861    18A     -0.839809
      19A     -0.807221    20A     -0.775028    21A     -0.744837
      22A     -0.685885    23A     -0.684731    24A     -0.637886
      25A     -0.620804    26A     -0.601538    27A     -0.590046
      28A     -0.578988    29A     -0.563378    30A     -0.550168
      31A     -0.544098    32A     -0.534670    33A     -0.514250
      34A     -0.433152    35A     -0.395045    36A     -0.383576
      37A     -0.323109

  @DF-RHF Final Energy:  -474.63981446569079

   => Energetics <=

    Nuclear Repulsion Energy =            513.7545841928847494
    One-Electron Energy =               -1665.4257180591514498
    Two-Electron Energy =                 677.0313194005758533
    Total Energy =                       -474.6398144656908471
  Basis Set: (AUG-CC-PVTZ AUX)
    Blend: AUG-CC-PVTZ-RI
    Molecular point group: c1

    Geometry (in Angstrom), charge = 0, multiplicity = 1:

       Center              X                  Y                   Z               Mass
    ------------   -----------------  -----------------  -----------------  -----------------
         O           -0.432002574965    -1.086653530759     0.000000029898    15.994914619570
         O            1.712207225035     1.641305569241     0.000014329898    15.994914619570
         N            2.213230225035    -0.607018430759    -0.000014670102    14.003074004430
         C           -2.315299774965    -0.001556430759     0.000005329898    12.000000000000
         C           -0.070306774965     0.097012569241    -0.000011670102    12.000000000000
         C           -1.194393774965     0.880913569241    -0.000008670102    12.000000000000
         C           -1.789656774965    -1.267438430759     0.000009329898    12.000000000000
         C            1.361365225035     0.456272569241    -0.000000670102    12.000000000000
         C           -3.765127774965     0.369185569241    -0.000000670102    12.000000000000
         C            3.652148225035    -0.434706430759     0.000004329898    12.000000000000
         H           -1.196322774965     1.963056569241    -0.000018670102     1.007825032230
         H           -2.229962774965    -2.254787430759     0.000027329898     1.007825032230
         H           -4.019443774965     0.962367569241    -0.883262670102     1.007825032230
         H           -4.395865774965    -0.523976430759     0.000010329898     1.007825032230
         H           -4.019446774965     0.962391569241     0.883244329898     1.007825032230
         H            1.814618225035    -1.536813430759    -0.000018670102     1.007825032230
         H            4.101104225035    -0.882650430759    -0.891255670102     1.007825032230
         H            4.101082225035    -0.882626430759     0.891288329898     1.007825032230
         H            3.846337225035     0.637526569241    -0.000006670102     1.007825032230

  Basis Set: AUG-CC-PVTZ
    Blend: AUG-CC-PVTZ
  Basis Set: (AUG-CC-PVTZ AUX)
    Blend: AUG-CC-PVTZ-JKFIT
	 Reference Energy          =    -474.6398144656907903 [Eh]
	 Singles Energy            =      -0.0000000000000000 [Eh]
	 Same-Spin Energy          =      -0.4909168879553706 [Eh]
	 Opposite-Spin Energy      =      -1.5232538081787728 [Eh]
	 Correlation Energy        =      -2.0141706961341432 [Eh]
	 Total Energy              =    -476.6539851618249486 [Eh]

	 ================> DF-SCS-MP2 Energies <==================
	-----------------------------------------------------------
	 SCS Same-Spin Scale       =       0.3333333333333333 [-]
	 SCS Opposite-Spin Scale   =       1.2000000000000000 [-]
	 SCS Same-Spin Energy      =      -0.1636389626517902 [Eh]
	 SCS Opposite-Spin Energy  =      -1.8279045698145273 [Eh]
	 SCS Correlation Energy    =      -1.9915435324663175 [Eh]
	 SCS Total Energy          =    -476.6313579981571138 [Eh]
	-----------------------------------------------------------

  Dipole Moment: [D]
     X:    -1.0982      Y:    -3.5830      Z:    -0.0000     Total:     3.7475

*** Psi4 exiting successfully. Buy a developer a beer!
