                               Psi4 1.4a3.dev225

  ==> Input File <==

--------------------------------------------------------------------------
#psi4
#
memory 32 gb

molecule  {
0 1
  O       -0.4083860    -1.2037120     0.0000020
  O        1.7243640     1.6671510     0.0000140
  N        2.2253870    -0.5811730    -0.0000150
  C       -2.3031430     0.0242890     0.0000050
  C       -0.0581500     0.1228580    -0.0000120
  C       -1.1822370     0.9067590    -0.0000090
  C       -1.7775000    -1.2415930     0.0000090
  C        1.3610171     0.4977265    -0.0000008
  C       -3.7529710     0.3950310    -0.0000010
  C        3.6643050    -0.4088610     0.0000040
  H       -1.1841660     1.9889020    -0.0000190
  H       -2.2178060    -2.2289420     0.0000270
  H       -4.0072870     0.9882130    -0.8832630
  H       -4.3837090    -0.4981310     0.0000100
  H       -4.0072900     0.9882370     0.8832440
  H        1.8267750    -1.5109680    -0.0000190
  H        4.1132610    -0.8568050    -0.8912560
  H        4.1132390    -0.8567810     0.8912880
  H        3.8584940     0.6633720    -0.0000070
units angstrom
no_reorient  #important for SAPT in psi4, default
symmetry c1  #important for SAPT in psi4, default
}

set PROPERTIES_ORIGIN ["COM"]
properties('MP2/aug-cc-pvtz', properties = ['dipole'])
--------------------------------------------------------------------------

    Molecular point group: c1
  Charge       = 0
  Multiplicity = 1
  Basis Set: AUG-CC-PVTZ
    Blend: AUG-CC-PVTZ
  Basis Set: (AUG-CC-PVTZ AUX)
    Blend: AUG-CC-PVTZ-JKFIT

    Orbital Energies [Eh]
    ---------------------

    Doubly Occupied:

       1A    -20.637623     2A    -20.517379     3A    -15.582904
       4A    -11.358681     5A    -11.302059     6A    -11.298970
       7A    -11.255725     8A    -11.250845     9A    -11.247544
      10A    -11.239268    11A     -1.468631    12A     -1.375881
      13A     -1.222935    14A     -1.114001    15A     -1.042672
      16A     -0.972439    17A     -0.938234    18A     -0.841628
      19A     -0.797876    20A     -0.768098    21A     -0.736978
      22A     -0.669253    23A     -0.656536    24A     -0.634369
      25A     -0.614535    26A     -0.597170    27A     -0.595805
      28A     -0.580655    29A     -0.579251    30A     -0.551848
      31A     -0.541281    32A     -0.536188    33A     -0.522161
      34A     -0.434326    35A     -0.398978    36A     -0.387793
      37A     -0.324918

  @DF-RHF Final Energy:  -474.65394720878709

   => Energetics <=

    Nuclear Repulsion Energy =            509.6665669206158782
    One-Electron Energy =               -1657.4501524603360849
    Two-Electron Energy =                 673.1296383309331759
    Total Energy =                       -474.6539472087870308
  Basis Set: (AUG-CC-PVTZ AUX)
    Blend: AUG-CC-PVTZ-RI
    Molecular point group: c1

    Geometry (in Angstrom), charge = 0, multiplicity = 1:

       Center              X                  Y                   Z               Mass
    ------------   -----------------  -----------------  -----------------  -----------------
         O           -0.420781800759    -1.214467660498     0.000002048096    15.994914619570
         O            1.711968199241     1.656395339502     0.000014048096    15.994914619570
         N            2.212991199241    -0.591928660498    -0.000014951904    14.003074004430
         C           -2.315538800759     0.013533339502     0.000005048096    12.000000000000
         C           -0.070545800759     0.112102339502    -0.000011951904    12.000000000000
         C           -1.194632800759     0.896003339502    -0.000008951904    12.000000000000
         C           -1.789895800759    -1.252348660498     0.000009048096    12.000000000000
         C            1.348621299241     0.486970839502    -0.000000751904    12.000000000000
         C           -3.765366800759     0.384275339502    -0.000000951904    12.000000000000
         C            3.651909199241    -0.419616660498     0.000004048096    12.000000000000
         H           -1.196561800759     1.978146339502    -0.000018951904     1.007825032230
         H           -2.230201800759    -2.239697660498     0.000027048096     1.007825032230
         H           -4.019682800759     0.977457339502    -0.883262951904     1.007825032230
         H           -4.396104800759    -0.508886660498     0.000010048096     1.007825032230
         H           -4.019685800759     0.977481339502     0.883244048096     1.007825032230
         H            1.814379199241    -1.521723660498    -0.000018951904     1.007825032230
         H            4.100865199241    -0.867560660498    -0.891255951904     1.007825032230
         H            4.100843199241    -0.867536660498     0.891288048096     1.007825032230
         H            3.846098199241     0.652616339502    -0.000006951904     1.007825032230

  Basis Set: AUG-CC-PVTZ
    Blend: AUG-CC-PVTZ
  Basis Set: (AUG-CC-PVTZ AUX)
    Blend: AUG-CC-PVTZ-JKFIT
	 Reference Energy          =    -474.6539472087870877 [Eh]
	 Singles Energy            =      -0.0000000000000000 [Eh]
	 Same-Spin Energy          =      -0.4907557985112271 [Eh]
	 Opposite-Spin Energy      =      -1.5263079537670403 [Eh]
	 Correlation Energy        =      -2.0170637522782675 [Eh]
	 Total Energy              =    -476.6710109610653490 [Eh]

	 ================> DF-SCS-MP2 Energies <==================
	-----------------------------------------------------------
	 SCS Same-Spin Scale       =       0.3333333333333333 [-]
	 SCS Opposite-Spin Scale   =       1.2000000000000000 [-]
	 SCS Same-Spin Energy      =      -0.1635852661704090 [Eh]
	 SCS Opposite-Spin Energy  =      -1.8315695445204483 [Eh]
	 SCS Correlation Energy    =      -1.9951548106908572 [Eh]
	 SCS Total Energy          =    -476.6491020194779367 [Eh]
	-----------------------------------------------------------

  Dipole Moment: [D]
     X:    -1.4358      Y:    -3.0205      Z:    -0.0000     Total:     3.3444

*** Psi4 exiting successfully. Buy a developer a beer!
