                               Psi4 1.4a3.dev225

  ==> Input File <==

--------------------------------------------------------------------------
#psi4
#
memory 32 gb

molecule  {
0 1
  O       -0.4083860    -1.2037120     0.0000020
  O        1.7243640     1.6671510     0.0000140
  N        2.2253870    -0.5811730    -0.0000150
  C       -2.3031430     0.0242890     0.0000050
  C       -0.0581500     0.1228580    -0.0000120
  C       -1.1822370     0.9067590    -0.0000090
  C       -1.7775000    -1.2415930     0.0000090
  C        1.4497685     0.5389510    -0.0000011
  C       -3.7529710     0.3950310    -0.0000010
  C        3.6643050    -0.4088610     0.0000040
  H       -1.1841660     1.9889020    -0.0000190
  H       -2.2178060    -2.2289420     0.0000270
  H       -4.0072870     0.9882130    -0.8832630
  H       -4.3837090    -0.4981310     0.0000100
  H       -4.0072900     0.9882370     0.8832440
  H        1.8267750    -1.5109680    -0.0000190
  H        4.1132610    -0.8568050    -0.8912560
  H        4.1132390    -0.8567810     0.8912880
  H        3.8584940     0.6633720    -0.0000070
units angstrom
no_reorient  #important for SAPT in psi4, default
symmetry c1  #important for SAPT in psi4, default
}

set PROPERTIES_ORIGIN ["COM"]
properties('MP2/aug-cc-pvtz', properties = ['dipole'])
--------------------------------------------------------------------------

    Molecular point group: c1
  Charge       = 0
  Multiplicity = 1
  Basis Set: AUG-CC-PVTZ
    Blend: AUG-CC-PVTZ
  Basis Set: (AUG-CC-PVTZ AUX)
    Blend: AUG-CC-PVTZ-JKFIT

    Orbital Energies [Eh]
    ---------------------

    Doubly Occupied:

       1A    -20.630526     2A    -20.530573     3A    -15.585701
       4A    -11.361028     5A    -11.294732     6A    -11.291611
       7A    -11.258478     8A    -11.243786     9A    -11.235226
      10A    -11.234180    11A     -1.460853    12A     -1.424211
      13A     -1.238810    14A     -1.105722    15A     -1.026062
      16A     -0.966902    17A     -0.937178    18A     -0.824540
      19A     -0.789514    20A     -0.779406    21A     -0.729888
      22A     -0.673376    23A     -0.651082    24A     -0.646366
      25A     -0.622678    26A     -0.601928    27A     -0.590110
      28A     -0.575626    29A     -0.572519    30A     -0.557519
      31A     -0.548920    32A     -0.545673    33A     -0.517026
      34A     -0.434092    35A     -0.401309    36A     -0.390330
      37A     -0.316786

  @DF-RHF Final Energy:  -474.64721514664984

   => Energetics <=

    Nuclear Repulsion Energy =            509.5189769307024221
    One-Electron Energy =               -1657.1438520924580189
    Two-Electron Energy =                 672.9776600151058119
    Total Energy =                       -474.6472151466498417
  Basis Set: (AUG-CC-PVTZ AUX)
    Blend: AUG-CC-PVTZ-RI
    Molecular point group: c1

    Geometry (in Angstrom), charge = 0, multiplicity = 1:

       Center              X                  Y                   Z               Mass
    ------------   -----------------  -----------------  -----------------  -----------------
         O           -0.428440302905    -1.218024989416     0.000002073983    15.994914619570
         O            1.704309697095     1.652838010584     0.000014073983    15.994914619570
         N            2.205332697095    -0.595485989416    -0.000014926017    14.003074004430
         C           -2.323197302905     0.009976010584     0.000005073983    12.000000000000
         C           -0.078204302905     0.108545010584    -0.000011926017    12.000000000000
         C           -1.202291302905     0.892446010584    -0.000008926017    12.000000000000
         C           -1.797554302905    -1.255905989416     0.000009073983    12.000000000000
         C            1.429714197095     0.524638010584    -0.000001026017    12.000000000000
         C           -3.773025302905     0.380718010584    -0.000000926017    12.000000000000
         C            3.644250697095    -0.423173989416     0.000004073983    12.000000000000
         H           -1.204220302905     1.974589010584    -0.000018926017     1.007825032230
         H           -2.237860302905    -2.243254989416     0.000027073983     1.007825032230
         H           -4.027341302905     0.973900010584    -0.883262926017     1.007825032230
         H           -4.403763302905    -0.512443989416     0.000010073983     1.007825032230
         H           -4.027344302905     0.973924010584     0.883244073983     1.007825032230
         H            1.806720697095    -1.525280989416    -0.000018926017     1.007825032230
         H            4.093206697095    -0.871117989416    -0.891255926017     1.007825032230
         H            4.093184697095    -0.871093989416     0.891288073983     1.007825032230
         H            3.838439697095     0.649059010584    -0.000006926017     1.007825032230

  Basis Set: AUG-CC-PVTZ
    Blend: AUG-CC-PVTZ
  Basis Set: (AUG-CC-PVTZ AUX)
    Blend: AUG-CC-PVTZ-JKFIT
	 Reference Energy          =    -474.6472151466498417 [Eh]
	 Singles Energy            =      -0.0000000000000000 [Eh]
	 Same-Spin Energy          =      -0.4889975898060536 [Eh]
	 Opposite-Spin Energy      =      -1.5231673807422264 [Eh]
	 Correlation Energy        =      -2.0121649705482798 [Eh]
	 Total Energy              =    -476.6593801171981113 [Eh]

	 ================> DF-SCS-MP2 Energies <==================
	-----------------------------------------------------------
	 SCS Same-Spin Scale       =       0.3333333333333333 [-]
	 SCS Opposite-Spin Scale   =       1.2000000000000000 [-]
	 SCS Same-Spin Energy      =      -0.1629991966020178 [Eh]
	 SCS Opposite-Spin Energy  =      -1.8278008568906716 [Eh]
	 SCS Correlation Energy    =      -1.9908000534926895 [Eh]
	 SCS Total Energy          =    -476.6380152001425472 [Eh]
	-----------------------------------------------------------

  Dipole Moment: [D]
     X:    -0.6848      Y:    -2.7248      Z:    -0.0000     Total:     2.8096

*** Psi4 exiting successfully. Buy a developer a beer!
