                               Psi4 1.4a3.dev225

  ==> Input File <==

--------------------------------------------------------------------------
#psi4
#
memory 32 gb

molecule  {
0 1
  O       -0.4083860    -1.2037120     0.0000020
  O        1.7243640     1.6671510     0.0000140
  N        2.2253870    -0.5811730    -0.0000150
  C       -2.3031430     0.0242890     0.0000050
  C       -0.0581500     0.1228580    -0.0000120
  C       -1.1822370     0.9067590    -0.0000090
  C       -1.7775000    -1.2415930     0.0000090
  C        1.3735220     0.4821180    -0.0000010
  C       -3.7529710     0.3950310    -0.0000010
  C        3.6643050    -0.4088610     0.0000040
  H       -1.1841660     1.9889020    -0.0000190
  H       -2.2178060    -2.2289420     0.0000270
  H       -4.0072870     0.9882130    -0.8832630
  H       -4.3837090    -0.4981310     0.0000100
  H       -4.0072900     0.9882370     0.8832440
  H        1.8267750    -1.5109680    -0.0000190
  H        4.1337824    -0.8772801    -0.9319947
  H        4.1132390    -0.8567810     0.8912880
  H        3.8584940     0.6633720    -0.0000070
units angstrom
no_reorient  #important for SAPT in psi4, default
symmetry c1  #important for SAPT in psi4, default
}

set PROPERTIES_ORIGIN ["COM"]
properties('MP2/aug-cc-pvtz', properties = ['dipole'])
--------------------------------------------------------------------------

    Molecular point group: c1
  Charge       = 0
  Multiplicity = 1
  Basis Set: AUG-CC-PVTZ
    Blend: AUG-CC-PVTZ
  Basis Set: (AUG-CC-PVTZ AUX)
    Blend: AUG-CC-PVTZ-JKFIT

    Orbital Energies [Eh]
    ---------------------

    Doubly Occupied:

       1A    -20.636975     2A    -20.514561     3A    -15.587856
       4A    -11.358801     5A    -11.301115     6A    -11.299222
       7A    -11.264085     8A    -11.250351     9A    -11.246691
      10A    -11.238870    11A     -1.468197    12A     -1.369374
      13A     -1.229814    14A     -1.113295    15A     -1.040994
      16A     -0.972474    17A     -0.938739    18A     -0.839133
      19A     -0.796801    20A     -0.773486    21A     -0.736864
      22A     -0.668049    23A     -0.656091    24A     -0.635765
      25A     -0.613464    26A     -0.596638    27A     -0.590905
      28A     -0.580132    29A     -0.578819    30A     -0.551377
      31A     -0.542767    32A     -0.531405    33A     -0.521745
      34A     -0.432273    35A     -0.398950    36A     -0.388636
      37A     -0.324199

  @DF-RHF Final Energy:  -474.65194657991191

   => Energetics <=

    Nuclear Repulsion Energy =            509.4315312234095359
    One-Electron Energy =               -1656.9891320412748428
    Two-Electron Energy =                 672.9056542379533994
    Total Energy =                       -474.6519465799118507
  Basis Set: (AUG-CC-PVTZ AUX)
    Blend: AUG-CC-PVTZ-RI
    Molecular point group: c1

    Geometry (in Angstrom), charge = 0, multiplicity = 1:

       Center              X                  Y                   Z               Mass
    ------------   -----------------  -----------------  -----------------  -----------------
         O           -0.422009592316    -1.212972389814     0.000297308407    15.994914619570
         O            1.710740407684     1.657890610186     0.000309308407    15.994914619570
         N            2.211763407684    -0.590433389814     0.000280308407    14.003074004430
         C           -2.316766592316     0.015028610186     0.000300308407    12.000000000000
         C           -0.071773592316     0.113597610186     0.000283308407    12.000000000000
         C           -1.195860592316     0.897498610186     0.000286308407    12.000000000000
         C           -1.791123592316    -1.250853389814     0.000304308407    12.000000000000
         C            1.359898407684     0.472857610186     0.000294308407    12.000000000000
         C           -3.766594592316     0.385770610186     0.000294308407    12.000000000000
         C            3.650681407684    -0.418121389814     0.000299308407    12.000000000000
         H           -1.197789592316     1.979641610186     0.000276308407     1.007825032230
         H           -2.231429592316    -2.238202389814     0.000322308407     1.007825032230
         H           -4.020910592316     0.978952610186    -0.882967691593     1.007825032230
         H           -4.397332592316    -0.507391389814     0.000305308407     1.007825032230
         H           -4.020913592316     0.978976610186     0.883539308407     1.007825032230
         H            1.813151407684    -1.520228389814     0.000276308407     1.007825032230
         H            4.120158807684    -0.886540489814    -0.931699391593     1.007825032230
         H            4.099615407684    -0.866041389814     0.891583308407     1.007825032230
         H            3.844870407684     0.654111610186     0.000288308407     1.007825032230

  Basis Set: AUG-CC-PVTZ
    Blend: AUG-CC-PVTZ
  Basis Set: (AUG-CC-PVTZ AUX)
    Blend: AUG-CC-PVTZ-JKFIT
	 Reference Energy          =    -474.6519465799119075 [Eh]
	 Singles Energy            =      -0.0000000000000000 [Eh]
	 Same-Spin Energy          =      -0.4908374164759174 [Eh]
	 Opposite-Spin Energy      =      -1.5268008562223949 [Eh]
	 Correlation Energy        =      -2.0176382726983122 [Eh]
	 Total Energy              =    -476.6695848526102282 [Eh]

	 ================> DF-SCS-MP2 Energies <==================
	-----------------------------------------------------------
	 SCS Same-Spin Scale       =       0.3333333333333333 [-]
	 SCS Opposite-Spin Scale   =       1.2000000000000000 [-]
	 SCS Same-Spin Energy      =      -0.1636124721586391 [Eh]
	 SCS Opposite-Spin Energy  =      -1.8321610274668738 [Eh]
	 SCS Correlation Energy    =      -1.9957734996255130 [Eh]
	 SCS Total Energy          =    -476.6477200795374074 [Eh]
	-----------------------------------------------------------

  Dipole Moment: [D]
     X:    -1.3303      Y:    -3.1337      Z:     0.0210     Total:     3.4044

*** Psi4 exiting successfully. Buy a developer a beer!
