                               Psi4 1.4a3.dev225

  ==> Input File <==

--------------------------------------------------------------------------
#psi4
#
memory 32 gb

molecule  {
0 1
  O       -0.4083860    -1.2037120     0.0000020
  O        1.7243640     1.6671510     0.0000140
  N        2.2253870    -0.5811730    -0.0000150
  C       -2.3031430     0.0242890     0.0000050
  C       -0.0581500     0.1228580    -0.0000120
  C       -1.1822370     0.9067590    -0.0000090
  C       -1.7775000    -1.2415930     0.0000090
  C        1.3735220     0.4821180    -0.0000010
  C       -3.7529710     0.3950310    -0.0000010
  C        3.6643050    -0.4088610     0.0000040
  H       -1.1843443     2.0889018    -0.0000199
  H       -2.2178060    -2.2289420     0.0000270
  H       -4.0072870     0.9882130    -0.8832630
  H       -4.3837090    -0.4981310     0.0000100
  H       -4.0072900     0.9882370     0.8832440
  H        1.8267750    -1.5109680    -0.0000190
  H        4.1132610    -0.8568050    -0.8912560
  H        4.1132390    -0.8567810     0.8912880
  H        3.8584940     0.6633720    -0.0000070
units angstrom
no_reorient  #important for SAPT in psi4, default
symmetry c1  #important for SAPT in psi4, default
}

set PROPERTIES_ORIGIN ["COM"]
properties('MP2/aug-cc-pvtz', properties = ['dipole'])
--------------------------------------------------------------------------

    Molecular point group: c1
  Charge       = 0
  Multiplicity = 1
  Basis Set: AUG-CC-PVTZ
    Blend: AUG-CC-PVTZ
  Basis Set: (AUG-CC-PVTZ AUX)
    Blend: AUG-CC-PVTZ-JKFIT

    Orbital Energies [Eh]
    ---------------------

    Doubly Occupied:

       1A    -20.637187     2A    -20.513925     3A    -15.587070
       4A    -11.358283     5A    -11.301377     6A    -11.299355
       7A    -11.257996     8A    -11.256649     9A    -11.250758
      10A    -11.238669    11A     -1.468390    12A     -1.368771
      13A     -1.229451    14A     -1.112289    15A     -1.040241
      16A     -0.973013    17A     -0.940770    18A     -0.838289
      19A     -0.789764    20A     -0.772666    21A     -0.733875
      22A     -0.665973    23A     -0.656398    24A     -0.635866
      25A     -0.617356    26A     -0.593733    27A     -0.591021
      28A     -0.580033    29A     -0.564910    30A     -0.551402
      31A     -0.542507    32A     -0.533976    33A     -0.521286
      34A     -0.431655    35A     -0.399178    36A     -0.388877
      37A     -0.324284

  @DF-RHF Final Energy:  -474.64640346727401

   => Energetics <=

    Nuclear Repulsion Energy =            509.1575282923942041
    One-Electron Energy =               -1656.4733758260456398
    Two-Electron Energy =                 672.6694440663773094
    Total Energy =                       -474.6464034672740127
  Basis Set: (AUG-CC-PVTZ AUX)
    Blend: AUG-CC-PVTZ-RI
    Molecular point group: c1

    Geometry (in Angstrom), charge = 0, multiplicity = 1:

       Center              X                  Y                   Z               Mass
    ------------   -----------------  -----------------  -----------------  -----------------
         O           -0.421859576665    -1.213845500082     0.000002071877    15.994914619570
         O            1.710890423335     1.657017499918     0.000014071877    15.994914619570
         N            2.211913423335    -0.591306500082    -0.000014928123    14.003074004430
         C           -2.316616576665     0.014155499918     0.000005071877    12.000000000000
         C           -0.071623576665     0.112724499918    -0.000011928123    12.000000000000
         C           -1.195710576665     0.896625499918    -0.000008928123    12.000000000000
         C           -1.790973576665    -1.251726500082     0.000009071877    12.000000000000
         C            1.360048423335     0.471984499918    -0.000000928123    12.000000000000
         C           -3.766444576665     0.384897499918    -0.000000928123    12.000000000000
         C            3.650831423335    -0.418994500082     0.000004071877    12.000000000000
         H           -1.197817876665     2.078768299918    -0.000019828123     1.007825032230
         H           -2.231279576665    -2.239075500082     0.000027071877     1.007825032230
         H           -4.020760576665     0.978079499918    -0.883262928123     1.007825032230
         H           -4.397182576665    -0.508264500082     0.000010071877     1.007825032230
         H           -4.020763576665     0.978103499918     0.883244071877     1.007825032230
         H            1.813301423335    -1.521101500082    -0.000018928123     1.007825032230
         H            4.099787423335    -0.866938500082    -0.891255928123     1.007825032230
         H            4.099765423335    -0.866914500082     0.891288071877     1.007825032230
         H            3.845020423335     0.653238499918    -0.000006928123     1.007825032230

  Basis Set: AUG-CC-PVTZ
    Blend: AUG-CC-PVTZ
  Basis Set: (AUG-CC-PVTZ AUX)
    Blend: AUG-CC-PVTZ-JKFIT
	 Reference Energy          =    -474.6464034672740127 [Eh]
	 Singles Energy            =      -0.0000000000000000 [Eh]
	 Same-Spin Energy          =      -0.4910970581732819 [Eh]
	 Opposite-Spin Energy      =      -1.5274116278915231 [Eh]
	 Correlation Energy        =      -2.0185086860648052 [Eh]
	 Total Energy              =    -476.6649121533388325 [Eh]

	 ================> DF-SCS-MP2 Energies <==================
	-----------------------------------------------------------
	 SCS Same-Spin Scale       =       0.3333333333333333 [-]
	 SCS Opposite-Spin Scale   =       1.2000000000000000 [-]
	 SCS Same-Spin Energy      =      -0.1636990193910940 [Eh]
	 SCS Opposite-Spin Energy  =      -1.8328939534698276 [Eh]
	 SCS Correlation Energy    =      -1.9965929728609215 [Eh]
	 SCS Total Energy          =    -476.6429964401349366 [Eh]
	-----------------------------------------------------------

  Dipole Moment: [D]
     X:    -1.2964      Y:    -3.1313      Z:    -0.0000     Total:     3.3891

*** Psi4 exiting successfully. Buy a developer a beer!
