                               Psi4 1.4a3.dev225

  ==> Input File <==

--------------------------------------------------------------------------
#psi4
#
memory 32 gb

molecule  {
0 1
  O       -0.4083860    -1.2037120     0.0000020
  O        1.7243640     1.6671510     0.0000140
  N        2.2253870    -0.5811730    -0.0000150
  C       -2.3031430     0.0242890     0.0000050
  C       -0.0581500     0.1228580    -0.0000120
  C       -1.1822370     0.9067590    -0.0000090
  C       -1.7775000    -1.2415930     0.0000090
  C        1.3735220     0.4821180    -0.0000010
  C       -3.7045297     0.3826439    -0.0000008
  C        3.6643050    -0.4088610     0.0000040
  H       -1.1841660     1.9889020    -0.0000190
  H       -2.2178060    -2.2289420     0.0000270
  H       -4.0072870     0.9882130    -0.8832630
  H       -4.3837090    -0.4981310     0.0000100
  H       -4.0072900     0.9882370     0.8832440
  H        1.8267750    -1.5109680    -0.0000190
  H        4.1132610    -0.8568050    -0.8912560
  H        4.1132390    -0.8567810     0.8912880
  H        3.8584940     0.6633720    -0.0000070
units angstrom
no_reorient  #important for SAPT in psi4, default
symmetry c1  #important for SAPT in psi4, default
}

set PROPERTIES_ORIGIN ["COM"]
properties('MP2/aug-cc-pvtz', properties = ['dipole'])
--------------------------------------------------------------------------

    Molecular point group: c1
  Charge       = 0
  Multiplicity = 1
  Basis Set: AUG-CC-PVTZ
    Blend: AUG-CC-PVTZ
  Basis Set: (AUG-CC-PVTZ AUX)
    Blend: AUG-CC-PVTZ-JKFIT

    Orbital Energies [Eh]
    ---------------------

    Doubly Occupied:

       1A    -20.637074     2A    -20.514460     3A    -15.587410
       4A    -11.358677     5A    -11.301367     6A    -11.299475
       7A    -11.258236     8A    -11.248242     9A    -11.246556
      10A    -11.240117    11A     -1.468390    12A     -1.369262
      13A     -1.229804    14A     -1.118260    15A     -1.042468
      16A     -0.974280    17A     -0.940233    18A     -0.840641
      19A     -0.796912    20A     -0.773574    21A     -0.738813
      22A     -0.668628    23A     -0.656614    24A     -0.637174
      25A     -0.617600    26A     -0.595193    27A     -0.593779
      28A     -0.578745    29A     -0.573445    30A     -0.563265
      31A     -0.543231    32A     -0.534268    33A     -0.513969
      34A     -0.432188    35A     -0.397609    36A     -0.388787
      37A     -0.323929

  @DF-RHF Final Energy:  -474.65073429233098

   => Energetics <=

    Nuclear Repulsion Energy =            510.5188193000735737
    One-Electron Energy =               -1659.1337514361225658
    Two-Electron Energy =                 673.9641978437180114
    Total Energy =                       -474.6507342923309807
  Basis Set: (AUG-CC-PVTZ AUX)
    Blend: AUG-CC-PVTZ-RI
    Molecular point group: c1

    Geometry (in Angstrom), charge = 0, multiplicity = 1:

       Center              X                  Y                   Z               Mass
    ------------   -----------------  -----------------  -----------------  -----------------
         O           -0.426040947133    -1.212051874801     0.000002048096    15.994914619570
         O            1.706709052867     1.658811125199     0.000014048096    15.994914619570
         N            2.207732052867    -0.589512874801    -0.000014951904    14.003074004430
         C           -2.320797947133     0.015949125199     0.000005048096    12.000000000000
         C           -0.075804947133     0.114518125199    -0.000011951904    12.000000000000
         C           -1.199891947133     0.898419125199    -0.000008951904    12.000000000000
         C           -1.795154947133    -1.249932874801     0.000009048096    12.000000000000
         C            1.355867052867     0.473778125199    -0.000000951904    12.000000000000
         C           -3.722184647133     0.374304025199    -0.000000751904    12.000000000000
         C            3.646650052867    -0.417200874801     0.000004048096    12.000000000000
         H           -1.201820947133     1.980562125199    -0.000018951904     1.007825032230
         H           -2.235460947133    -2.237281874801     0.000027048096     1.007825032230
         H           -4.024941947133     0.979873125199    -0.883262951904     1.007825032230
         H           -4.401363947133    -0.506470874801     0.000010048096     1.007825032230
         H           -4.024944947133     0.979897125199     0.883244048096     1.007825032230
         H            1.809120052867    -1.519307874801    -0.000018951904     1.007825032230
         H            4.095606052867    -0.865144874801    -0.891255951904     1.007825032230
         H            4.095584052867    -0.865120874801     0.891288048096     1.007825032230
         H            3.840839052867     0.655032125199    -0.000006951904     1.007825032230

  Basis Set: AUG-CC-PVTZ
    Blend: AUG-CC-PVTZ
  Basis Set: (AUG-CC-PVTZ AUX)
    Blend: AUG-CC-PVTZ-JKFIT
	 Reference Energy          =    -474.6507342923309807 [Eh]
	 Singles Energy            =      -0.0000000000000000 [Eh]
	 Same-Spin Energy          =      -0.4913399503913854 [Eh]
	 Opposite-Spin Energy      =      -1.5270447353029815 [Eh]
	 Correlation Energy        =      -2.0183846856943668 [Eh]
	 Total Energy              =    -476.6691189780253239 [Eh]

	 ================> DF-SCS-MP2 Energies <==================
	-----------------------------------------------------------
	 SCS Same-Spin Scale       =       0.3333333333333333 [-]
	 SCS Opposite-Spin Scale   =       1.2000000000000000 [-]
	 SCS Same-Spin Energy      =      -0.1637799834637951 [Eh]
	 SCS Opposite-Spin Energy  =      -1.8324536823635778 [Eh]
	 SCS Correlation Energy    =      -1.9962336658273729 [Eh]
	 SCS Total Energy          =    -476.6469679581583705 [Eh]
	-----------------------------------------------------------

  Dipole Moment: [D]
     X:    -1.2692      Y:    -3.1510      Z:    -0.0000     Total:     3.3970

*** Psi4 exiting successfully. Buy a developer a beer!
