                               Psi4 1.4a3.dev225

  ==> Input File <==

--------------------------------------------------------------------------
#psi4
#
memory 32 gb

molecule  {
0 1
  O       -0.4083860    -1.2037120     0.0000020
  O        1.7243640     1.6671510     0.0000140
  N        2.2253870    -0.5811730    -0.0000150
  C       -2.3031430     0.0242890     0.0000050
  C       -0.0581500     0.1228580    -0.0000120
  C       -1.1822370     0.9067590    -0.0000090
  C       -1.7775000    -1.2415930     0.0000090
  C        1.3422597     0.5211394    -0.0000005
  C       -3.7529710     0.3950310    -0.0000010
  C        3.6643050    -0.4088610     0.0000040
  H       -1.1841660     1.9889020    -0.0000190
  H       -2.2178060    -2.2289420     0.0000270
  H       -4.0072870     0.9882130    -0.8832630
  H       -4.3837090    -0.4981310     0.0000100
  H       -4.0072900     0.9882370     0.8832440
  H        1.8267750    -1.5109680    -0.0000190
  H        4.1132610    -0.8568050    -0.8912560
  H        4.1132390    -0.8567810     0.8912880
  H        3.8584940     0.6633720    -0.0000070
units angstrom
no_reorient  #important for SAPT in psi4, default
symmetry c1  #important for SAPT in psi4, default
}

set PROPERTIES_ORIGIN ["COM"]
properties('MP2/aug-cc-pvtz', properties = ['dipole'])
--------------------------------------------------------------------------

    Molecular point group: c1
  Charge       = 0
  Multiplicity = 1
  Basis Set: AUG-CC-PVTZ
    Blend: AUG-CC-PVTZ
  Basis Set: (AUG-CC-PVTZ AUX)
    Blend: AUG-CC-PVTZ-JKFIT

    Orbital Energies [Eh]
    ---------------------

    Doubly Occupied:

       1A    -20.638941     2A    -20.522109     3A    -15.576416
       4A    -11.359034     5A    -11.303817     6A    -11.299073
       7A    -11.252255     8A    -11.251884     9A    -11.249222
      10A    -11.240075    11A     -1.469640    12A     -1.387082
      13A     -1.212713    14A     -1.115399    15A     -1.045306
      16A     -0.971503    17A     -0.934034    18A     -0.844267
      19A     -0.799833    20A     -0.761205    21A     -0.736659
      22A     -0.671059    23A     -0.657441    24A     -0.633315
      25A     -0.610512    26A     -0.601131    27A     -0.598009
      28A     -0.581449    29A     -0.580204    30A     -0.552585
      31A     -0.539986    32A     -0.538351    33A     -0.522602
      34A     -0.437130    35A     -0.399521    36A     -0.385085
      37A     -0.326254

  @DF-RHF Final Energy:  -474.65190222776596

   => Energetics <=

    Nuclear Repulsion Energy =            509.7006077385756271
    One-Electron Energy =               -1657.4948217885064423
    Two-Electron Energy =                 673.1423118221648565
    Total Energy =                       -474.6519022277659587
  Basis Set: (AUG-CC-PVTZ AUX)
    Blend: AUG-CC-PVTZ-RI
    Molecular point group: c1

    Geometry (in Angstrom), charge = 0, multiplicity = 1:

       Center              X                  Y                   Z               Mass
    ------------   -----------------  -----------------  -----------------  -----------------
         O           -0.419163194313    -1.216487997584     0.000002022208    15.994914619570
         O            1.713586805687     1.654375002416     0.000014022208    15.994914619570
         N            2.214609805687    -0.593948997584    -0.000014977792    14.003074004430
         C           -2.313920194313     0.011513002416     0.000005022208    12.000000000000
         C           -0.068927194313     0.110082002416    -0.000011977792    12.000000000000
         C           -1.193014194313     0.893983002416    -0.000008977792    12.000000000000
         C           -1.788277194313    -1.254368997584     0.000009022208    12.000000000000
         C            1.331482505687     0.508363402416    -0.000000477792    12.000000000000
         C           -3.763748194313     0.382255002416    -0.000000977792    12.000000000000
         C            3.653527805687    -0.421636997584     0.000004022208    12.000000000000
         H           -1.194943194313     1.976126002416    -0.000018977792     1.007825032230
         H           -2.228583194313    -2.241717997584     0.000027022208     1.007825032230
         H           -4.018064194313     0.975437002416    -0.883262977792     1.007825032230
         H           -4.394486194313    -0.510906997584     0.000010022208     1.007825032230
         H           -4.018067194313     0.975461002416     0.883244022208     1.007825032230
         H            1.815997805687    -1.523743997584    -0.000018977792     1.007825032230
         H            4.102483805687    -0.869580997584    -0.891255977792     1.007825032230
         H            4.102461805687    -0.869556997584     0.891288022208     1.007825032230
         H            3.847716805687     0.650596002416    -0.000006977792     1.007825032230

  Basis Set: AUG-CC-PVTZ
    Blend: AUG-CC-PVTZ
  Basis Set: (AUG-CC-PVTZ AUX)
    Blend: AUG-CC-PVTZ-JKFIT
	 Reference Energy          =    -474.6519022277659587 [Eh]
	 Singles Energy            =      -0.0000000000000000 [Eh]
	 Same-Spin Energy          =      -0.4906465565682013 [Eh]
	 Opposite-Spin Energy      =      -1.5260926024376913 [Eh]
	 Correlation Energy        =      -2.0167391590058927 [Eh]
	 Total Energy              =    -476.6686413867718670 [Eh]

	 ================> DF-SCS-MP2 Energies <==================
	-----------------------------------------------------------
	 SCS Same-Spin Scale       =       0.3333333333333333 [-]
	 SCS Opposite-Spin Scale   =       1.2000000000000000 [-]
	 SCS Same-Spin Energy      =      -0.1635488521894004 [Eh]
	 SCS Opposite-Spin Energy  =      -1.8313111229252295 [Eh]
	 SCS Correlation Energy    =      -1.9948599751146299 [Eh]
	 SCS Total Energy          =    -476.6467622028806090 [Eh]
	-----------------------------------------------------------

  Dipole Moment: [D]
     X:    -1.6544      Y:    -2.8291      Z:    -0.0000     Total:     3.2773

*** Psi4 exiting successfully. Buy a developer a beer!
