                               Psi4 1.4a3.dev225

  ==> Input File <==

--------------------------------------------------------------------------
#psi4
#
memory 32 gb

molecule  {
0 1
  O       -0.4119265    -1.3470309     0.0000043
  O        1.7243640     1.6671510     0.0000140
  N        2.2253870    -0.5811730    -0.0000150
  C       -2.3031430     0.0242890     0.0000050
  C       -0.0581500     0.1228580    -0.0000120
  C       -1.1822370     0.9067590    -0.0000090
  C       -1.7775000    -1.2415930     0.0000090
  C        1.3735220     0.4821180    -0.0000010
  C       -3.7529710     0.3950310    -0.0000010
  C        3.6643050    -0.4088610     0.0000040
  H       -1.1841660     1.9889020    -0.0000190
  H       -2.2178060    -2.2289420     0.0000270
  H       -4.0072870     0.9882130    -0.8832630
  H       -4.3837090    -0.4981310     0.0000100
  H       -4.0072900     0.9882370     0.8832440
  H        1.8267750    -1.5109680    -0.0000190
  H        4.1132610    -0.8568050    -0.8912560
  H        4.1132390    -0.8567810     0.8912880
  H        3.8584940     0.6633720    -0.0000070
units angstrom
no_reorient  #important for SAPT in psi4, default
symmetry c1  #important for SAPT in psi4, default
}

set PROPERTIES_ORIGIN ["COM"]
properties('MP2/aug-cc-pvtz', properties = ['dipole'])
--------------------------------------------------------------------------

    Molecular point group: c1
  Charge       = 0
  Multiplicity = 1
  Basis Set: AUG-CC-PVTZ
    Blend: AUG-CC-PVTZ
  Basis Set: (AUG-CC-PVTZ AUX)
    Blend: AUG-CC-PVTZ-JKFIT

    Orbital Energies [Eh]
    ---------------------

    Doubly Occupied:

       1A    -20.634934     2A    -20.513812     3A    -15.585312
       4A    -11.359255     5A    -11.306934     6A    -11.306524
       7A    -11.263495     8A    -11.256870     9A    -11.250912
      10A    -11.240889    11A     -1.428858    12A     -1.368682
      13A     -1.228001    14A     -1.122157    15A     -1.035054
      16A     -0.971714    17A     -0.933479    18A     -0.843140
      19A     -0.787312    20A     -0.773072    21A     -0.730815
      22A     -0.653139    23A     -0.638147    24A     -0.636007
      25A     -0.614060    26A     -0.598573    27A     -0.593048
      28A     -0.579506    29A     -0.573200    30A     -0.551514
      31A     -0.542586    32A     -0.535046    33A     -0.525891
      34A     -0.430655    35A     -0.410208    36A     -0.389797
      37A     -0.322195

  @DF-RHF Final Energy:  -474.63362378663123

   => Energetics <=

    Nuclear Repulsion Energy =            505.8590809597470752
    One-Electron Energy =               -1649.9158269278921125
    Two-Electron Energy =                 669.4231221815139179
    Total Energy =                       -474.6336237866312331
  Basis Set: (AUG-CC-PVTZ AUX)
    Blend: AUG-CC-PVTZ-RI
    Molecular point group: c1

    Geometry (in Angstrom), charge = 0, multiplicity = 1:

       Center              X                  Y                   Z               Mass
    ------------   -----------------  -----------------  -----------------  -----------------
         O           -0.424994144342    -1.339955291859     0.000004100811    15.994914619570
         O            1.711296355658     1.674226608141     0.000013800811    15.994914619570
         N            2.212319355658    -0.574097391859    -0.000015199189    14.003074004430
         C           -2.316210644342     0.031364608141     0.000004800811    12.000000000000
         C           -0.071217644342     0.129933608141    -0.000012199189    12.000000000000
         C           -1.195304644342     0.913834608141    -0.000009199189    12.000000000000
         C           -1.790567644342    -1.234517391859     0.000008800811    12.000000000000
         C            1.360454355658     0.489193608141    -0.000001199189    12.000000000000
         C           -3.766038644342     0.402106608141    -0.000001199189    12.000000000000
         C            3.651237355658    -0.401785391859     0.000003800811    12.000000000000
         H           -1.197233644342     1.995977608141    -0.000019199189     1.007825032230
         H           -2.230873644342    -2.221866391859     0.000026800811     1.007825032230
         H           -4.020354644342     0.995288608141    -0.883263199189     1.007825032230
         H           -4.396776644342    -0.491055391859     0.000009800811     1.007825032230
         H           -4.020357644342     0.995312608141     0.883243800811     1.007825032230
         H            1.813707355658    -1.503892391859    -0.000019199189     1.007825032230
         H            4.100193355658    -0.849729391859    -0.891256199189     1.007825032230
         H            4.100171355658    -0.849705391859     0.891287800811     1.007825032230
         H            3.845426355658     0.670447608141    -0.000007199189     1.007825032230

  Basis Set: AUG-CC-PVTZ
    Blend: AUG-CC-PVTZ
  Basis Set: (AUG-CC-PVTZ AUX)
    Blend: AUG-CC-PVTZ-JKFIT
	 Reference Energy          =    -474.6336237866312331 [Eh]
	 Singles Energy            =      -0.0000000000000000 [Eh]
	 Same-Spin Energy          =      -0.4914421378500287 [Eh]
	 Opposite-Spin Energy      =      -1.5308848771219739 [Eh]
	 Correlation Energy        =      -2.0223270149720025 [Eh]
	 Total Energy              =    -476.6559508016032396 [Eh]

	 ================> DF-SCS-MP2 Energies <==================
	-----------------------------------------------------------
	 SCS Same-Spin Scale       =       0.3333333333333333 [-]
	 SCS Opposite-Spin Scale   =       1.2000000000000000 [-]
	 SCS Same-Spin Energy      =      -0.1638140459500096 [Eh]
	 SCS Opposite-Spin Energy  =      -1.8370618525463684 [Eh]
	 SCS Correlation Energy    =      -2.0008758984963779 [Eh]
	 SCS Total Energy          =    -476.6344996851275937 [Eh]
	-----------------------------------------------------------

  Dipole Moment: [D]
     X:    -1.3589      Y:    -2.7365      Z:    -0.0000     Total:     3.0554

*** Psi4 exiting successfully. Buy a developer a beer!
