                               Psi4 1.4a3.dev225

  ==> Input File <==

--------------------------------------------------------------------------
#psi4
#
memory 32 gb

molecule  {
0 1
  O       -0.4083860    -1.2037120     0.0000020
  O        1.7243640     1.6671510     0.0000140
  N        2.2253870    -0.5811730    -0.0000150
  C       -2.3031430     0.0242890     0.0000050
  C       -0.0581500     0.1228580    -0.0000120
  C       -1.1234095     0.8264189    -0.0000089
  C       -1.7775000    -1.2415930     0.0000090
  C        1.3735220     0.4821180    -0.0000010
  C       -3.7529710     0.3950310    -0.0000010
  C        3.6643050    -0.4088610     0.0000040
  H       -1.1841660     1.9889020    -0.0000190
  H       -2.2178060    -2.2289420     0.0000270
  H       -4.0072870     0.9882130    -0.8832630
  H       -4.3837090    -0.4981310     0.0000100
  H       -4.0072900     0.9882370     0.8832440
  H        1.8267750    -1.5109680    -0.0000190
  H        4.1132610    -0.8568050    -0.8912560
  H        4.1132390    -0.8567810     0.8912880
  H        3.8584940     0.6633720    -0.0000070
units angstrom
no_reorient  #important for SAPT in psi4, default
symmetry c1  #important for SAPT in psi4, default
}

set PROPERTIES_ORIGIN ["COM"]
properties('MP2/aug-cc-pvtz', properties = ['dipole'])
--------------------------------------------------------------------------

    Molecular point group: c1
  Charge       = 0
  Multiplicity = 1
  Basis Set: AUG-CC-PVTZ
    Blend: AUG-CC-PVTZ
  Basis Set: (AUG-CC-PVTZ AUX)
    Blend: AUG-CC-PVTZ-JKFIT

    Orbital Energies [Eh]
    ---------------------

    Doubly Occupied:

       1A    -20.628760     2A    -20.514807     3A    -15.587766
       4A    -11.359121     5A    -11.300514     6A    -11.284757
       7A    -11.258381     8A    -11.247877     9A    -11.240958
      10A    -11.238720    11A     -1.467832    12A     -1.369523
      13A     -1.230022    14A     -1.117881    15A     -1.051402
      16A     -0.976789    17A     -0.941423    18A     -0.836664
      19A     -0.794660    20A     -0.772313    21A     -0.740619
      22A     -0.665527    23A     -0.658476    24A     -0.636555
      25A     -0.617738    26A     -0.593327    27A     -0.591659
      28A     -0.580602    29A     -0.566733    30A     -0.553583
      31A     -0.540589    32A     -0.534638    33A     -0.516669
      34A     -0.432610    35A     -0.405298    36A     -0.390024
      37A     -0.332519

  @DF-RHF Final Energy:  -474.64296309458604

   => Energetics <=

    Nuclear Repulsion Energy =            511.6049712828123575
    One-Electron Energy =               -1661.3412013271931755
    Two-Electron Energy =                 675.0932669497947245
    Total Energy =                       -474.6429630945860936
  Basis Set: (AUG-CC-PVTZ AUX)
    Blend: AUG-CC-PVTZ-RI
    Molecular point group: c1

    Geometry (in Angstrom), charge = 0, multiplicity = 1:

       Center              X                  Y                   Z               Mass
    ------------   -----------------  -----------------  -----------------  -----------------
         O           -0.426937189164    -1.206188100299     0.000002056725    15.994914619570
         O            1.705812810836     1.664674899701     0.000014056725    15.994914619570
         N            2.206835810836    -0.583649100299    -0.000014943275    14.003074004430
         C           -2.321694189164     0.021812899701     0.000005056725    12.000000000000
         C           -0.076701189164     0.120381899701    -0.000011943275    12.000000000000
         C           -1.141960689164     0.823942799701    -0.000008843275    12.000000000000
         C           -1.796051189164    -1.244069100299     0.000009056725    12.000000000000
         C            1.354970810836     0.479641899701    -0.000000943275    12.000000000000
         C           -3.771522189164     0.392554899701    -0.000000943275    12.000000000000
         C            3.645753810836    -0.411337100299     0.000004056725    12.000000000000
         H           -1.202717189164     1.986425899701    -0.000018943275     1.007825032230
         H           -2.236357189164    -2.231418100299     0.000027056725     1.007825032230
         H           -4.025838189164     0.985736899701    -0.883262943275     1.007825032230
         H           -4.402260189164    -0.500607100299     0.000010056725     1.007825032230
         H           -4.025841189164     0.985760899701     0.883244056725     1.007825032230
         H            1.808223810836    -1.513444100299    -0.000018943275     1.007825032230
         H            4.094709810836    -0.859281100299    -0.891255943275     1.007825032230
         H            4.094687810836    -0.859257100299     0.891288056725     1.007825032230
         H            3.839942810836     0.660895899701    -0.000006943275     1.007825032230

  Basis Set: AUG-CC-PVTZ
    Blend: AUG-CC-PVTZ
  Basis Set: (AUG-CC-PVTZ AUX)
    Blend: AUG-CC-PVTZ-JKFIT
	 Reference Energy          =    -474.6429630945860367 [Eh]
	 Singles Energy            =      -0.0000000000000000 [Eh]
	 Same-Spin Energy          =      -0.4896264144171012 [Eh]
	 Opposite-Spin Energy      =      -1.5244651374060771 [Eh]
	 Correlation Energy        =      -2.0140915518231783 [Eh]
	 Total Energy              =    -476.6570546464092217 [Eh]

	 ================> DF-SCS-MP2 Energies <==================
	-----------------------------------------------------------
	 SCS Same-Spin Scale       =       0.3333333333333333 [-]
	 SCS Opposite-Spin Scale   =       1.2000000000000000 [-]
	 SCS Same-Spin Energy      =      -0.1632088048057004 [Eh]
	 SCS Opposite-Spin Energy  =      -1.8293581648872925 [Eh]
	 SCS Correlation Energy    =      -1.9925669696929929 [Eh]
	 SCS Total Energy          =    -476.6355300642790098 [Eh]
	-----------------------------------------------------------

  Dipole Moment: [D]
     X:    -1.3153      Y:    -3.1216      Z:    -0.0000     Total:     3.3874

*** Psi4 exiting successfully. Buy a developer a beer!
