                               Psi4 1.4a3.dev225

  ==> Input File <==

--------------------------------------------------------------------------
#psi4
#
memory 32 gb

molecule  {
0 1
  O       -0.4083860    -1.2037120     0.0000020
  O        1.7243640     1.6671510     0.0000140
  N        2.2253870    -0.5811730    -0.0000150
  C       -2.3031430     0.0242890     0.0000050
  C       -0.0581500     0.1228580    -0.0000120
  C       -1.1822370     0.9067590    -0.0000090
  C       -1.7775000    -1.2415930     0.0000090
  C        1.3735220     0.4821180    -0.0000010
  C       -3.7529710     0.3950310    -0.0000010
  C        3.7635956    -0.3969708     0.0000053
  H       -1.1841660     1.9889020    -0.0000190
  H       -2.2178060    -2.2289420     0.0000270
  H       -4.0072870     0.9882130    -0.8832630
  H       -4.3837090    -0.4981310     0.0000100
  H       -4.0072900     0.9882370     0.8832440
  H        1.8267750    -1.5109680    -0.0000190
  H        4.1132610    -0.8568050    -0.8912560
  H        4.1132390    -0.8567810     0.8912880
  H        3.8584940     0.6633720    -0.0000070
units angstrom
no_reorient  #important for SAPT in psi4, default
symmetry c1  #important for SAPT in psi4, default
}

set PROPERTIES_ORIGIN ["COM"]
properties('MP2/aug-cc-pvtz', properties = ['dipole'])
--------------------------------------------------------------------------

    Molecular point group: c1
  Charge       = 0
  Multiplicity = 1
  Basis Set: AUG-CC-PVTZ
    Blend: AUG-CC-PVTZ
  Basis Set: (AUG-CC-PVTZ AUX)
    Blend: AUG-CC-PVTZ-JKFIT

    Orbital Energies [Eh]
    ---------------------

    Doubly Occupied:

       1A    -20.634573     2A    -20.510602     3A    -15.583321
       4A    -11.354888     5A    -11.298895     6A    -11.296837
       7A    -11.261883     8A    -11.248392     9A    -11.244188
      10A    -11.237463    11A     -1.465746    12A     -1.364143
      13A     -1.210133    14A     -1.111179    15A     -1.037188
      16A     -0.972719    17A     -0.944006    18A     -0.839697
      19A     -0.794547    20A     -0.764450    21A     -0.734031
      22A     -0.665375    23A     -0.653629    24A     -0.623124
      25A     -0.617921    26A     -0.594753    27A     -0.586647
      28A     -0.579155    29A     -0.573875    30A     -0.561438
      31A     -0.543989    32A     -0.540970    33A     -0.520258
      34A     -0.427897    35A     -0.397942    36A     -0.388399
      37A     -0.322090

  @DF-RHF Final Energy:  -474.64627379303812

   => Energetics <=

    Nuclear Repulsion Energy =            507.8698244455597433
    One-Electron Energy =               -1654.0195086147753045
    Two-Electron Energy =                 671.5034103761773849
    Total Energy =                       -474.6462737930381763
  Basis Set: (AUG-CC-PVTZ AUX)
    Blend: AUG-CC-PVTZ-RI
    Molecular point group: c1

    Geometry (in Angstrom), charge = 0, multiplicity = 1:

       Center              X                  Y                   Z               Mass
    ------------   -----------------  -----------------  -----------------  -----------------
         O           -0.430428815642    -1.214146802364     0.000001953175    15.994914619570
         O            1.702321184358     1.656716197636     0.000013953175    15.994914619570
         N            2.203344184358    -0.591607802364    -0.000015046825    14.003074004430
         C           -2.325185815642     0.013854197636     0.000004953175    12.000000000000
         C           -0.080192815642     0.112423197636    -0.000012046825    12.000000000000
         C           -1.204279815642     0.896324197636    -0.000009046825    12.000000000000
         C           -1.799542815642    -1.252027802364     0.000008953175    12.000000000000
         C            1.351479184358     0.471683197636    -0.000001046825    12.000000000000
         C           -3.775013815642     0.384596197636    -0.000001046825    12.000000000000
         C            3.741552784358    -0.407405602364     0.000005253175    12.000000000000
         H           -1.206208815642     1.978467197636    -0.000019046825     1.007825032230
         H           -2.239848815642    -2.239376802364     0.000026953175     1.007825032230
         H           -4.029329815642     0.977778197636    -0.883263046825     1.007825032230
         H           -4.405751815642    -0.508565802364     0.000009953175     1.007825032230
         H           -4.029332815642     0.977802197636     0.883243953175     1.007825032230
         H            1.804732184358    -1.521402802364    -0.000019046825     1.007825032230
         H            4.091218184358    -0.867239802364    -0.891256046825     1.007825032230
         H            4.091196184358    -0.867215802364     0.891287953175     1.007825032230
         H            3.836451184358     0.652937197636    -0.000007046825     1.007825032230

  Basis Set: AUG-CC-PVTZ
    Blend: AUG-CC-PVTZ
  Basis Set: (AUG-CC-PVTZ AUX)
    Blend: AUG-CC-PVTZ-JKFIT
	 Reference Energy          =    -474.6462737930381195 [Eh]
	 Singles Energy            =      -0.0000000000000000 [Eh]
	 Same-Spin Energy          =      -0.4905227304331369 [Eh]
	 Opposite-Spin Energy      =      -1.5269536832178638 [Eh]
	 Correlation Energy        =      -2.0174764136510008 [Eh]
	 Total Energy              =    -476.6637502066891443 [Eh]

	 ================> DF-SCS-MP2 Energies <==================
	-----------------------------------------------------------
	 SCS Same-Spin Scale       =       0.3333333333333333 [-]
	 SCS Opposite-Spin Scale   =       1.2000000000000000 [-]
	 SCS Same-Spin Energy      =      -0.1635075768110456 [Eh]
	 SCS Opposite-Spin Energy  =      -1.8323444198614365 [Eh]
	 SCS Correlation Energy    =      -1.9958519966724821 [Eh]
	 SCS Total Energy          =    -476.6421257897105761 [Eh]
	-----------------------------------------------------------

  Dipole Moment: [D]
     X:    -0.9710      Y:    -3.1992      Z:    -0.0000     Total:     3.3433

*** Psi4 exiting successfully. Buy a developer a beer!
