                               Psi4 1.4a3.dev225

  ==> Input File <==

--------------------------------------------------------------------------
#psi4
#
memory 32 gb

molecule  {
0 1
  O       -0.4083860    -1.2037120     0.0000020
  O        1.7243640     1.6671510     0.0000140
  N        2.2253870    -0.5811730    -0.0000150
  C       -2.3031430     0.0242890     0.0000050
  C       -0.0581500     0.1228580    -0.0000120
  C       -1.1822370     0.9067590    -0.0000090
  C       -1.7775000    -1.2415930     0.0000090
  C        1.4047843     0.4430966    -0.0000015
  C       -3.7529710     0.3950310    -0.0000010
  C        3.6643050    -0.4088610     0.0000040
  H       -1.1841660     1.9889020    -0.0000190
  H       -2.2178060    -2.2289420     0.0000270
  H       -4.0072870     0.9882130    -0.8832630
  H       -4.3837090    -0.4981310     0.0000100
  H       -4.0072900     0.9882370     0.8832440
  H        1.8267750    -1.5109680    -0.0000190
  H        4.1132610    -0.8568050    -0.8912560
  H        4.1132390    -0.8567810     0.8912880
  H        3.8584940     0.6633720    -0.0000070
units angstrom
no_reorient  #important for SAPT in psi4, default
symmetry c1  #important for SAPT in psi4, default
}

set PROPERTIES_ORIGIN ["COM"]
properties('MP2/aug-cc-pvtz', properties = ['dipole'])
--------------------------------------------------------------------------

    Molecular point group: c1
  Charge       = 0
  Multiplicity = 1
  Basis Set: AUG-CC-PVTZ
    Blend: AUG-CC-PVTZ
  Basis Set: (AUG-CC-PVTZ AUX)
    Blend: AUG-CC-PVTZ-JKFIT

    Orbital Energies [Eh]
    ---------------------

    Doubly Occupied:

       1A    -20.634678     2A    -20.505891     3A    -15.597429
       4A    -11.357290     5A    -11.299242     6A    -11.298091
       7A    -11.263925     8A    -11.248526     9A    -11.243760
      10A    -11.237442    11A     -1.466423    12A     -1.355320
      13A     -1.243822    14A     -1.110947    15A     -1.037235
      16A     -0.977507    17A     -0.945960    18A     -0.835903
      19A     -0.794190    20A     -0.785310    21A     -0.736885
      22A     -0.665907    23A     -0.655516    24A     -0.641003
      25A     -0.624725    26A     -0.594767    27A     -0.578894
      28A     -0.578801    29A     -0.576826    30A     -0.552032
      31A     -0.546209    32A     -0.530873    33A     -0.520445
      34A     -0.424251    35A     -0.399920    36A     -0.389346
      37A     -0.321719

  @DF-RHF Final Energy:  -474.64948000758085

   => Energetics <=

    Nuclear Repulsion Energy =            509.6399701547320547
    One-Electron Energy =               -1657.4248778632961603
    Two-Electron Energy =                 673.1354277009833140
    Total Energy =                       -474.6494800075807916
  Basis Set: (AUG-CC-PVTZ AUX)
    Blend: AUG-CC-PVTZ-RI
    Molecular point group: c1

    Geometry (in Angstrom), charge = 0, multiplicity = 1:

       Center              X                  Y                   Z               Mass
    ------------   -----------------  -----------------  -----------------  -----------------
         O           -0.424558543381    -1.209753557888     0.000002108500    15.994914619570
         O            1.708191456619     1.661109442112     0.000014108500    15.994914619570
         N            2.209214456619    -0.587214557888    -0.000014891500    14.003074004430
         C           -2.319315543381     0.018247442112     0.000005108500    12.000000000000
         C           -0.074322543381     0.116816442112    -0.000011891500    12.000000000000
         C           -1.198409543381     0.900717442112    -0.000008891500    12.000000000000
         C           -1.793672543381    -1.247634557888     0.000009108500    12.000000000000
         C            1.388611756619     0.437055042112    -0.000001391500    12.000000000000
         C           -3.769143543381     0.388989442112    -0.000000891500    12.000000000000
         C            3.648132456619    -0.414902557888     0.000004108500    12.000000000000
         H           -1.200338543381     1.982860442112    -0.000018891500     1.007825032230
         H           -2.233978543381    -2.234983557888     0.000027108500     1.007825032230
         H           -4.023459543381     0.982171442112    -0.883262891500     1.007825032230
         H           -4.399881543381    -0.504172557888     0.000010108500     1.007825032230
         H           -4.023462543381     0.982195442112     0.883244108500     1.007825032230
         H            1.810602456619    -1.517009557888    -0.000018891500     1.007825032230
         H            4.097088456619    -0.862846557888    -0.891255891500     1.007825032230
         H            4.097066456619    -0.862822557888     0.891288108500     1.007825032230
         H            3.842321456619     0.657330442112    -0.000006891500     1.007825032230

  Basis Set: AUG-CC-PVTZ
    Blend: AUG-CC-PVTZ
  Basis Set: (AUG-CC-PVTZ AUX)
    Blend: AUG-CC-PVTZ-JKFIT
	 Reference Energy          =    -474.6494800075808485 [Eh]
	 Singles Energy            =      -0.0000000000000000 [Eh]
	 Same-Spin Energy          =      -0.4911109987677039 [Eh]
	 Opposite-Spin Energy      =      -1.5270113088508241 [Eh]
	 Correlation Energy        =      -2.0181223076185280 [Eh]
	 Total Energy              =    -476.6676023151993604 [Eh]

	 ================> DF-SCS-MP2 Energies <==================
	-----------------------------------------------------------
	 SCS Same-Spin Scale       =       0.3333333333333333 [-]
	 SCS Opposite-Spin Scale   =       1.2000000000000000 [-]
	 SCS Same-Spin Energy      =      -0.1637036662559013 [Eh]
	 SCS Opposite-Spin Energy  =      -1.8324135706209890 [Eh]
	 SCS Correlation Energy    =      -1.9961172368768902 [Eh]
	 SCS Total Energy          =    -476.6455972444577469 [Eh]
	-----------------------------------------------------------

  Dipole Moment: [D]
     X:    -0.9520      Y:    -3.4644      Z:    -0.0000     Total:     3.5928

*** Psi4 exiting successfully. Buy a developer a beer!
