                               Psi4 1.4a3.dev225

  ==> Input File <==

--------------------------------------------------------------------------
#psi4
#
memory 32 gb

molecule  {
0 1
  O       -0.4078980    -1.2515165     0.0000028
  O        1.7243640     1.6671510     0.0000140
  N        2.2253870    -0.5811730    -0.0000150
  C       -2.3031430     0.0242890     0.0000050
  C       -0.0581500     0.1228580    -0.0000120
  C       -1.1822370     0.9067590    -0.0000090
  C       -1.7775000    -1.2415930     0.0000090
  C        1.3735220     0.4821180    -0.0000010
  C       -3.7529710     0.3950310    -0.0000010
  C        3.6643050    -0.4088610     0.0000040
  H       -1.1841660     1.9889020    -0.0000190
  H       -2.2178060    -2.2289420     0.0000270
  H       -4.0072870     0.9882130    -0.8832630
  H       -4.3837090    -0.4981310     0.0000100
  H       -4.0072900     0.9882370     0.8832440
  H        1.8267750    -1.5109680    -0.0000190
  H        4.1132610    -0.8568050    -0.8912560
  H        4.1132390    -0.8567810     0.8912880
  H        3.8584940     0.6633720    -0.0000070
units angstrom
no_reorient  #important for SAPT in psi4, default
symmetry c1  #important for SAPT in psi4, default
}

set PROPERTIES_ORIGIN ["COM"]
properties('MP2/aug-cc-pvtz', properties = ['dipole'])
--------------------------------------------------------------------------

    Molecular point group: c1
  Charge       = 0
  Multiplicity = 1
  Basis Set: AUG-CC-PVTZ
    Blend: AUG-CC-PVTZ
  Basis Set: (AUG-CC-PVTZ AUX)
    Blend: AUG-CC-PVTZ-JKFIT

    Orbital Energies [Eh]
    ---------------------

    Doubly Occupied:

       1A    -20.636335     2A    -20.513820     3A    -15.586364
       4A    -11.358470     5A    -11.302841     6A    -11.301484
       7A    -11.257549     8A    -11.252597     9A    -11.250336
      10A    -11.239543    11A     -1.453347    12A     -1.368694
      13A     -1.228869    14A     -1.115975    15A     -1.038546
      16A     -0.972826    17A     -0.938031    18A     -0.840783
      19A     -0.793221    20A     -0.772906    21A     -0.734715
      22A     -0.662403    23A     -0.648976    24A     -0.635730
      25A     -0.616304    26A     -0.596900    27A     -0.590296
      28A     -0.580351    29A     -0.580126    30A     -0.551663
      31A     -0.542948    32A     -0.534253    33A     -0.523541
      34A     -0.431431    35A     -0.402412    36A     -0.389394
      37A     -0.323546

  @DF-RHF Final Energy:  -474.65004480960243

   => Energetics <=

    Nuclear Repulsion Energy =            508.3526389363581188
    One-Electron Energy =               -1654.8703149429936730
    Two-Electron Energy =                 671.8676311970331199
    Total Energy =                       -474.6500448096024911
  Basis Set: (AUG-CC-PVTZ AUX)
    Blend: AUG-CC-PVTZ-RI
    Molecular point group: c1

    Geometry (in Angstrom), charge = 0, multiplicity = 1:

       Center              X                  Y                   Z               Mass
    ------------   -----------------  -----------------  -----------------  -----------------
         O           -0.421428998083    -1.255426855514     0.000002773339    15.994914619570
         O            1.710833001917     1.663240644486     0.000013973339    15.994914619570
         N            2.211856001917    -0.585083355514    -0.000015026661    14.003074004430
         C           -2.316673998083     0.020378644486     0.000004973339    12.000000000000
         C           -0.071680998083     0.118947644486    -0.000012026661    12.000000000000
         C           -1.195767998083     0.902848644486    -0.000009026661    12.000000000000
         C           -1.791030998083    -1.245503355514     0.000008973339    12.000000000000
         C            1.359991001917     0.478207644486    -0.000001026661    12.000000000000
         C           -3.766501998083     0.391120644486    -0.000001026661    12.000000000000
         C            3.650774001917    -0.412771355514     0.000003973339    12.000000000000
         H           -1.197696998083     1.984991644486    -0.000019026661     1.007825032230
         H           -2.231336998083    -2.232852355514     0.000026973339     1.007825032230
         H           -4.020817998083     0.984302644486    -0.883263026661     1.007825032230
         H           -4.397239998083    -0.502041355514     0.000009973339     1.007825032230
         H           -4.020820998083     0.984326644486     0.883243973339     1.007825032230
         H            1.813244001917    -1.514878355514    -0.000019026661     1.007825032230
         H            4.099730001917    -0.860715355514    -0.891256026661     1.007825032230
         H            4.099708001917    -0.860691355514     0.891287973339     1.007825032230
         H            3.844963001917     0.659461644486    -0.000007026661     1.007825032230

  Basis Set: AUG-CC-PVTZ
    Blend: AUG-CC-PVTZ
  Basis Set: (AUG-CC-PVTZ AUX)
    Blend: AUG-CC-PVTZ-JKFIT
	 Reference Energy          =    -474.6500448096024343 [Eh]
	 Singles Energy            =      -0.0000000000000000 [Eh]
	 Same-Spin Energy          =      -0.4909582243529111 [Eh]
	 Opposite-Spin Energy      =      -1.5278188886891091 [Eh]
	 Correlation Energy        =      -2.0187771130420202 [Eh]
	 Total Energy              =    -476.6688219226444403 [Eh]

	 ================> DF-SCS-MP2 Energies <==================
	-----------------------------------------------------------
	 SCS Same-Spin Scale       =       0.3333333333333333 [-]
	 SCS Opposite-Spin Scale   =       1.2000000000000000 [-]
	 SCS Same-Spin Energy      =      -0.1636527414509704 [Eh]
	 SCS Opposite-Spin Energy  =      -1.8333826664269308 [Eh]
	 SCS Correlation Energy    =      -1.9970354078779011 [Eh]
	 SCS Total Energy          =    -476.6470802174803225 [Eh]
	-----------------------------------------------------------

  Dipole Moment: [D]
     X:    -1.3286      Y:    -3.0077      Z:    -0.0000     Total:     3.2881

*** Psi4 exiting successfully. Buy a developer a beer!
