                               Psi4 1.4a3.dev225

  ==> Input File <==

--------------------------------------------------------------------------
#psi4
#
memory 32 gb

molecule  {
0 1
  O       -0.4083860    -1.2037120     0.0000020
  O        1.7243640     1.6671510     0.0000140
  N        2.2253870    -0.5811730    -0.0000150
  C       -2.3031430     0.0242890     0.0000050
  C       -0.0581500     0.1228580    -0.0000120
  C       -1.1822370     0.9067590    -0.0000090
  C       -1.7775000    -1.2415930     0.0000090
  C        1.3735220     0.4821180    -0.0000010
  C       -3.9467362     0.4445796    -0.0000018
  C        3.6643050    -0.4088610     0.0000040
  H       -1.1841660     1.9889020    -0.0000190
  H       -2.2178060    -2.2289420     0.0000270
  H       -4.0072870     0.9882130    -0.8832630
  H       -4.3837090    -0.4981310     0.0000100
  H       -4.0072900     0.9882370     0.8832440
  H        1.8267750    -1.5109680    -0.0000190
  H        4.1132610    -0.8568050    -0.8912560
  H        4.1132390    -0.8567810     0.8912880
  H        3.8584940     0.6633720    -0.0000070
units angstrom
no_reorient  #important for SAPT in psi4, default
symmetry c1  #important for SAPT in psi4, default
}

set PROPERTIES_ORIGIN ["COM"]
properties('MP2/aug-cc-pvtz', properties = ['dipole'])
--------------------------------------------------------------------------

    Molecular point group: c1
  Charge       = 0
  Multiplicity = 1
  Basis Set: AUG-CC-PVTZ
    Blend: AUG-CC-PVTZ
  Basis Set: (AUG-CC-PVTZ AUX)
    Blend: AUG-CC-PVTZ-JKFIT

    Orbital Energies [Eh]
    ---------------------

    Doubly Occupied:

       1A    -20.635401     2A    -20.512991     3A    -15.586087
       4A    -11.357214     5A    -11.299383     6A    -11.297054
       7A    -11.257315     8A    -11.254294     9A    -11.245583
      10A    -11.241143    11A     -1.466347    12A     -1.367854
      13A     -1.228504    14A     -1.099733    15A     -1.036215
      16A     -0.973436    17A     -0.943239    18A     -0.837366
      19A     -0.794749    20A     -0.771287    21A     -0.730915
      22A     -0.666441    23A     -0.654232    24A     -0.633159
      25A     -0.617579    26A     -0.612154    27A     -0.607681
      28A     -0.587798    29A     -0.577794    30A     -0.548356
      31A     -0.536093    32A     -0.533229    33A     -0.488652
      34A     -0.430521    35A     -0.401443    36A     -0.388477
      37A     -0.323145

  @DF-RHF Final Energy:  -474.62643528791750

   => Energetics <=

    Nuclear Repulsion Energy =            506.4437139415470597
    One-Electron Energy =               -1651.0545725563415544
    Two-Electron Energy =                 669.9844233268770495
    Total Energy =                       -474.6264352879175021
  Basis Set: (AUG-CC-PVTZ AUX)
    Blend: AUG-CC-PVTZ-RI
    Molecular point group: c1

    Geometry (in Angstrom), charge = 0, multiplicity = 1:

       Center              X                  Y                   Z               Mass
    ------------   -----------------  -----------------  -----------------  -----------------
         O           -0.405140555703    -1.217396406734     0.000002134387    15.994914619570
         O            1.727609444297     1.653466593266     0.000014134387    15.994914619570
         N            2.228632444297    -0.594857406734    -0.000014865613    14.003074004430
         C           -2.299897555703     0.010604593266     0.000005134387    12.000000000000
         C           -0.054904555703     0.109173593266    -0.000011865613    12.000000000000
         C           -1.178991555703     0.893074593266    -0.000008865613    12.000000000000
         C           -1.774254555703    -1.255277406734     0.000009134387    12.000000000000
         C            1.376767444297     0.468433593266    -0.000000865613    12.000000000000
         C           -3.943490755703     0.430895193266    -0.000001665613    12.000000000000
         C            3.667550444297    -0.422545406734     0.000004134387    12.000000000000
         H           -1.180920555703     1.975217593266    -0.000018865613     1.007825032230
         H           -2.214560555703    -2.242626406734     0.000027134387     1.007825032230
         H           -4.004041555703     0.974528593266    -0.883262865613     1.007825032230
         H           -4.380463555703    -0.511815406734     0.000010134387     1.007825032230
         H           -4.004044555703     0.974552593266     0.883244134387     1.007825032230
         H            1.830020444297    -1.524652406734    -0.000018865613     1.007825032230
         H            4.116506444297    -0.870489406734    -0.891255865613     1.007825032230
         H            4.116484444297    -0.870465406734     0.891288134387     1.007825032230
         H            3.861739444297     0.649687593266    -0.000006865613     1.007825032230

  Basis Set: AUG-CC-PVTZ
    Blend: AUG-CC-PVTZ
  Basis Set: (AUG-CC-PVTZ AUX)
    Blend: AUG-CC-PVTZ-JKFIT
	 Reference Energy          =    -474.6264352879175021 [Eh]
	 Singles Energy            =      -0.0000000000000000 [Eh]
	 Same-Spin Energy          =      -0.4906294176590554 [Eh]
	 Opposite-Spin Energy      =      -1.5273526868640501 [Eh]
	 Correlation Energy        =      -2.0179821045231057 [Eh]
	 Total Energy              =    -476.6444173924406300 [Eh]

	 ================> DF-SCS-MP2 Energies <==================
	-----------------------------------------------------------
	 SCS Same-Spin Scale       =       0.3333333333333333 [-]
	 SCS Opposite-Spin Scale   =       1.2000000000000000 [-]
	 SCS Same-Spin Energy      =      -0.1635431392196851 [Eh]
	 SCS Opposite-Spin Energy  =      -1.8328232242368601 [Eh]
	 SCS Correlation Energy    =      -1.9963663634565452 [Eh]
	 SCS Total Energy          =    -476.6228016513740613 [Eh]
	-----------------------------------------------------------

  Dipole Moment: [D]
     X:    -1.3502      Y:    -3.1399      Z:    -0.0000     Total:     3.4179

*** Psi4 exiting successfully. Buy a developer a beer!
