                               Psi4 1.4a3.dev225

  ==> Input File <==

--------------------------------------------------------------------------
#psi4
#
memory 32 gb

molecule  {
0 1
  O       -0.4083860    -1.2037120     0.0000020
  O        1.7243640     1.6671510     0.0000140
  N        2.2253870    -0.5811730    -0.0000150
  C       -2.3031430     0.0242890     0.0000050
  C       -0.0581500     0.1228580    -0.0000120
  C       -1.1822370     0.9067590    -0.0000090
  C       -1.7775000    -1.2415930     0.0000090
  C        1.3735220     0.4821180    -0.0000010
  C       -3.7529710     0.3950310    -0.0000010
  C        3.6643050    -0.4088610     0.0000040
  H       -1.1841660     1.9889020    -0.0000190
  H       -2.2178060    -2.2289420     0.0000270
  H       -4.0072870     0.9882130    -0.8832630
  H       -4.3837090    -0.4981310     0.0000100
  H       -4.0072900     0.9882370     0.8832440
  H        1.8267750    -1.5109680    -0.0000190
  H        4.1132610    -0.8568050    -0.8912560
  H        4.0728023    -0.9571495     0.8538605
  H        3.8584940     0.6633720    -0.0000070
units angstrom
no_reorient  #important for SAPT in psi4, default
symmetry c1  #important for SAPT in psi4, default
}

set PROPERTIES_ORIGIN ["COM"]
properties('MP2/aug-cc-pvtz', properties = ['dipole'])
--------------------------------------------------------------------------

    Molecular point group: c1
  Charge       = 0
  Multiplicity = 1
  Basis Set: AUG-CC-PVTZ
    Blend: AUG-CC-PVTZ
  Basis Set: (AUG-CC-PVTZ AUX)
    Blend: AUG-CC-PVTZ-JKFIT

    Orbital Energies [Eh]
    ---------------------

    Doubly Occupied:

       1A    -20.636653     2A    -20.513959     3A    -15.586539
       4A    -11.358045     5A    -11.300773     6A    -11.298817
       7A    -11.258802     8A    -11.250065     9A    -11.246263
      10A    -11.238661    11A     -1.467867    12A     -1.368877
      13A     -1.229776    14A     -1.112981    15A     -1.040995
      16A     -0.973620    17A     -0.940965    18A     -0.839216
      19A     -0.796470    20A     -0.773467    21A     -0.736918
      22A     -0.668520    23A     -0.655864    24A     -0.634722
      25A     -0.614826    26A     -0.596336    27A     -0.591998
      28A     -0.580038    29A     -0.578791    30A     -0.553354
      31A     -0.548655    32A     -0.531468    33A     -0.521978
      34A     -0.431699    35A     -0.398448    36A     -0.387604
      37A     -0.323819

  @DF-RHF Final Energy:  -474.65285459228204

   => Energetics <=

    Nuclear Repulsion Energy =            509.6968612231147517
    One-Electron Energy =               -1657.5237354612982017
    Two-Electron Energy =                 673.1740196459013532
    Total Energy =                       -474.6528545922819831
  Basis Set: (AUG-CC-PVTZ AUX)
    Blend: AUG-CC-PVTZ-RI
    Molecular point group: c1

    Geometry (in Angstrom), charge = 0, multiplicity = 1:

       Center              X                  Y                   Z               Mass
    ------------   -----------------  -----------------  -----------------  -----------------
         O           -0.421567814460    -1.212393383334     0.000273311352    15.994914619570
         O            1.711182185540     1.658469616666     0.000285311352    15.994914619570
         N            2.212205185540    -0.589854383334     0.000256311352    14.003074004430
         C           -2.316324814460     0.015607616666     0.000276311352    12.000000000000
         C           -0.071331814460     0.114176616666     0.000259311352    12.000000000000
         C           -1.195418814460     0.898077616666     0.000262311352    12.000000000000
         C           -1.790681814460    -1.250274383334     0.000280311352    12.000000000000
         C            1.360340185540     0.473436616666     0.000270311352    12.000000000000
         C           -3.766152814460     0.386349616666     0.000270311352    12.000000000000
         C            3.651123185540    -0.417542383334     0.000275311352    12.000000000000
         H           -1.197347814460     1.980220616666     0.000252311352     1.007825032230
         H           -2.230987814460    -2.237623383334     0.000298311352     1.007825032230
         H           -4.020468814460     0.979531616666    -0.882991688648     1.007825032230
         H           -4.396890814460    -0.506812383334     0.000281311352     1.007825032230
         H           -4.020471814460     0.979555616666     0.883515311352     1.007825032230
         H            1.813593185540    -1.519649383334     0.000252311352     1.007825032230
         H            4.100079185540    -0.865486383334    -0.890984688648     1.007825032230
         H            4.059620485540    -0.965830883334     0.854131811352     1.007825032230
         H            3.845312185540     0.654690616666     0.000264311352     1.007825032230

  Basis Set: AUG-CC-PVTZ
    Blend: AUG-CC-PVTZ
  Basis Set: (AUG-CC-PVTZ AUX)
    Blend: AUG-CC-PVTZ-JKFIT
	 Reference Energy          =    -474.6528545922820399 [Eh]
	 Singles Energy            =      -0.0000000000000000 [Eh]
	 Same-Spin Energy          =      -0.4908588766578945 [Eh]
	 Opposite-Spin Energy      =      -1.5265317263283185 [Eh]
	 Correlation Energy        =      -2.0173906029862128 [Eh]
	 Total Energy              =    -476.6702451952682509 [Eh]

	 ================> DF-SCS-MP2 Energies <==================
	-----------------------------------------------------------
	 SCS Same-Spin Scale       =       0.3333333333333333 [-]
	 SCS Opposite-Spin Scale   =       1.2000000000000000 [-]
	 SCS Same-Spin Energy      =      -0.1636196255526315 [Eh]
	 SCS Opposite-Spin Energy  =      -1.8318380715939822 [Eh]
	 SCS Correlation Energy    =      -1.9954576971466136 [Eh]
	 SCS Total Energy          =    -476.6483122894286453 [Eh]
	-----------------------------------------------------------

  Dipole Moment: [D]
     X:    -1.2827      Y:    -3.1944      Z:    -0.0205     Total:     3.4424

*** Psi4 exiting successfully. Buy a developer a beer!
