                               Psi4 1.4a3.dev225

  ==> Input File <==

--------------------------------------------------------------------------
#psi4
#
memory 32 gb

molecule  {
0 1
  O       -0.4083860    -1.2037120     0.0000020
  O        1.7243640     1.6671510     0.0000140
  N        2.2253870    -0.5811730    -0.0000150
  C       -2.3031430     0.0242890     0.0000050
  C       -0.0581500     0.1228580    -0.0000120
  C       -1.1822370     0.9067590    -0.0000090
  C       -1.7775000    -1.2415930     0.0000090
  C        1.3735220     0.4821180    -0.0000010
  C       -3.7529710     0.3950310    -0.0000010
  C        3.6643050    -0.4088610     0.0000040
  H       -1.1841660     1.9889020    -0.0000190
  H       -2.2178060    -2.2289420     0.0000270
  H       -4.0072870     0.9882130    -0.8832630
  H       -4.3837090    -0.4981310     0.0000100
  H       -4.0072900     0.9882370     0.8832440
  H        1.8267750    -1.5109680    -0.0000190
  H        4.1214696    -0.8649950    -0.9075515
  H        4.1132390    -0.8567810     0.8912880
  H        3.8584940     0.6633720    -0.0000070
units angstrom
no_reorient  #important for SAPT in psi4, default
symmetry c1  #important for SAPT in psi4, default
}

set PROPERTIES_ORIGIN ["COM"]
properties('MP2/aug-cc-pvtz', properties = ['dipole'])
--------------------------------------------------------------------------

    Molecular point group: c1
  Charge       = 0
  Multiplicity = 1
  Basis Set: AUG-CC-PVTZ
    Blend: AUG-CC-PVTZ
  Basis Set: (AUG-CC-PVTZ AUX)
    Blend: AUG-CC-PVTZ-JKFIT

    Orbital Energies [Eh]
    ---------------------

    Doubly Occupied:

       1A    -20.636844     2A    -20.514316     3A    -15.587416
       4A    -11.358545     5A    -11.300986     6A    -11.299073
       7A    -11.260485     8A    -11.250239     9A    -11.246538
      10A    -11.238788    11A     -1.468063    12A     -1.369130
      13A     -1.229634    14A     -1.113175    15A     -1.040988
      16A     -0.972998    17A     -0.939941    18A     -0.839563
      19A     -0.796671    20A     -0.773230    21A     -0.736947
      22A     -0.668068    23A     -0.656059    24A     -0.635819
      25A     -0.615746    26A     -0.596533    27A     -0.591203
      28A     -0.580126    29A     -0.578700    30A     -0.551387
      31A     -0.543000    32A     -0.533154    33A     -0.521771
      34A     -0.432040    35A     -0.398954    36A     -0.388818
      37A     -0.324082

  @DF-RHF Final Energy:  -474.65352879675805

   => Energetics <=

    Nuclear Repulsion Energy =            509.5615274964167156
    One-Electron Energy =               -1657.2520499966587977
    Two-Electron Energy =                 673.0369937034838586
    Total Energy =                       -474.6535287967581098
  Basis Set: (AUG-CC-PVTZ AUX)
    Blend: AUG-CC-PVTZ-RI
    Molecular point group: c1

    Geometry (in Angstrom), charge = 0, multiplicity = 1:

       Center              X                  Y                   Z               Mass
    ------------   -----------------  -----------------  -----------------  -----------------
         O           -0.421920358525    -1.213061422857     0.000120162720    15.994914619570
         O            1.710829641475     1.657801577143     0.000132162720    15.994914619570
         N            2.211852641475    -0.590522422857     0.000103162720    14.003074004430
         C           -2.316677358525     0.014939577143     0.000123162720    12.000000000000
         C           -0.071684358525     0.113508577143     0.000106162720    12.000000000000
         C           -1.195771358525     0.897409577143     0.000109162720    12.000000000000
         C           -1.791034358525    -1.250942422857     0.000127162720    12.000000000000
         C            1.359987641475     0.472768577143     0.000117162720    12.000000000000
         C           -3.766505358525     0.385681577143     0.000117162720    12.000000000000
         C            3.650770641475    -0.418210422857     0.000122162720    12.000000000000
         H           -1.197700358525     1.979552577143     0.000099162720     1.007825032230
         H           -2.231340358525    -2.238291422857     0.000145162720     1.007825032230
         H           -4.020821358525     0.978863577143    -0.883144837280     1.007825032230
         H           -4.397243358525    -0.507480422857     0.000128162720     1.007825032230
         H           -4.020824358525     0.978887577143     0.883362162720     1.007825032230
         H            1.813240641475    -1.520317422857     0.000099162720     1.007825032230
         H            4.107935241475    -0.874344422857    -0.907433337280     1.007825032230
         H            4.099704641475    -0.866130422857     0.891406162720     1.007825032230
         H            3.844959641475     0.654022577143     0.000111162720     1.007825032230

  Basis Set: AUG-CC-PVTZ
    Blend: AUG-CC-PVTZ
  Basis Set: (AUG-CC-PVTZ AUX)
    Blend: AUG-CC-PVTZ-JKFIT
	 Reference Energy          =    -474.6535287967580530 [Eh]
	 Singles Energy            =      -0.0000000000000000 [Eh]
	 Same-Spin Energy          =      -0.4908416630980890 [Eh]
	 Opposite-Spin Energy      =      -1.5266057100961432 [Eh]
	 Correlation Energy        =      -2.0174473731942322 [Eh]
	 Total Energy              =    -476.6709761699522687 [Eh]

	 ================> DF-SCS-MP2 Energies <==================
	-----------------------------------------------------------
	 SCS Same-Spin Scale       =       0.3333333333333333 [-]
	 SCS Opposite-Spin Scale   =       1.2000000000000000 [-]
	 SCS Same-Spin Energy      =      -0.1636138876993630 [Eh]
	 SCS Opposite-Spin Energy  =      -1.8319268521153718 [Eh]
	 SCS Correlation Energy    =      -1.9955407398147347 [Eh]
	 SCS Total Energy          =    -476.6490695365727674 [Eh]
	-----------------------------------------------------------

  Dipole Moment: [D]
     X:    -1.3077      Y:    -3.1423      Z:     0.0079     Total:     3.4035

*** Psi4 exiting successfully. Buy a developer a beer!
