                               Psi4 1.4a3.dev225

  ==> Input File <==

--------------------------------------------------------------------------
#psi4
#
memory 32 gb

molecule  {
0 1
  O       -0.4105421    -1.1559537     0.0000012
  O        1.7243640     1.6671510     0.0000140
  N        2.2253870    -0.5811730    -0.0000150
  C       -2.3031430     0.0242890     0.0000050
  C       -0.0581500     0.1228580    -0.0000120
  C       -1.1822370     0.9067590    -0.0000090
  C       -1.7775000    -1.2415930     0.0000090
  C        1.3735220     0.4821180    -0.0000010
  C       -3.7529710     0.3950310    -0.0000010
  C        3.6643050    -0.4088610     0.0000040
  H       -1.1841660     1.9889020    -0.0000190
  H       -2.2178060    -2.2289420     0.0000270
  H       -4.0072870     0.9882130    -0.8832630
  H       -4.3837090    -0.4981310     0.0000100
  H       -4.0072900     0.9882370     0.8832440
  H        1.8267750    -1.5109680    -0.0000190
  H        4.1132610    -0.8568050    -0.8912560
  H        4.1132390    -0.8567810     0.8912880
  H        3.8584940     0.6633720    -0.0000070
units angstrom
no_reorient  #important for SAPT in psi4, default
symmetry c1  #important for SAPT in psi4, default
}

set PROPERTIES_ORIGIN ["COM"]
properties('MP2/aug-cc-pvtz', properties = ['dipole'])
--------------------------------------------------------------------------

    Molecular point group: c1
  Charge       = 0
  Multiplicity = 1
  Basis Set: AUG-CC-PVTZ
    Blend: AUG-CC-PVTZ
  Basis Set: (AUG-CC-PVTZ AUX)
    Blend: AUG-CC-PVTZ-JKFIT

    Orbital Energies [Eh]
    ---------------------

    Doubly Occupied:

       1A    -20.637070     2A    -20.514733     3A    -15.588102
       4A    -11.358487     5A    -11.298923     6A    -11.296675
       7A    -11.258672     8A    -11.249681     9A    -11.240210
      10A    -11.237837    11A     -1.484393    12A     -1.369453
      13A     -1.230377    14A     -1.110580    15A     -1.043922
      16A     -0.974021    17A     -0.943903    18A     -0.839308
      19A     -0.800154    20A     -0.773449    21A     -0.739522
      22A     -0.674153    23A     -0.664330    24A     -0.636402
      25A     -0.618462    26A     -0.597267    27A     -0.592044
      28A     -0.579925    29A     -0.574483    30A     -0.551077
      31A     -0.543641    32A     -0.534116    33A     -0.519623
      34A     -0.432378    35A     -0.396425    36A     -0.387847
      37A     -0.324189

  @DF-RHF Final Energy:  -474.65428993488320

   => Energetics <=

    Nuclear Repulsion Energy =            510.9837458334138205
    One-Electron Energy =               -1660.0444043940908614
    Two-Electron Energy =                 674.4063686257937889
    Total Energy =                       -474.6542899348831952
  Basis Set: (AUG-CC-PVTZ AUX)
    Blend: AUG-CC-PVTZ-RI
    Molecular point group: c1

    Geometry (in Angstrom), charge = 0, multiplicity = 1:

       Center              X                  Y                   Z               Mass
    ------------   -----------------  -----------------  -----------------  -----------------
         O           -0.423768976542    -1.170855586084     0.000001357369    15.994914619570
         O            1.711137123458     1.652249113916     0.000014157369    15.994914619570
         N            2.212160123458    -0.596074886084    -0.000014842631    14.003074004430
         C           -2.316369876542     0.009387113916     0.000005157369    12.000000000000
         C           -0.071376876542     0.107956113916    -0.000011842631    12.000000000000
         C           -1.195463876542     0.891857113916    -0.000008842631    12.000000000000
         C           -1.790726876542    -1.256494886084     0.000009157369    12.000000000000
         C            1.360295123458     0.467216113916    -0.000000842631    12.000000000000
         C           -3.766197876542     0.380129113916    -0.000000842631    12.000000000000
         C            3.651078123458    -0.423762886084     0.000004157369    12.000000000000
         H           -1.197392876542     1.974000113916    -0.000018842631     1.007825032230
         H           -2.231032876542    -2.243843886084     0.000027157369     1.007825032230
         H           -4.020513876542     0.973311113916    -0.883262842631     1.007825032230
         H           -4.396935876542    -0.513032886084     0.000010157369     1.007825032230
         H           -4.020516876542     0.973335113916     0.883244157369     1.007825032230
         H            1.813548123458    -1.525869886084    -0.000018842631     1.007825032230
         H            4.100034123458    -0.871706886084    -0.891255842631     1.007825032230
         H            4.100012123458    -0.871682886084     0.891288157369     1.007825032230
         H            3.845267123458     0.648470113916    -0.000006842631     1.007825032230

  Basis Set: AUG-CC-PVTZ
    Blend: AUG-CC-PVTZ
  Basis Set: (AUG-CC-PVTZ AUX)
    Blend: AUG-CC-PVTZ-JKFIT
	 Reference Energy          =    -474.6542899348831952 [Eh]
	 Singles Energy            =      -0.0000000000000000 [Eh]
	 Same-Spin Energy          =      -0.4908108202242630 [Eh]
	 Opposite-Spin Energy      =      -1.5252860314307641 [Eh]
	 Correlation Energy        =      -2.0160968516550271 [Eh]
	 Total Energy              =    -476.6703867865382449 [Eh]

	 ================> DF-SCS-MP2 Energies <==================
	-----------------------------------------------------------
	 SCS Same-Spin Scale       =       0.3333333333333333 [-]
	 SCS Opposite-Spin Scale   =       1.2000000000000000 [-]
	 SCS Same-Spin Energy      =      -0.1636036067414210 [Eh]
	 SCS Opposite-Spin Energy  =      -1.8303432377169169 [Eh]
	 SCS Correlation Energy    =      -1.9939468444583379 [Eh]
	 SCS Total Energy          =    -476.6482367793415165 [Eh]
	-----------------------------------------------------------

  Dipole Moment: [D]
     X:    -1.2442      Y:    -3.2899      Z:    -0.0000     Total:     3.5173

*** Psi4 exiting successfully. Buy a developer a beer!
