                               Psi4 1.4a3.dev225

  ==> Input File <==

--------------------------------------------------------------------------
#psi4
#
memory 32 gb

molecule  {
0 1
  O       -0.4083860    -1.2037120     0.0000020
  O        1.7243640     1.6671510     0.0000140
  N        2.2253870    -0.5811730    -0.0000150
  C       -2.3031430     0.0242890     0.0000050
  C       -0.0581500     0.1228580    -0.0000120
  C       -1.1822370     0.9067590    -0.0000090
  C       -1.7775000    -1.2415930     0.0000090
  C        1.3735220     0.4821180    -0.0000010
  C       -3.7529710     0.3950310    -0.0000010
  C        3.6643050    -0.4088610     0.0000040
  H       -1.1841660     1.9889020    -0.0000190
  H       -2.2178060    -2.2289420     0.0000270
  H       -4.0072870     0.9882130    -0.8832630
  H       -4.3837090    -0.4981310     0.0000100
  H       -4.0072900     0.9882370     0.8832440
  H        1.8661777    -1.4190581    -0.0000186
  H        4.1132610    -0.8568050    -0.8912560
  H        4.1132390    -0.8567810     0.8912880
  H        3.8584940     0.6633720    -0.0000070
units angstrom
no_reorient  #important for SAPT in psi4, default
symmetry c1  #important for SAPT in psi4, default
}

set PROPERTIES_ORIGIN ["COM"]
properties('MP2/aug-cc-pvtz', properties = ['dipole'])
--------------------------------------------------------------------------

    Molecular point group: c1
  Charge       = 0
  Multiplicity = 1
  Basis Set: AUG-CC-PVTZ
    Blend: AUG-CC-PVTZ
  Basis Set: (AUG-CC-PVTZ AUX)
    Blend: AUG-CC-PVTZ-JKFIT

    Orbital Energies [Eh]
    ---------------------

    Doubly Occupied:

       1A    -20.636713     2A    -20.514925     3A    -15.577861
       4A    -11.358956     5A    -11.301096     6A    -11.299205
       7A    -11.258454     8A    -11.250231     9A    -11.246790
      10A    -11.238810    11A     -1.467932    12A     -1.370592
      13A     -1.243518    14A     -1.113208    15A     -1.041381
      16A     -0.974220    17A     -0.942916    18A     -0.849422
      19A     -0.796821    20A     -0.790527    21A     -0.737092
      22A     -0.669746    23A     -0.656188    24A     -0.638546
      25A     -0.618435    26A     -0.596605    27A     -0.593734
      28A     -0.580189    29A     -0.578569    30A     -0.551790
      31A     -0.547959    32A     -0.534715    33A     -0.521958
      34A     -0.432854    35A     -0.399648    36A     -0.390583
      37A     -0.324273

  @DF-RHF Final Energy:  -474.64760656140055

   => Energetics <=

    Nuclear Repulsion Energy =            510.2137258163227784
    One-Electron Energy =               -1658.4297450537117129
    Two-Electron Energy =                 673.5684126759884975
    Total Energy =                       -474.6476065614004938
  Basis Set: (AUG-CC-PVTZ AUX)
    Blend: AUG-CC-PVTZ-RI
    Molecular point group: c1

    Geometry (in Angstrom), charge = 0, multiplicity = 1:

       Center              X                  Y                   Z               Mass
    ------------   -----------------  -----------------  -----------------  -----------------
         O           -0.422146429590    -1.213786870651     0.000002062455    15.994914619570
         O            1.710603570410     1.657076129349     0.000014062455    15.994914619570
         N            2.211626570410    -0.591247870651    -0.000014937545    14.003074004430
         C           -2.316903429590     0.014214129349     0.000005062455    12.000000000000
         C           -0.071910429590     0.112783129349    -0.000011937545    12.000000000000
         C           -1.195997429590     0.896684129349    -0.000008937545    12.000000000000
         C           -1.791260429590    -1.251667870651     0.000009062455    12.000000000000
         C            1.359761570410     0.472043129349    -0.000000937545    12.000000000000
         C           -3.766731429590     0.384956129349    -0.000000937545    12.000000000000
         C            3.650544570410    -0.418935870651     0.000004062455    12.000000000000
         H           -1.197926429590     1.978827129349    -0.000018937545     1.007825032230
         H           -2.231566429590    -2.239016870651     0.000027062455     1.007825032230
         H           -4.021047429590     0.978138129349    -0.883262937545     1.007825032230
         H           -4.397469429590    -0.508205870651     0.000010062455     1.007825032230
         H           -4.021050429590     0.978162129349     0.883244062455     1.007825032230
         H            1.852417270410    -1.429132970651    -0.000018537545     1.007825032230
         H            4.099500570410    -0.866879870651    -0.891255937545     1.007825032230
         H            4.099478570410    -0.866855870651     0.891288062455     1.007825032230
         H            3.844733570410     0.653297129349    -0.000006937545     1.007825032230

  Basis Set: AUG-CC-PVTZ
    Blend: AUG-CC-PVTZ
  Basis Set: (AUG-CC-PVTZ AUX)
    Blend: AUG-CC-PVTZ-JKFIT
	 Reference Energy          =    -474.6476065614005506 [Eh]
	 Singles Energy            =      -0.0000000000000000 [Eh]
	 Same-Spin Energy          =      -0.4900768549551841 [Eh]
	 Opposite-Spin Energy      =      -1.5248294420651884 [Eh]
	 Correlation Energy        =      -2.0149062970203726 [Eh]
	 Total Energy              =    -476.6625128584209392 [Eh]

	 ================> DF-SCS-MP2 Energies <==================
	-----------------------------------------------------------
	 SCS Same-Spin Scale       =       0.3333333333333333 [-]
	 SCS Opposite-Spin Scale   =       1.2000000000000000 [-]
	 SCS Same-Spin Energy      =      -0.1633589516517280 [Eh]
	 SCS Opposite-Spin Energy  =      -1.8297953304782260 [Eh]
	 SCS Correlation Energy    =      -1.9931542821299539 [Eh]
	 SCS Total Energy          =    -476.6407608435305292 [Eh]
	-----------------------------------------------------------

  Dipole Moment: [D]
     X:    -1.2814      Y:    -3.0565      Z:    -0.0000     Total:     3.3142

*** Psi4 exiting successfully. Buy a developer a beer!
