                               Psi4 1.4a3.dev225

  ==> Input File <==

--------------------------------------------------------------------------
#psi4
#
memory 32 gb

molecule  {
0 1
  O       -0.4083860    -1.2037120     0.0000020
  O        1.7243640     1.6671510     0.0000140
  N        2.2253870    -0.5811730    -0.0000150
  C       -2.3031430     0.0242890     0.0000050
  C       -0.0581500     0.1228580    -0.0000120
  C       -1.1521221     0.8671024    -0.0000090
  C       -1.7775000    -1.2415930     0.0000090
  C        1.3735220     0.4821180    -0.0000010
  C       -3.7529710     0.3950310    -0.0000010
  C        3.6643050    -0.4088610     0.0000040
  H       -1.1841660     1.9889020    -0.0000190
  H       -2.2178060    -2.2289420     0.0000270
  H       -4.0072870     0.9882130    -0.8832630
  H       -4.3837090    -0.4981310     0.0000100
  H       -4.0072900     0.9882370     0.8832440
  H        1.8267750    -1.5109680    -0.0000190
  H        4.1132610    -0.8568050    -0.8912560
  H        4.1132390    -0.8567810     0.8912880
  H        3.8584940     0.6633720    -0.0000070
units angstrom
no_reorient  #important for SAPT in psi4, default
symmetry c1  #important for SAPT in psi4, default
}

set PROPERTIES_ORIGIN ["COM"]
properties('MP2/aug-cc-pvtz', properties = ['dipole'])
--------------------------------------------------------------------------

    Molecular point group: c1
  Charge       = 0
  Multiplicity = 1
  Basis Set: AUG-CC-PVTZ
    Blend: AUG-CC-PVTZ
  Basis Set: (AUG-CC-PVTZ AUX)
    Blend: AUG-CC-PVTZ-JKFIT

    Orbital Energies [Eh]
    ---------------------

    Doubly Occupied:

       1A    -20.632695     2A    -20.514422     3A    -15.587399
       4A    -11.358690     5A    -11.300664     6A    -11.291985
       7A    -11.258183     8A    -11.248847     9A    -11.242590
      10A    -11.239833    11A     -1.467647    12A     -1.369206
      13A     -1.229732    14A     -1.115197    15A     -1.045954
      16A     -0.975181    17A     -0.941005    18A     -0.837984
      19A     -0.794509    20A     -0.773099    21A     -0.739319
      22A     -0.666501    23A     -0.657030    24A     -0.636204
      25A     -0.617505    26A     -0.593748    27A     -0.591369
      28A     -0.580334    29A     -0.571312    30A     -0.554124
      31A     -0.542488    32A     -0.534330    33A     -0.520854
      34A     -0.432207    35A     -0.401635    36A     -0.389490
      37A     -0.328376

  @DF-RHF Final Energy:  -474.65272028816474

   => Energetics <=

    Nuclear Repulsion Energy =            510.6051432879282288
    One-Electron Energy =               -1659.3524313431862538
    Two-Electron Energy =                 674.0945677670932810
    Total Energy =                       -474.6527202881646872
  Basis Set: (AUG-CC-PVTZ AUX)
    Blend: AUG-CC-PVTZ-RI
    Molecular point group: c1

    Geometry (in Angstrom), charge = 0, multiplicity = 1:

       Center              X                  Y                   Z               Mass
    ------------   -----------------  -----------------  -----------------  -----------------
         O           -0.424459532376    -1.209698745450     0.000002065354    15.994914619570
         O            1.708290467624     1.661164254550     0.000014065354    15.994914619570
         N            2.209313467624    -0.587159745450    -0.000014934646    14.003074004430
         C           -2.319216532376     0.018302254550     0.000005065354    12.000000000000
         C           -0.074223532376     0.116871254550    -0.000011934646    12.000000000000
         C           -1.168195632376     0.861115654550    -0.000008934646    12.000000000000
         C           -1.793573532376    -1.247579745450     0.000009065354    12.000000000000
         C            1.357448467624     0.476131254550    -0.000000934646    12.000000000000
         C           -3.769044532376     0.389044254550    -0.000000934646    12.000000000000
         C            3.648231467624    -0.414847745450     0.000004065354    12.000000000000
         H           -1.200239532376     1.982915254550    -0.000018934646     1.007825032230
         H           -2.233879532376    -2.234928745450     0.000027065354     1.007825032230
         H           -4.023360532376     0.982226254550    -0.883262934646     1.007825032230
         H           -4.399782532376    -0.504117745450     0.000010065354     1.007825032230
         H           -4.023363532376     0.982250254550     0.883244065354     1.007825032230
         H            1.810701467624    -1.516954745450    -0.000018934646     1.007825032230
         H            4.097187467624    -0.862791745450    -0.891255934646     1.007825032230
         H            4.097165467624    -0.862767745450     0.891288065354     1.007825032230
         H            3.842420467624     0.657385254550    -0.000006934646     1.007825032230

  Basis Set: AUG-CC-PVTZ
    Blend: AUG-CC-PVTZ
  Basis Set: (AUG-CC-PVTZ AUX)
    Blend: AUG-CC-PVTZ-JKFIT
	 Reference Energy          =    -474.6527202881647440 [Eh]
	 Singles Energy            =      -0.0000000000000000 [Eh]
	 Same-Spin Energy          =      -0.4901341505061267 [Eh]
	 Opposite-Spin Energy      =      -1.5252735548083867 [Eh]
	 Correlation Energy        =      -2.0154077053145132 [Eh]
	 Total Energy              =    -476.6681279934792315 [Eh]

	 ================> DF-SCS-MP2 Energies <==================
	-----------------------------------------------------------
	 SCS Same-Spin Scale       =       0.3333333333333333 [-]
	 SCS Opposite-Spin Scale   =       1.2000000000000000 [-]
	 SCS Same-Spin Energy      =      -0.1633780501687089 [Eh]
	 SCS Opposite-Spin Energy  =      -1.8303282657700639 [Eh]
	 SCS Correlation Energy    =      -1.9937063159387729 [Eh]
	 SCS Total Energy          =    -476.6464266041035103 [Eh]
	-----------------------------------------------------------

  Dipole Moment: [D]
     X:    -1.3058      Y:    -3.1304      Z:    -0.0000     Total:     3.3918

*** Psi4 exiting successfully. Buy a developer a beer!
