                               Psi4 1.4a3.dev225

  ==> Input File <==

--------------------------------------------------------------------------
#psi4
#
memory 32 gb

molecule  {
0 1
  O       -0.4083860    -1.2037120     0.0000020
  O        1.7243640     1.6671510     0.0000140
  N        2.2253870    -0.5811730    -0.0000150
  C       -2.3031430     0.0242890     0.0000050
  C       -0.0581500     0.1228580    -0.0000120
  C       -1.1978089     0.9261871    -0.0000090
  C       -1.7775000    -1.2415930     0.0000090
  C        1.3735220     0.4821180    -0.0000010
  C       -3.7529710     0.3950310    -0.0000010
  C        3.6643050    -0.4088610     0.0000040
  H       -1.1841660     1.9889020    -0.0000190
  H       -2.2178060    -2.2289420     0.0000270
  H       -4.0072870     0.9882130    -0.8832630
  H       -4.3837090    -0.4981310     0.0000100
  H       -4.0072900     0.9882370     0.8832440
  H        1.8267750    -1.5109680    -0.0000190
  H        4.1132610    -0.8568050    -0.8912560
  H        4.1132390    -0.8567810     0.8912880
  H        3.8584940     0.6633720    -0.0000070
units angstrom
no_reorient  #important for SAPT in psi4, default
symmetry c1  #important for SAPT in psi4, default
}

set PROPERTIES_ORIGIN ["COM"]
properties('MP2/aug-cc-pvtz', properties = ['dipole'])
--------------------------------------------------------------------------

    Molecular point group: c1
  Charge       = 0
  Multiplicity = 1
  Basis Set: AUG-CC-PVTZ
    Blend: AUG-CC-PVTZ
  Basis Set: (AUG-CC-PVTZ AUX)
    Blend: AUG-CC-PVTZ-JKFIT

    Orbital Energies [Eh]
    ---------------------

    Doubly Occupied:

       1A    -20.638827     2A    -20.514084     3A    -15.587055
       4A    -11.358281     5A    -11.302358     6A    -11.301048
       7A    -11.258012     8A    -11.250969     9A    -11.248333
      10A    -11.238201    11A     -1.468305    12A     -1.368902
      13A     -1.229481    14A     -1.112249    15A     -1.038767
      16A     -0.972503    17A     -0.940787    18A     -0.841085
      19A     -0.798254    20A     -0.772845    21A     -0.735618
      22A     -0.669238    23A     -0.655718    24A     -0.635867
      25A     -0.617342    26A     -0.599509    27A     -0.591420
      28A     -0.580944    29A     -0.580037    30A     -0.549961
      31A     -0.543392    32A     -0.534011    33A     -0.521178
      34A     -0.431771    35A     -0.397957    36A     -0.388651
      37A     -0.321772

  @DF-RHF Final Energy:  -474.65182483791193

   => Energetics <=

    Nuclear Repulsion Energy =            509.1903391885072097
    One-Electron Energy =               -1656.4948655153154959
    Two-Electron Energy =                 672.6527014888962412
    Total Energy =                       -474.6518248379119314
  Basis Set: (AUG-CC-PVTZ AUX)
    Blend: AUG-CC-PVTZ-RI
    Molecular point group: c1

    Geometry (in Angstrom), charge = 0, multiplicity = 1:

       Center              X                  Y                   Z               Mass
    ------------   -----------------  -----------------  -----------------  -----------------
         O           -0.420517144359    -1.214797259972     0.000002065354    15.994914619570
         O            1.712232855641     1.656065740028     0.000014065354    15.994914619570
         N            2.213255855641    -0.592258259972    -0.000014934646    14.003074004430
         C           -2.315274144359     0.013203740028     0.000005065354    12.000000000000
         C           -0.070281144359     0.111772740028    -0.000011934646    12.000000000000
         C           -1.209940044359     0.915101840028    -0.000008934646    12.000000000000
         C           -1.789631144359    -1.252678259972     0.000009065354    12.000000000000
         C            1.361390855641     0.471032740028    -0.000000934646    12.000000000000
         C           -3.765102144359     0.383945740028    -0.000000934646    12.000000000000
         C            3.652173855641    -0.419946259972     0.000004065354    12.000000000000
         H           -1.196297144359     1.977816740028    -0.000018934646     1.007825032230
         H           -2.229937144359    -2.240027259972     0.000027065354     1.007825032230
         H           -4.019418144359     0.977127740028    -0.883262934646     1.007825032230
         H           -4.395840144359    -0.509216259972     0.000010065354     1.007825032230
         H           -4.019421144359     0.977151740028     0.883244065354     1.007825032230
         H            1.814643855641    -1.522053259972    -0.000018934646     1.007825032230
         H            4.101129855641    -0.867890259972    -0.891255934646     1.007825032230
         H            4.101107855641    -0.867866259972     0.891288065354     1.007825032230
         H            3.846362855641     0.652286740028    -0.000006934646     1.007825032230

  Basis Set: AUG-CC-PVTZ
    Blend: AUG-CC-PVTZ
  Basis Set: (AUG-CC-PVTZ AUX)
    Blend: AUG-CC-PVTZ-JKFIT
	 Reference Energy          =    -474.6518248379119314 [Eh]
	 Singles Energy            =      -0.0000000000000000 [Eh]
	 Same-Spin Energy          =      -0.4912746341730986 [Eh]
	 Opposite-Spin Energy      =      -1.5272425970674504 [Eh]
	 Correlation Energy        =      -2.0185172312405490 [Eh]
	 Total Energy              =    -476.6703420691524684 [Eh]

	 ================> DF-SCS-MP2 Energies <==================
	-----------------------------------------------------------
	 SCS Same-Spin Scale       =       0.3333333333333333 [-]
	 SCS Opposite-Spin Scale   =       1.2000000000000000 [-]
	 SCS Same-Spin Energy      =      -0.1637582113910329 [Eh]
	 SCS Opposite-Spin Energy  =      -1.8326911164809403 [Eh]
	 SCS Correlation Energy    =      -1.9964493278719730 [Eh]
	 SCS Total Energy          =    -476.6482741657839028 [Eh]
	-----------------------------------------------------------

  Dipole Moment: [D]
     X:    -1.2873      Y:    -3.1585      Z:    -0.0000     Total:     3.4108

*** Psi4 exiting successfully. Buy a developer a beer!
