                               Psi4 1.4a3.dev225

  ==> Input File <==

--------------------------------------------------------------------------
#psi4
#
memory 32 gb

molecule  {
0 1
  O       -0.4083860    -1.2037120     0.0000020
  O        1.7243640     1.6671510     0.0000140
  N        2.2253870    -0.5811730    -0.0000150
  C       -2.3031430     0.0242890     0.0000050
  C       -0.0581500     0.1228580    -0.0000120
  C       -1.1670065     0.8870621    -0.0000090
  C       -1.7775000    -1.2415930     0.0000090
  C        1.3735220     0.4821180    -0.0000010
  C       -3.7529710     0.3950310    -0.0000010
  C        3.6643050    -0.4088610     0.0000040
  H       -1.1841660     1.9889020    -0.0000190
  H       -2.2178060    -2.2289420     0.0000270
  H       -4.0072870     0.9882130    -0.8832630
  H       -4.3837090    -0.4981310     0.0000100
  H       -4.0072900     0.9882370     0.8832440
  H        1.8267750    -1.5109680    -0.0000190
  H        4.1132610    -0.8568050    -0.8912560
  H        4.1132390    -0.8567810     0.8912880
  H        3.8584940     0.6633720    -0.0000070
units angstrom
no_reorient  #important for SAPT in psi4, default
symmetry c1  #important for SAPT in psi4, default
}

set PROPERTIES_ORIGIN ["COM"]
properties('MP2/aug-cc-pvtz', properties = ['dipole'])
--------------------------------------------------------------------------

    Molecular point group: c1
  Charge       = 0
  Multiplicity = 1
  Basis Set: AUG-CC-PVTZ
    Blend: AUG-CC-PVTZ
  Basis Set: (AUG-CC-PVTZ AUX)
    Blend: AUG-CC-PVTZ-JKFIT

    Orbital Energies [Eh]
    ---------------------

    Doubly Occupied:

       1A    -20.634717     2A    -20.514277     3A    -15.587257
       4A    -11.358522     5A    -11.300776     6A    -11.295520
       7A    -11.258109     8A    -11.249464     9A    -11.244525
      10A    -11.239282    11A     -1.467757    12A     -1.369081
      13A     -1.229624    14A     -1.114080    15A     -1.043406
      16A     -0.974322    17A     -0.940881    18A     -0.838856
      19A     -0.795303    20A     -0.773178    21A     -0.738274
      22A     -0.667213    23A     -0.656491    24A     -0.636066
      25A     -0.617427    26A     -0.594635    27A     -0.591351
      28A     -0.580222    29A     -0.575184    30A     -0.552919
      31A     -0.542978    32A     -0.534205    33A     -0.521661
      34A     -0.432041    35A     -0.400181    36A     -0.389212
      37A     -0.326215

  @DF-RHF Final Energy:  -474.65438410467056

   => Energetics <=

    Nuclear Repulsion Energy =            510.1223338410171095
    One-Electron Energy =               -1658.3830130211392770
    Two-Electron Energy =                 673.6062950754517260
    Total Energy =                       -474.6543841046704983
  Basis Set: (AUG-CC-PVTZ AUX)
    Blend: AUG-CC-PVTZ-RI
    Molecular point group: c1

    Geometry (in Angstrom), charge = 0, multiplicity = 1:

       Center              X                  Y                   Z               Mass
    ------------   -----------------  -----------------  -----------------  -----------------
         O           -0.423175133376    -1.211421100312     0.000002065354    15.994914619570
         O            1.709574866624     1.659441899688     0.000014065354    15.994914619570
         N            2.210597866624    -0.588882100312    -0.000014934646    14.003074004430
         C           -2.317932133376     0.016579899688     0.000005065354    12.000000000000
         C           -0.072939133376     0.115148899688    -0.000011934646    12.000000000000
         C           -1.181795633376     0.879352999688    -0.000008934646    12.000000000000
         C           -1.792289133376    -1.249302100312     0.000009065354    12.000000000000
         C            1.358732866624     0.474408899688    -0.000000934646    12.000000000000
         C           -3.767760133376     0.387321899688    -0.000000934646    12.000000000000
         C            3.649515866624    -0.416570100312     0.000004065354    12.000000000000
         H           -1.198955133376     1.981192899688    -0.000018934646     1.007825032230
         H           -2.232595133376    -2.236651100312     0.000027065354     1.007825032230
         H           -4.022076133376     0.980503899688    -0.883262934646     1.007825032230
         H           -4.398498133376    -0.505840100312     0.000010065354     1.007825032230
         H           -4.022079133376     0.980527899688     0.883244065354     1.007825032230
         H            1.811985866624    -1.518677100312    -0.000018934646     1.007825032230
         H            4.098471866624    -0.864514100312    -0.891255934646     1.007825032230
         H            4.098449866624    -0.864490100312     0.891288065354     1.007825032230
         H            3.843704866624     0.655662899688    -0.000006934646     1.007825032230

  Basis Set: AUG-CC-PVTZ
    Blend: AUG-CC-PVTZ
  Basis Set: (AUG-CC-PVTZ AUX)
    Blend: AUG-CC-PVTZ-JKFIT
	 Reference Energy          =    -474.6543841046705552 [Eh]
	 Singles Energy            =      -0.0000000000000000 [Eh]
	 Same-Spin Energy          =      -0.4904651866210583 [Eh]
	 Opposite-Spin Energy      =      -1.5258292904551820 [Eh]
	 Correlation Energy        =      -2.0162944770762401 [Eh]
	 Total Energy              =    -476.6706785817468131 [Eh]

	 ================> DF-SCS-MP2 Energies <==================
	-----------------------------------------------------------
	 SCS Same-Spin Scale       =       0.3333333333333333 [-]
	 SCS Opposite-Spin Scale   =       1.2000000000000000 [-]
	 SCS Same-Spin Energy      =      -0.1634883955403528 [Eh]
	 SCS Opposite-Spin Energy  =      -1.8309951485462184 [Eh]
	 SCS Correlation Energy    =      -1.9944835440865711 [Eh]
	 SCS Total Energy          =    -476.6488676487571183 [Eh]
	-----------------------------------------------------------

  Dipole Moment: [D]
     X:    -1.2999      Y:    -3.1380      Z:    -0.0000     Total:     3.3966

*** Psi4 exiting successfully. Buy a developer a beer!
