                               Psi4 1.4a3.dev225

  ==> Input File <==

--------------------------------------------------------------------------
#psi4
#
memory 32 gb

molecule  {
0 1
  O       -0.4083860    -1.2037120     0.0000020
  O        1.7243640     1.6671510     0.0000140
  N        2.2253870    -0.5811730    -0.0000150
  C       -2.3031430     0.0242890     0.0000050
  C       -0.0581500     0.1228580    -0.0000120
  C       -1.1822370     0.9067590    -0.0000090
  C       -1.7775000    -1.2415930     0.0000090
  C        1.3735220     0.4821180    -0.0000010
  C       -3.7529710     0.3950310    -0.0000010
  C        3.6643050    -0.4088610     0.0000040
  H       -1.1842017     2.0089020    -0.0000192
  H       -2.2178060    -2.2289420     0.0000270
  H       -4.0072870     0.9882130    -0.8832630
  H       -4.3837090    -0.4981310     0.0000100
  H       -4.0072900     0.9882370     0.8832440
  H        1.8267750    -1.5109680    -0.0000190
  H        4.1132610    -0.8568050    -0.8912560
  H        4.1132390    -0.8567810     0.8912880
  H        3.8584940     0.6633720    -0.0000070
units angstrom
no_reorient  #important for SAPT in psi4, default
symmetry c1  #important for SAPT in psi4, default
}

set PROPERTIES_ORIGIN ["COM"]
properties('MP2/aug-cc-pvtz', properties = ['dipole'])
--------------------------------------------------------------------------

    Molecular point group: c1
  Charge       = 0
  Multiplicity = 1
  Basis Set: AUG-CC-PVTZ
    Blend: AUG-CC-PVTZ
  Basis Set: (AUG-CC-PVTZ AUX)
    Blend: AUG-CC-PVTZ-JKFIT

    Orbital Energies [Eh]
    ---------------------

    Doubly Occupied:

       1A    -20.636836     2A    -20.514113     3A    -15.587124
       4A    -11.358361     5A    -11.300993     6A    -11.299037
       7A    -11.258038     8A    -11.250372     9A    -11.248462
      10A    -11.238723    11A     -1.468052    12A     -1.368935
      13A     -1.229519    14A     -1.112890    15A     -1.040815
      16A     -0.973325    17A     -0.940794    18A     -0.839461
      19A     -0.794988    20A     -0.772994    21A     -0.736367
      22A     -0.667629    23A     -0.656117    24A     -0.635933
      25A     -0.617366    26A     -0.595577    27A     -0.591306
      28A     -0.580104    29A     -0.576271    30A     -0.551435
      31A     -0.543172    32A     -0.534071    33A     -0.521701
      34A     -0.431846    35A     -0.398992    36A     -0.388916
      37A     -0.324056

  @DF-RHF Final Energy:  -474.65338801750454

   => Energetics <=

    Nuclear Repulsion Energy =            509.5478411132157817
    One-Electron Energy =               -1657.2330794846618574
    Two-Electron Energy =                 673.0318503539415360
    Total Energy =                       -474.6533880175045397
  Basis Set: (AUG-CC-PVTZ AUX)
    Blend: AUG-CC-PVTZ-RI
    Molecular point group: c1

    Geometry (in Angstrom), charge = 0, multiplicity = 1:

       Center              X                  Y                   Z               Mass
    ------------   -----------------  -----------------  -----------------  -----------------
         O           -0.421860610121    -1.213265722495     0.000002066803    15.994914619570
         O            1.710889389879     1.657597277505     0.000014066803    15.994914619570
         N            2.211912389879    -0.590726722495    -0.000014933197    14.003074004430
         C           -2.316617610121     0.014735277505     0.000005066803    12.000000000000
         C           -0.071624610121     0.113304277505    -0.000011933197    12.000000000000
         C           -1.195711610121     0.897205277505    -0.000008933197    12.000000000000
         C           -1.790974610121    -1.251146722495     0.000009066803    12.000000000000
         C            1.360047389879     0.472564277505    -0.000000933197    12.000000000000
         C           -3.766445610121     0.385477277505    -0.000000933197    12.000000000000
         C            3.650830389879    -0.418414722495     0.000004066803    12.000000000000
         H           -1.197676310121     1.999348277505    -0.000019133197     1.007825032230
         H           -2.231280610121    -2.238495722495     0.000027066803     1.007825032230
         H           -4.020761610121     0.978659277505    -0.883262933197     1.007825032230
         H           -4.397183610121    -0.507684722495     0.000010066803     1.007825032230
         H           -4.020764610121     0.978683277505     0.883244066803     1.007825032230
         H            1.813300389879    -1.520521722495    -0.000018933197     1.007825032230
         H            4.099786389879    -0.866358722495    -0.891255933197     1.007825032230
         H            4.099764389879    -0.866334722495     0.891288066803     1.007825032230
         H            3.845019389879     0.653818277505    -0.000006933197     1.007825032230

  Basis Set: AUG-CC-PVTZ
    Blend: AUG-CC-PVTZ
  Basis Set: (AUG-CC-PVTZ AUX)
    Blend: AUG-CC-PVTZ-JKFIT
	 Reference Energy          =    -474.6533880175045397 [Eh]
	 Singles Energy            =      -0.0000000000000000 [Eh]
	 Same-Spin Energy          =      -0.4908905944408593 [Eh]
	 Opposite-Spin Energy      =      -1.5266417199002253 [Eh]
	 Correlation Energy        =      -2.0175323143410848 [Eh]
	 Total Energy              =    -476.6709203318456503 [Eh]

	 ================> DF-SCS-MP2 Energies <==================
	-----------------------------------------------------------
	 SCS Same-Spin Scale       =       0.3333333333333333 [-]
	 SCS Opposite-Spin Scale   =       1.2000000000000000 [-]
	 SCS Same-Spin Energy      =      -0.1636301981469531 [Eh]
	 SCS Opposite-Spin Energy  =      -1.8319700638802703 [Eh]
	 SCS Correlation Energy    =      -1.9956002620272233 [Eh]
	 SCS Total Energy          =    -476.6489882795317499 [Eh]
	-----------------------------------------------------------

  Dipole Moment: [D]
     X:    -1.2943      Y:    -3.1437      Z:    -0.0000     Total:     3.3998

*** Psi4 exiting successfully. Buy a developer a beer!
