                               Psi4 1.4a3.dev225

  ==> Input File <==

--------------------------------------------------------------------------
#psi4
#
memory 32 gb

molecule  {
0 1
  O       -0.4083860    -1.2037120     0.0000020
  O        1.7243640     1.6671510     0.0000140
  N        2.2253870    -0.5811730    -0.0000150
  C       -2.3031430     0.0242890     0.0000050
  C       -0.0581500     0.1228580    -0.0000120
  C       -1.1822370     0.9067590    -0.0000090
  C       -1.8274809    -1.2429759     0.0000093
  C        1.3735220     0.4821180    -0.0000010
  C       -3.7529710     0.3950310    -0.0000010
  C        3.6643050    -0.4088610     0.0000040
  H       -1.1841660     1.9889020    -0.0000190
  H       -2.2178060    -2.2289420     0.0000270
  H       -4.0072870     0.9882130    -0.8832630
  H       -4.3837090    -0.4981310     0.0000100
  H       -4.0072900     0.9882370     0.8832440
  H        1.8267750    -1.5109680    -0.0000190
  H        4.1132610    -0.8568050    -0.8912560
  H        4.1132390    -0.8567810     0.8912880
  H        3.8584940     0.6633720    -0.0000070
units angstrom
no_reorient  #important for SAPT in psi4, default
symmetry c1  #important for SAPT in psi4, default
}

set PROPERTIES_ORIGIN ["COM"]
properties('MP2/aug-cc-pvtz', properties = ['dipole'])
--------------------------------------------------------------------------

    Molecular point group: c1
  Charge       = 0
  Multiplicity = 1
  Basis Set: AUG-CC-PVTZ
    Blend: AUG-CC-PVTZ
  Basis Set: (AUG-CC-PVTZ AUX)
    Blend: AUG-CC-PVTZ-JKFIT

    Orbital Energies [Eh]
    ---------------------

    Doubly Occupied:

       1A    -20.628881     2A    -20.515336     3A    -15.587591
       4A    -11.359022     5A    -11.301466     6A    -11.298301
       7A    -11.258242     8A    -11.252120     9A    -11.245187
      10A    -11.238958    11A     -1.448743    12A     -1.369462
      13A     -1.229743    14A     -1.114709    15A     -1.038736
      16A     -0.973247    17A     -0.941398    18A     -0.842891
      19A     -0.791586    20A     -0.773857    21A     -0.732855
      22A     -0.664983    23A     -0.647634    24A     -0.636004
      25A     -0.615968    26A     -0.603682    27A     -0.590754
      28A     -0.580023    29A     -0.573422    30A     -0.548740
      31A     -0.542581    32A     -0.533497    33A     -0.525522
      34A     -0.432622    35A     -0.399961    36A     -0.388930
      37A     -0.327269

  @DF-RHF Final Energy:  -474.65051365387802

   => Energetics <=

    Nuclear Repulsion Energy =            508.9287323525846887
    One-Electron Energy =               -1656.0506443569481689
    Two-Electron Energy =                 672.4713983504852877
    Total Energy =                       -474.6505136538780789
  Basis Set: (AUG-CC-PVTZ AUX)
    Blend: AUG-CC-PVTZ-RI
    Molecular point group: c1

    Geometry (in Angstrom), charge = 0, multiplicity = 1:

       Center              X                  Y                   Z               Mass
    ------------   -----------------  -----------------  -----------------  -----------------
         O           -0.417547935982    -1.213001445054     0.000002039467    15.994914619570
         O            1.715202064018     1.657861554946     0.000014039467    15.994914619570
         N            2.216225064018    -0.590462445054    -0.000014960533    14.003074004430
         C           -2.312304935982     0.014999554946     0.000005039467    12.000000000000
         C           -0.067311935982     0.113568554946    -0.000011960533    12.000000000000
         C           -1.191398935982     0.897469554946    -0.000008960533    12.000000000000
         C           -1.836642835982    -1.252265345054     0.000009339467    12.000000000000
         C            1.364360064018     0.472828554946    -0.000000960533    12.000000000000
         C           -3.762132935982     0.385741554946    -0.000000960533    12.000000000000
         C            3.655143064018    -0.418150445054     0.000004039467    12.000000000000
         H           -1.193327935982     1.979612554946    -0.000018960533     1.007825032230
         H           -2.226967935982    -2.238231445054     0.000027039467     1.007825032230
         H           -4.016448935982     0.978923554946    -0.883262960533     1.007825032230
         H           -4.392870935982    -0.507420445054     0.000010039467     1.007825032230
         H           -4.016451935982     0.978947554946     0.883244039467     1.007825032230
         H            1.817613064018    -1.520257445054    -0.000018960533     1.007825032230
         H            4.104099064018    -0.866094445054    -0.891255960533     1.007825032230
         H            4.104077064018    -0.866070445054     0.891288039467     1.007825032230
         H            3.849332064018     0.654082554946    -0.000006960533     1.007825032230

  Basis Set: AUG-CC-PVTZ
    Blend: AUG-CC-PVTZ
  Basis Set: (AUG-CC-PVTZ AUX)
    Blend: AUG-CC-PVTZ-JKFIT
	 Reference Energy          =    -474.6505136538780221 [Eh]
	 Singles Energy            =      -0.0000000000000000 [Eh]
	 Same-Spin Energy          =      -0.4907492510844313 [Eh]
	 Opposite-Spin Energy      =      -1.5274203399243422 [Eh]
	 Correlation Energy        =      -2.0181695910087738 [Eh]
	 Total Energy              =    -476.6686832448867790 [Eh]

	 ================> DF-SCS-MP2 Energies <==================
	-----------------------------------------------------------
	 SCS Same-Spin Scale       =       0.3333333333333333 [-]
	 SCS Opposite-Spin Scale   =       1.2000000000000000 [-]
	 SCS Same-Spin Energy      =      -0.1635830836948104 [Eh]
	 SCS Opposite-Spin Energy  =      -1.8329044079092105 [Eh]
	 SCS Correlation Energy    =      -1.9964874916040209 [Eh]
	 SCS Total Energy          =    -476.6470011454820224 [Eh]
	-----------------------------------------------------------

  Dipole Moment: [D]
     X:    -1.3448      Y:    -3.1214      Z:    -0.0000     Total:     3.3988

*** Psi4 exiting successfully. Buy a developer a beer!
