                               Psi4 1.4a3.dev225

  ==> Input File <==

--------------------------------------------------------------------------
#psi4
#
memory 32 gb

molecule  {
0 1
  O       -0.4083860    -1.2037120     0.0000020
  O        1.7243640     1.6671510     0.0000140
  N        2.2253870    -0.5811730    -0.0000150
  C       -2.3031430     0.0242890     0.0000050
  C       -0.0581500     0.1228580    -0.0000120
  C       -1.1822370     0.9067590    -0.0000090
  C       -1.7775000    -1.2415930     0.0000090
  C        1.3735220     0.4821180    -0.0000010
  C       -3.7529710     0.3950310    -0.0000010
  C        3.6643050    -0.4088610     0.0000040
  H       -1.1841660     1.9889020    -0.0000190
  H       -2.2178060    -2.2289420     0.0000270
  H       -4.0072870     0.9882130    -0.8832630
  H       -4.3837090    -0.4981310     0.0000100
  H       -4.0072900     0.9882370     0.8832440
  H        1.7873723    -1.6028779    -0.0000194
  H        4.1132610    -0.8568050    -0.8912560
  H        4.1132390    -0.8567810     0.8912880
  H        3.8584940     0.6633720    -0.0000070
units angstrom
no_reorient  #important for SAPT in psi4, default
symmetry c1  #important for SAPT in psi4, default
}

set PROPERTIES_ORIGIN ["COM"]
properties('MP2/aug-cc-pvtz', properties = ['dipole'])
--------------------------------------------------------------------------

    Molecular point group: c1
  Charge       = 0
  Multiplicity = 1
  Basis Set: AUG-CC-PVTZ
    Blend: AUG-CC-PVTZ
  Basis Set: (AUG-CC-PVTZ AUX)
    Blend: AUG-CC-PVTZ-JKFIT

    Orbital Energies [Eh]
    ---------------------

    Doubly Occupied:

       1A    -20.636820     2A    -20.513504     3A    -15.594687
       4A    -11.357899     5A    -11.300719     6A    -11.298775
       7A    -11.257664     8A    -11.250116     9A    -11.246116
      10A    -11.238672    11A     -1.468030    12A     -1.367790
      13A     -1.219209    14A     -1.113002    15A     -1.040637
      16A     -0.972793    17A     -0.939312    18A     -0.834861
      19A     -0.796475    20A     -0.755023    21A     -0.736524
      22A     -0.666252    23A     -0.655935    24A     -0.633169
      25A     -0.616346    26A     -0.596361    27A     -0.588830
      28A     -0.580060    29A     -0.578701    30A     -0.551256
      31A     -0.536791    32A     -0.533514    33A     -0.521454
      34A     -0.430945    35A     -0.398488    36A     -0.387299
      37A     -0.323760

  @DF-RHF Final Energy:  -474.64323501515918

   => Energetics <=

    Nuclear Repulsion Energy =            509.1632184622484942
    One-Electron Energy =               -1656.5373317717846930
    Two-Electron Energy =                 672.7308782943769074
    Total Energy =                       -474.6432350151592345
  Basis Set: (AUG-CC-PVTZ AUX)
    Blend: AUG-CC-PVTZ-RI
    Molecular point group: c1

    Geometry (in Angstrom), charge = 0, multiplicity = 1:

       Center              X                  Y                   Z               Mass
    ------------   -----------------  -----------------  -----------------  -----------------
         O           -0.421575308104    -1.212454684821     0.000002068253    15.994914619570
         O            1.711174691896     1.658408315179     0.000014068253    15.994914619570
         N            2.212197691896    -0.589915684821    -0.000014931747    14.003074004430
         C           -2.316332308104     0.015546315179     0.000005068253    12.000000000000
         C           -0.071339308104     0.114115315179    -0.000011931747    12.000000000000
         C           -1.195426308104     0.898016315179    -0.000008931747    12.000000000000
         C           -1.790689308104    -1.250335684821     0.000009068253    12.000000000000
         C            1.360332691896     0.473375315179    -0.000000931747    12.000000000000
         C           -3.766160308104     0.386288315179    -0.000000931747    12.000000000000
         C            3.651115691896    -0.417603684821     0.000004068253    12.000000000000
         H           -1.197355308104     1.980159315179    -0.000018931747     1.007825032230
         H           -2.230995308104    -2.237684684821     0.000027068253     1.007825032230
         H           -4.020476308104     0.979470315179    -0.883262931747     1.007825032230
         H           -4.396898308104    -0.506873684821     0.000010068253     1.007825032230
         H           -4.020479308104     0.979494315179     0.883244068253     1.007825032230
         H            1.774182991896    -1.611620584821    -0.000019331747     1.007825032230
         H            4.100071691896    -0.865547684821    -0.891255931747     1.007825032230
         H            4.100049691896    -0.865523684821     0.891288068253     1.007825032230
         H            3.845304691896     0.654629315179    -0.000006931747     1.007825032230

  Basis Set: AUG-CC-PVTZ
    Blend: AUG-CC-PVTZ
  Basis Set: (AUG-CC-PVTZ AUX)
    Blend: AUG-CC-PVTZ-JKFIT
	 Reference Energy          =    -474.6432350151591777 [Eh]
	 Singles Energy            =      -0.0000000000000000 [Eh]
	 Same-Spin Energy          =      -0.4917027378714225 [Eh]
	 Opposite-Spin Energy      =      -1.5285466270228985 [Eh]
	 Correlation Energy        =      -2.0202493648943207 [Eh]
	 Total Energy              =    -476.6634843800534895 [Eh]

	 ================> DF-SCS-MP2 Energies <==================
	-----------------------------------------------------------
	 SCS Same-Spin Scale       =       0.3333333333333333 [-]
	 SCS Opposite-Spin Scale   =       1.2000000000000000 [-]
	 SCS Same-Spin Energy      =      -0.1639009126238075 [Eh]
	 SCS Opposite-Spin Energy  =      -1.8342559524274780 [Eh]
	 SCS Correlation Energy    =      -1.9981568650512855 [Eh]
	 SCS Total Energy          =    -476.6413918802104490 [Eh]
	-----------------------------------------------------------

  Dipole Moment: [D]
     X:    -1.3099      Y:    -3.2374      Z:    -0.0000     Total:     3.4923

*** Psi4 exiting successfully. Buy a developer a beer!
