                               Psi4 1.4a3.dev225

  ==> Input File <==

--------------------------------------------------------------------------
#psi4
#
memory 32 gb

molecule  {
0 1
  O       -0.4083860    -1.2037120     0.0000020
  O        1.7243640     1.6671510     0.0000140
  N        2.2253870    -0.5811730    -0.0000150
  C       -2.3183735     0.0439859     0.0000050
  C       -0.0581500     0.1228580    -0.0000120
  C       -1.1822370     0.9067590    -0.0000090
  C       -1.7775000    -1.2415930     0.0000090
  C        1.3735220     0.4821180    -0.0000010
  C       -3.7529710     0.3950310    -0.0000010
  C        3.6643050    -0.4088610     0.0000040
  H       -1.1841660     1.9889020    -0.0000190
  H       -2.2178060    -2.2289420     0.0000270
  H       -4.0072870     0.9882130    -0.8832630
  H       -4.3837090    -0.4981310     0.0000100
  H       -4.0072900     0.9882370     0.8832440
  H        1.8267750    -1.5109680    -0.0000190
  H        4.1132610    -0.8568050    -0.8912560
  H        4.1132390    -0.8567810     0.8912880
  H        3.8584940     0.6633720    -0.0000070
units angstrom
no_reorient  #important for SAPT in psi4, default
symmetry c1  #important for SAPT in psi4, default
}

set PROPERTIES_ORIGIN ["COM"]
properties('MP2/aug-cc-pvtz', properties = ['dipole'])
--------------------------------------------------------------------------

    Molecular point group: c1
  Charge       = 0
  Multiplicity = 1
  Basis Set: AUG-CC-PVTZ
    Blend: AUG-CC-PVTZ
  Basis Set: (AUG-CC-PVTZ AUX)
    Blend: AUG-CC-PVTZ-JKFIT

    Orbital Energies [Eh]
    ---------------------

    Doubly Occupied:

       1A    -20.638590     2A    -20.513808     3A    -15.586949
       4A    -11.358257     5A    -11.304266     6A    -11.298615
       7A    -11.257942     8A    -11.252711     9A    -11.246905
      10A    -11.238177    11A     -1.468120    12A     -1.368709
      13A     -1.229353    14A     -1.112827    15A     -1.040743
      16A     -0.975341    17A     -0.939946    18A     -0.838913
      19A     -0.795164    20A     -0.773021    21A     -0.738677
      22A     -0.667833    23A     -0.655801    24A     -0.636044
      25A     -0.617233    26A     -0.596670    27A     -0.592250
      28A     -0.582129    29A     -0.578354    30A     -0.556239
      31A     -0.543293    32A     -0.533903    33A     -0.519187
      34A     -0.431655    35A     -0.397786    36A     -0.388646
      37A     -0.320723

  @DF-RHF Final Energy:  -474.65167619020303

   => Energetics <=

    Nuclear Repulsion Energy =            509.3774099665539552
    One-Electron Energy =               -1656.8686114174240629
    Two-Electron Energy =                 672.8395252606669601
    Total Energy =                       -474.6516761902030339
  Basis Set: (AUG-CC-PVTZ AUX)
    Blend: AUG-CC-PVTZ-RI
    Molecular point group: c1

    Geometry (in Angstrom), charge = 0, multiplicity = 1:

       Center              X                  Y                   Z               Mass
    ------------   -----------------  -----------------  -----------------  -----------------
         O           -0.420546604318    -1.214820455160     0.000002065354    15.994914619570
         O            1.712203395682     1.656042544840     0.000014065354    15.994914619570
         N            2.213226395682    -0.592281455160    -0.000014934646    14.003074004430
         C           -2.330534104318     0.032877444840     0.000005065354    12.000000000000
         C           -0.070310604318     0.111749544840    -0.000011934646    12.000000000000
         C           -1.194397604318     0.895650544840    -0.000008934646    12.000000000000
         C           -1.789660604318    -1.252701455160     0.000009065354    12.000000000000
         C            1.361361395682     0.471009544840    -0.000000934646    12.000000000000
         C           -3.765131604318     0.383922544840    -0.000000934646    12.000000000000
         C            3.652144395682    -0.419969455160     0.000004065354    12.000000000000
         H           -1.196326604318     1.977793544840    -0.000018934646     1.007825032230
         H           -2.229966604318    -2.240050455160     0.000027065354     1.007825032230
         H           -4.019447604318     0.977104544840    -0.883262934646     1.007825032230
         H           -4.395869604318    -0.509239455160     0.000010065354     1.007825032230
         H           -4.019450604318     0.977128544840     0.883244065354     1.007825032230
         H            1.814614395682    -1.522076455160    -0.000018934646     1.007825032230
         H            4.101100395682    -0.867913455160    -0.891255934646     1.007825032230
         H            4.101078395682    -0.867889455160     0.891288065354     1.007825032230
         H            3.846333395682     0.652263544840    -0.000006934646     1.007825032230

  Basis Set: AUG-CC-PVTZ
    Blend: AUG-CC-PVTZ
  Basis Set: (AUG-CC-PVTZ AUX)
    Blend: AUG-CC-PVTZ-JKFIT
	 Reference Energy          =    -474.6516761902030339 [Eh]
	 Singles Energy            =      -0.0000000000000000 [Eh]
	 Same-Spin Energy          =      -0.4914415571632769 [Eh]
	 Opposite-Spin Energy      =      -1.5273712022392156 [Eh]
	 Correlation Energy        =      -2.0188127594024925 [Eh]
	 Total Energy              =    -476.6704889496054989 [Eh]

	 ================> DF-SCS-MP2 Energies <==================
	-----------------------------------------------------------
	 SCS Same-Spin Scale       =       0.3333333333333333 [-]
	 SCS Opposite-Spin Scale   =       1.2000000000000000 [-]
	 SCS Same-Spin Energy      =      -0.1638138523877589 [Eh]
	 SCS Opposite-Spin Energy  =      -1.8328454426870586 [Eh]
	 SCS Correlation Energy    =      -1.9966592950748177 [Eh]
	 SCS Total Energy          =    -476.6483354852778689 [Eh]
	-----------------------------------------------------------

  Dipole Moment: [D]
     X:    -1.3257      Y:    -3.1445      Z:    -0.0000     Total:     3.4125

*** Psi4 exiting successfully. Buy a developer a beer!
