                               Psi4 1.4a3.dev225

  ==> Input File <==

--------------------------------------------------------------------------
#psi4
#
memory 32 gb

molecule  {
0 1
  O       -0.4083860    -1.2037120     0.0000020
  O        1.7243640     1.6671510     0.0000140
  N        2.2253870    -0.5811730    -0.0000150
  C       -2.3031430     0.0242890     0.0000050
  C       -0.0581500     0.1228580    -0.0000120
  C       -1.0961342     0.7847582    -0.0000089
  C       -1.7775000    -1.2415930     0.0000090
  C        1.3735220     0.4821180    -0.0000010
  C       -3.7529710     0.3950310    -0.0000010
  C        3.6643050    -0.4088610     0.0000040
  H       -1.1841660     1.9889020    -0.0000190
  H       -2.2178060    -2.2289420     0.0000270
  H       -4.0072870     0.9882130    -0.8832630
  H       -4.3837090    -0.4981310     0.0000100
  H       -4.0072900     0.9882370     0.8832440
  H        1.8267750    -1.5109680    -0.0000190
  H        4.1132610    -0.8568050    -0.8912560
  H        4.1132390    -0.8567810     0.8912880
  H        3.8584940     0.6633720    -0.0000070
units angstrom
no_reorient  #important for SAPT in psi4, default
symmetry c1  #important for SAPT in psi4, default
}

set PROPERTIES_ORIGIN ["COM"]
properties('MP2/aug-cc-pvtz', properties = ['dipole'])
--------------------------------------------------------------------------

    Molecular point group: c1
  Charge       = 0
  Multiplicity = 1
  Basis Set: AUG-CC-PVTZ
    Blend: AUG-CC-PVTZ
  Basis Set: (AUG-CC-PVTZ AUX)
    Blend: AUG-CC-PVTZ-JKFIT

    Orbital Energies [Eh]
    ---------------------

    Doubly Occupied:

       1A    -20.625041     2A    -20.515318     3A    -15.588244
       4A    -11.359686     5A    -11.300499     6A    -11.277447
       7A    -11.258648     8A    -11.247265     9A    -11.242111
      10A    -11.234955    11A     -1.468666    12A     -1.369930
      13A     -1.230413    14A     -1.121195    15A     -1.057144
      16A     -0.978258    17A     -0.942079    18A     -0.835845
      19A     -0.796930    20A     -0.771078    21A     -0.740676
      22A     -0.665023    23A     -0.660509    24A     -0.637003
      25A     -0.618083    26A     -0.593585    27A     -0.592249
      28A     -0.580938    29A     -0.568040    30A     -0.550426
      31A     -0.537250    32A     -0.535027    33A     -0.507836
      34A     -0.433110    35A     -0.410010    36A     -0.390538
      37A     -0.336376

  @DF-RHF Final Energy:  -474.62386112060659

   => Energetics <=

    Nuclear Repulsion Energy =            512.6507063826448984
    One-Electron Energy =               -1663.3942750886369595
    Two-Electron Energy =                 676.1197075853854130
    Total Energy =                       -474.6238611206065343
  Basis Set: (AUG-CC-PVTZ AUX)
    Blend: AUG-CC-PVTZ-RI
    Molecular point group: c1

    Geometry (in Angstrom), charge = 0, multiplicity = 1:

       Center              X                  Y                   Z               Mass
    ------------   -----------------  -----------------  -----------------  -----------------
         O           -0.429290819007    -1.202593130976     0.000002056725    15.994914619570
         O            1.703459180993     1.668269869024     0.000014056725    15.994914619570
         N            2.204482180993    -0.580054130976    -0.000014943275    14.003074004430
         C           -2.324047819007     0.025407869024     0.000005056725    12.000000000000
         C           -0.079054819007     0.123976869024    -0.000011943275    12.000000000000
         C           -1.117039019007     0.785877069024    -0.000008843275    12.000000000000
         C           -1.798404819007    -1.240474130976     0.000009056725    12.000000000000
         C            1.352617180993     0.483236869024    -0.000000943275    12.000000000000
         C           -3.773875819007     0.396149869024    -0.000000943275    12.000000000000
         C            3.643400180993    -0.407742130976     0.000004056725    12.000000000000
         H           -1.205070819007     1.990020869024    -0.000018943275     1.007825032230
         H           -2.238710819007    -2.227823130976     0.000027056725     1.007825032230
         H           -4.028191819007     0.989331869024    -0.883262943275     1.007825032230
         H           -4.404613819007    -0.497012130976     0.000010056725     1.007825032230
         H           -4.028194819007     0.989355869024     0.883244056725     1.007825032230
         H            1.805870180993    -1.509849130976    -0.000018943275     1.007825032230
         H            4.092356180993    -0.855686130976    -0.891255943275     1.007825032230
         H            4.092334180993    -0.855662130976     0.891288056725     1.007825032230
         H            3.837589180993     0.664490869024    -0.000006943275     1.007825032230

  Basis Set: AUG-CC-PVTZ
    Blend: AUG-CC-PVTZ
  Basis Set: (AUG-CC-PVTZ AUX)
    Blend: AUG-CC-PVTZ-JKFIT
	 Reference Energy          =    -474.6238611206065912 [Eh]
	 Singles Energy            =      -0.0000000000000000 [Eh]
	 Same-Spin Energy          =      -0.4893339403870981 [Eh]
	 Opposite-Spin Energy      =      -1.5240644936249130 [Eh]
	 Correlation Energy        =      -2.0133984340120112 [Eh]
	 Total Energy              =    -476.6372595546185948 [Eh]

	 ================> DF-SCS-MP2 Energies <==================
	-----------------------------------------------------------
	 SCS Same-Spin Scale       =       0.3333333333333333 [-]
	 SCS Opposite-Spin Scale   =       1.2000000000000000 [-]
	 SCS Same-Spin Energy      =      -0.1631113134623660 [Eh]
	 SCS Opposite-Spin Energy  =      -1.8288773923498955 [Eh]
	 SCS Correlation Energy    =      -1.9919887058122616 [Eh]
	 SCS Total Energy          =    -476.6158498264188665 [Eh]
	-----------------------------------------------------------

  Dipole Moment: [D]
     X:    -1.3206      Y:    -3.1233      Z:    -0.0000     Total:     3.3910

*** Psi4 exiting successfully. Buy a developer a beer!
