                               Psi4 1.4a3.dev225

  ==> Input File <==

--------------------------------------------------------------------------
#psi4
#
memory 32 gb

molecule  {
0 1
  O       -0.4083860    -1.2037120     0.0000020
  O        1.5985724     1.6973322     0.0000137
  N        2.2253870    -0.5811730    -0.0000150
  C       -2.3031430     0.0242890     0.0000050
  C       -0.0581500     0.1228580    -0.0000120
  C       -1.1822370     0.9067590    -0.0000090
  C       -1.7775000    -1.2415930     0.0000090
  C        1.3735220     0.4821180    -0.0000010
  C       -3.7529710     0.3950310    -0.0000010
  C        3.6643050    -0.4088610     0.0000040
  H       -1.1841660     1.9889020    -0.0000190
  H       -2.2178060    -2.2289420     0.0000270
  H       -4.0072870     0.9882130    -0.8832630
  H       -4.3837090    -0.4981310     0.0000100
  H       -4.0072900     0.9882370     0.8832440
  H        1.8267750    -1.5109680    -0.0000190
  H        4.1132610    -0.8568050    -0.8912560
  H        4.1132390    -0.8567810     0.8912880
  H        3.8584940     0.6633720    -0.0000070
units angstrom
no_reorient  #important for SAPT in psi4, default
symmetry c1  #important for SAPT in psi4, default
}

set PROPERTIES_ORIGIN ["COM"]
properties('MP2/aug-cc-pvtz', properties = ['dipole'])
--------------------------------------------------------------------------

    Molecular point group: c1
  Charge       = 0
  Multiplicity = 1
  Basis Set: AUG-CC-PVTZ
    Blend: AUG-CC-PVTZ
  Basis Set: (AUG-CC-PVTZ AUX)
    Blend: AUG-CC-PVTZ-JKFIT

    Orbital Energies [Eh]
    ---------------------

    Doubly Occupied:

       1A    -20.632521     2A    -20.516683     3A    -15.593774
       4A    -11.359852     5A    -11.296614     6A    -11.293563
       7A    -11.263355     8A    -11.246748     9A    -11.241276
      10A    -11.236323    11A     -1.464206    12A     -1.369627
      13A     -1.237720    14A     -1.109230    15A     -1.036628
      16A     -0.973134    17A     -0.941397    18A     -0.838571
      19A     -0.792410    20A     -0.776905    21A     -0.734265
      22A     -0.666210    23A     -0.653450    24A     -0.639530
      25A     -0.620423    26A     -0.593502    27A     -0.590944
      28A     -0.577744    29A     -0.575048    30A     -0.551088
      31A     -0.546802    32A     -0.536712    33A     -0.518645
      34A     -0.431030    35A     -0.399822    36A     -0.389748
      37A     -0.319600

  @DF-RHF Final Energy:  -474.65050960933678

   => Energetics <=

    Nuclear Repulsion Energy =            510.0784584489893518
    One-Electron Energy =               -1658.3277393228518122
    Two-Electron Energy =                 673.5987712645256806
    Total Energy =                       -474.6505096093368365
  Basis Set: (AUG-CC-PVTZ AUX)
    Blend: AUG-CC-PVTZ-RI
    Molecular point group: c1

    Geometry (in Angstrom), charge = 0, multiplicity = 1:

       Center              X                  Y                   Z               Mass
    ------------   -----------------  -----------------  -----------------  -----------------
         O           -0.407392454183    -1.216592186929     0.000002099860    15.994914619570
         O            1.599565945817     1.684452013071     0.000013799860    15.994914619570
         N            2.226380545817    -0.594053186929    -0.000014900140    14.003074004430
         C           -2.302149454183     0.011408813071     0.000005099860    12.000000000000
         C           -0.057156454183     0.109977813071    -0.000011900140    12.000000000000
         C           -1.181243454183     0.893878813071    -0.000008900140    12.000000000000
         C           -1.776506454183    -1.254473186929     0.000009099860    12.000000000000
         C            1.374515545817     0.469237813071    -0.000000900140    12.000000000000
         C           -3.751977454183     0.382150813071    -0.000000900140    12.000000000000
         C            3.665298545817    -0.421741186929     0.000004099860    12.000000000000
         H           -1.183172454183     1.976021813071    -0.000018900140     1.007825032230
         H           -2.216812454183    -2.241822186929     0.000027099860     1.007825032230
         H           -4.006293454183     0.975332813071    -0.883262900140     1.007825032230
         H           -4.382715454183    -0.511011186929     0.000010099860     1.007825032230
         H           -4.006296454183     0.975356813071     0.883244099860     1.007825032230
         H            1.827768545817    -1.523848186929    -0.000018900140     1.007825032230
         H            4.114254545817    -0.869685186929    -0.891255900140     1.007825032230
         H            4.114232545817    -0.869661186929     0.891288099860     1.007825032230
         H            3.859487545817     0.650491813071    -0.000006900140     1.007825032230

  Basis Set: AUG-CC-PVTZ
    Blend: AUG-CC-PVTZ
  Basis Set: (AUG-CC-PVTZ AUX)
    Blend: AUG-CC-PVTZ-JKFIT
	 Reference Energy          =    -474.6505096093367797 [Eh]
	 Singles Energy            =      -0.0000000000000000 [Eh]
	 Same-Spin Energy          =      -0.4908922298211826 [Eh]
	 Opposite-Spin Energy      =      -1.5267978701832574 [Eh]
	 Correlation Energy        =      -2.0176901000044403 [Eh]
	 Total Energy              =    -476.6681997093411951 [Eh]

	 ================> DF-SCS-MP2 Energies <==================
	-----------------------------------------------------------
	 SCS Same-Spin Scale       =       0.3333333333333333 [-]
	 SCS Opposite-Spin Scale   =       1.2000000000000000 [-]
	 SCS Same-Spin Energy      =      -0.1636307432737275 [Eh]
	 SCS Opposite-Spin Energy  =      -1.8321574442199089 [Eh]
	 SCS Correlation Energy    =      -1.9957881874936365 [Eh]
	 SCS Total Energy          =    -476.6462977968304244 [Eh]
	-----------------------------------------------------------

  Dipole Moment: [D]
     X:    -0.7976      Y:    -3.1865      Z:    -0.0000     Total:     3.2848

*** Psi4 exiting successfully. Buy a developer a beer!
