                               Psi4 1.4a3.dev225

  ==> Input File <==

--------------------------------------------------------------------------
#psi4
#
memory 32 gb

molecule  {
0 1
  O       -0.4083860    -1.2037120     0.0000020
  O        1.7243640     1.6671510     0.0000140
  N        2.2253870    -0.5811730    -0.0000150
  C       -2.3031430     0.0242890     0.0000050
  C       -0.0581500     0.1228580    -0.0000120
  C       -1.2137176     0.9453405    -0.0000090
  C       -1.7775000    -1.2415930     0.0000090
  C        1.3735220     0.4821180    -0.0000010
  C       -3.7529710     0.3950310    -0.0000010
  C        3.6643050    -0.4088610     0.0000040
  H       -1.1841660     1.9889020    -0.0000190
  H       -2.2178060    -2.2289420     0.0000270
  H       -4.0072870     0.9882130    -0.8832630
  H       -4.3837090    -0.4981310     0.0000100
  H       -4.0072900     0.9882370     0.8832440
  H        1.8267750    -1.5109680    -0.0000190
  H        4.1132610    -0.8568050    -0.8912560
  H        4.1132390    -0.8567810     0.8912880
  H        3.8584940     0.6633720    -0.0000070
units angstrom
no_reorient  #important for SAPT in psi4, default
symmetry c1  #important for SAPT in psi4, default
}

set PROPERTIES_ORIGIN ["COM"]
properties('MP2/aug-cc-pvtz', properties = ['dipole'])
--------------------------------------------------------------------------

    Molecular point group: c1
  Charge       = 0
  Multiplicity = 1
  Basis Set: AUG-CC-PVTZ
    Blend: AUG-CC-PVTZ
  Basis Set: (AUG-CC-PVTZ AUX)
    Blend: AUG-CC-PVTZ-JKFIT

    Orbital Energies [Eh]
    ---------------------

    Doubly Occupied:

       1A    -20.640902     2A    -20.514038     3A    -15.586996
       4A    -11.358205     5A    -11.305636     6A    -11.301197
       7A    -11.257988     8A    -11.251881     9A    -11.250165
      10A    -11.237672    11A     -1.468718    12A     -1.368848
      13A     -1.229447    14A     -1.111517    15A     -1.036705
      16A     -0.971551    17A     -0.940813    18A     -0.842465
      19A     -0.800169    20A     -0.772561    21A     -0.734112
      22A     -0.670625    23A     -0.655462    24A     -0.635807
      25A     -0.617335    26A     -0.603497    27A     -0.591462
      28A     -0.582143    29A     -0.579963    30A     -0.548756
      31A     -0.543358    32A     -0.533942    33A     -0.519898
      34A     -0.431665    35A     -0.397146    36A     -0.388381
      37A     -0.319514

  @DF-RHF Final Energy:  -474.64780921524107

   => Energetics <=

    Nuclear Repulsion Energy =            508.7408084690417240
    One-Electron Energy =               -1655.5761578771046061
    Two-Electron Energy =                 672.1875401928218707
    Total Energy =                       -474.6478092152410682
  Basis Set: (AUG-CC-PVTZ AUX)
    Blend: AUG-CC-PVTZ-RI
    Molecular point group: c1

    Geometry (in Angstrom), charge = 0, multiplicity = 1:

       Center              X                  Y                   Z               Mass
    ------------   -----------------  -----------------  -----------------  -----------------
         O           -0.419144356852    -1.216450037900     0.000002065354    15.994914619570
         O            1.713605643148     1.654412962100     0.000014065354    15.994914619570
         N            2.214628643148    -0.593911037900    -0.000014934646    14.003074004430
         C           -2.313901356852     0.011550962100     0.000005065354    12.000000000000
         C           -0.068908356852     0.110119962100    -0.000011934646    12.000000000000
         C           -1.224475956852     0.932602462100    -0.000008934646    12.000000000000
         C           -1.788258356852    -1.254331037900     0.000009065354    12.000000000000
         C            1.362763643148     0.469379962100    -0.000000934646    12.000000000000
         C           -3.763729356852     0.382292962100    -0.000000934646    12.000000000000
         C            3.653546643148    -0.421599037900     0.000004065354    12.000000000000
         H           -1.194924356852     1.976163962100    -0.000018934646     1.007825032230
         H           -2.228564356852    -2.241680037900     0.000027065354     1.007825032230
         H           -4.018045356852     0.975474962100    -0.883262934646     1.007825032230
         H           -4.394467356852    -0.510869037900     0.000010065354     1.007825032230
         H           -4.018048356852     0.975498962100     0.883244065354     1.007825032230
         H            1.816016643148    -1.523706037900    -0.000018934646     1.007825032230
         H            4.102502643148    -0.869543037900    -0.891255934646     1.007825032230
         H            4.102480643148    -0.869519037900     0.891288065354     1.007825032230
         H            3.847735643148     0.650633962100    -0.000006934646     1.007825032230

  Basis Set: AUG-CC-PVTZ
    Blend: AUG-CC-PVTZ
  Basis Set: (AUG-CC-PVTZ AUX)
    Blend: AUG-CC-PVTZ-JKFIT
	 Reference Energy          =    -474.6478092152410682 [Eh]
	 Singles Energy            =      -0.0000000000000000 [Eh]
	 Same-Spin Energy          =      -0.4917502795503338 [Eh]
	 Opposite-Spin Energy      =      -1.5280995226029974 [Eh]
	 Correlation Energy        =      -2.0198498021533311 [Eh]
	 Total Energy              =    -476.6676590173943850 [Eh]

	 ================> DF-SCS-MP2 Energies <==================
	-----------------------------------------------------------
	 SCS Same-Spin Scale       =       0.3333333333333333 [-]
	 SCS Opposite-Spin Scale   =       1.2000000000000000 [-]
	 SCS Same-Spin Energy      =      -0.1639167598501113 [Eh]
	 SCS Opposite-Spin Energy  =      -1.8337194271235968 [Eh]
	 SCS Correlation Energy    =      -1.9976361869737080 [Eh]
	 SCS Total Energy          =    -476.6454454022147615 [Eh]
	-----------------------------------------------------------

  Dipole Moment: [D]
     X:    -1.2811      Y:    -3.1711      Z:    -0.0000     Total:     3.4201

*** Psi4 exiting successfully. Buy a developer a beer!
