                               Psi4 1.4a3.dev225

  ==> Input File <==

--------------------------------------------------------------------------
#psi4
#
memory 32 gb

molecule  {
0 1
  O       -0.4083860    -1.2037120     0.0000020
  O        1.7243640     1.6671510     0.0000140
  N        2.2253870    -0.5811730    -0.0000150
  C       -2.3031430     0.0242890     0.0000050
  C       -0.0581500     0.1228580    -0.0000120
  C       -1.1822370     0.9067590    -0.0000090
  C       -1.7775000    -1.2415930     0.0000090
  C        1.3735220     0.4821180    -0.0000010
  C       -3.7335945     0.3900761    -0.0000009
  C        3.6643050    -0.4088610     0.0000040
  H       -1.1841660     1.9889020    -0.0000190
  H       -2.2178060    -2.2289420     0.0000270
  H       -4.0072870     0.9882130    -0.8832630
  H       -4.3837090    -0.4981310     0.0000100
  H       -4.0072900     0.9882370     0.8832440
  H        1.8267750    -1.5109680    -0.0000190
  H        4.1132610    -0.8568050    -0.8912560
  H        4.1132390    -0.8567810     0.8912880
  H        3.8584940     0.6633720    -0.0000070
units angstrom
no_reorient  #important for SAPT in psi4, default
symmetry c1  #important for SAPT in psi4, default
}

set PROPERTIES_ORIGIN ["COM"]
properties('MP2/aug-cc-pvtz', properties = ['dipole'])
--------------------------------------------------------------------------

    Molecular point group: c1
  Charge       = 0
  Multiplicity = 1
  Basis Set: AUG-CC-PVTZ
    Blend: AUG-CC-PVTZ
  Basis Set: (AUG-CC-PVTZ AUX)
    Blend: AUG-CC-PVTZ-JKFIT

    Orbital Energies [Eh]
    ---------------------

    Doubly Occupied:

       1A    -20.636888     2A    -20.514282     3A    -15.587249
       4A    -11.358502     5A    -11.301083     6A    -11.299177
       7A    -11.258125     8A    -11.249430     9A    -11.246507
      10A    -11.239208    11A     -1.468142    12A     -1.369092
      13A     -1.229645    14A     -1.115045    15A     -1.041576
      16A     -0.973723    17A     -0.940565    18A     -0.840179
      19A     -0.796731    20A     -0.773269    21A     -0.737735
      22A     -0.668313    23A     -0.656273    24A     -0.636402
      25A     -0.617459    26A     -0.595818    27A     -0.592178
      28A     -0.578667    29A     -0.577376    30A     -0.556355
      31A     -0.543303    32A     -0.534169    33A     -0.518882
      34A     -0.432014    35A     -0.398455    36A     -0.388898
      37A     -0.323998

  @DF-RHF Final Energy:  -474.65337215834393

   => Energetics <=

    Nuclear Repulsion Energy =            509.9939002940018327
    One-Electron Energy =               -1658.1051213521625414
    Two-Electron Energy =                 673.4578488998167813
    Total Energy =                       -474.6533721583439274
  Basis Set: (AUG-CC-PVTZ AUX)
    Blend: AUG-CC-PVTZ-RI
    Molecular point group: c1

    Geometry (in Angstrom), charge = 0, multiplicity = 1:

       Center              X                  Y                   Z               Mass
    ------------   -----------------  -----------------  -----------------  -----------------
         O           -0.423532898436    -1.212693211384     0.000002056725    15.994914619570
         O            1.709217101564     1.658169788616     0.000014056725    15.994914619570
         N            2.210240101564    -0.590154211384    -0.000014943275    14.003074004430
         C           -2.318289898436     0.015307788616     0.000005056725    12.000000000000
         C           -0.073296898436     0.113876788616    -0.000011943275    12.000000000000
         C           -1.197383898436     0.897777788616    -0.000008943275    12.000000000000
         C           -1.792646898436    -1.250574211384     0.000009056725    12.000000000000
         C            1.358375101564     0.473136788616    -0.000000943275    12.000000000000
         C           -3.748741398436     0.381094888616    -0.000000843275    12.000000000000
         C            3.649158101564    -0.417842211384     0.000004056725    12.000000000000
         H           -1.199312898436     1.979920788616    -0.000018943275     1.007825032230
         H           -2.232952898436    -2.237923211384     0.000027056725     1.007825032230
         H           -4.022433898436     0.979231788616    -0.883262943275     1.007825032230
         H           -4.398855898436    -0.507112211384     0.000010056725     1.007825032230
         H           -4.022436898436     0.979255788616     0.883244056725     1.007825032230
         H            1.811628101564    -1.519949211384    -0.000018943275     1.007825032230
         H            4.098114101564    -0.865786211384    -0.891255943275     1.007825032230
         H            4.098092101564    -0.865762211384     0.891288056725     1.007825032230
         H            3.843347101564     0.654390788616    -0.000006943275     1.007825032230

  Basis Set: AUG-CC-PVTZ
    Blend: AUG-CC-PVTZ
  Basis Set: (AUG-CC-PVTZ AUX)
    Blend: AUG-CC-PVTZ-JKFIT
	 Reference Energy          =    -474.6533721583439274 [Eh]
	 Singles Energy            =      -0.0000000000000000 [Eh]
	 Same-Spin Energy          =      -0.4910192268653159 [Eh]
	 Opposite-Spin Energy      =      -1.5266677384621383 [Eh]
	 Correlation Energy        =      -2.0176869653274543 [Eh]
	 Total Energy              =    -476.6710591236713981 [Eh]

	 ================> DF-SCS-MP2 Energies <==================
	-----------------------------------------------------------
	 SCS Same-Spin Scale       =       0.3333333333333333 [-]
	 SCS Opposite-Spin Scale   =       1.2000000000000000 [-]
	 SCS Same-Spin Energy      =      -0.1636730756217720 [Eh]
	 SCS Opposite-Spin Energy  =      -1.8320012861545658 [Eh]
	 SCS Correlation Energy    =      -1.9956743617763377 [Eh]
	 SCS Total Energy          =    -476.6490465201202369 [Eh]
	-----------------------------------------------------------

  Dipole Moment: [D]
     X:    -1.2844      Y:    -3.1488      Z:    -0.0000     Total:     3.4007

*** Psi4 exiting successfully. Buy a developer a beer!
