                               Psi4 1.4a3.dev225

  ==> Input File <==

--------------------------------------------------------------------------
#psi4
#
memory 32 gb

molecule  {
0 1
  O       -0.4083860    -1.2037120     0.0000020
  O        1.7243640     1.6671510     0.0000140
  N        2.2253870    -0.5811730    -0.0000150
  C       -2.3031430     0.0242890     0.0000050
  C       -0.0581500     0.1228580    -0.0000120
  C       -1.1822370     0.9067590    -0.0000090
  C       -1.7775000    -1.2415930     0.0000090
  C        1.3735220     0.4821180    -0.0000010
  C       -3.7529710     0.3950310    -0.0000010
  C        3.7139503    -0.4029159     0.0000047
  H       -1.1841660     1.9889020    -0.0000190
  H       -2.2178060    -2.2289420     0.0000270
  H       -4.0072870     0.9882130    -0.8832630
  H       -4.3837090    -0.4981310     0.0000100
  H       -4.0072900     0.9882370     0.8832440
  H        1.8267750    -1.5109680    -0.0000190
  H        4.1132610    -0.8568050    -0.8912560
  H        4.1132390    -0.8567810     0.8912880
  H        3.8584940     0.6633720    -0.0000070
units angstrom
no_reorient  #important for SAPT in psi4, default
symmetry c1  #important for SAPT in psi4, default
}

set PROPERTIES_ORIGIN ["COM"]
properties('MP2/aug-cc-pvtz', properties = ['dipole'])
--------------------------------------------------------------------------

    Molecular point group: c1
  Charge       = 0
  Multiplicity = 1
  Basis Set: AUG-CC-PVTZ
    Blend: AUG-CC-PVTZ
  Basis Set: (AUG-CC-PVTZ AUX)
    Blend: AUG-CC-PVTZ-JKFIT

    Orbital Energies [Eh]
    ---------------------

    Doubly Occupied:

       1A    -20.635669     2A    -20.512340     3A    -15.585428
       4A    -11.356646     5A    -11.299900     6A    -11.297911
       7A    -11.259485     8A    -11.249280     9A    -11.245317
      10A    -11.238100    11A     -1.466863    12A     -1.366440
      13A     -1.219223    14A     -1.112139    15A     -1.039030
      16A     -0.972855    17A     -0.942340    18A     -0.839954
      19A     -0.795567    20A     -0.768592    21A     -0.735494
      22A     -0.666642    23A     -0.654789    24A     -0.625791
      25A     -0.619393    26A     -0.595518    27A     -0.587544
      28A     -0.579639    29A     -0.577237    30A     -0.555047
      31A     -0.546987    32A     -0.538060    33A     -0.521251
      34A     -0.429885    35A     -0.398573    36A     -0.388983
      37A     -0.323067

  @DF-RHF Final Energy:  -474.65207447993907

   => Energetics <=

    Nuclear Repulsion Energy =            508.7454358747456808
    One-Electron Energy =               -1655.7010543753460752
    Two-Electron Energy =                 672.3035440206613202
    Total Energy =                       -474.6520744799390741
  Basis Set: (AUG-CC-PVTZ AUX)
    Blend: AUG-CC-PVTZ-RI
    Molecular point group: c1

    Geometry (in Angstrom), charge = 0, multiplicity = 1:

       Center              X                  Y                   Z               Mass
    ------------   -----------------  -----------------  -----------------  -----------------
         O           -0.426144842245    -1.213633790050     0.000002004950    15.994914619570
         O            1.706605157755     1.657229209950     0.000014004950    15.994914619570
         N            2.207628157755    -0.591094790050    -0.000014995050    14.003074004430
         C           -2.320901842245     0.014367209950     0.000005004950    12.000000000000
         C           -0.075908842245     0.112936209950    -0.000011995050    12.000000000000
         C           -1.199995842245     0.896837209950    -0.000008995050    12.000000000000
         C           -1.795258842245    -1.251514790050     0.000009004950    12.000000000000
         C            1.355763157755     0.472196209950    -0.000000995050    12.000000000000
         C           -3.770729842245     0.385109209950    -0.000000995050    12.000000000000
         C            3.696191457755    -0.412837690050     0.000004704950    12.000000000000
         H           -1.201924842245     1.978980209950    -0.000018995050     1.007825032230
         H           -2.235564842245    -2.238863790050     0.000027004950     1.007825032230
         H           -4.025045842245     0.978291209950    -0.883262995050     1.007825032230
         H           -4.401467842245    -0.508052790050     0.000010004950     1.007825032230
         H           -4.025048842245     0.978315209950     0.883244004950     1.007825032230
         H            1.809016157755    -1.520889790050    -0.000018995050     1.007825032230
         H            4.095502157755    -0.866726790050    -0.891255995050     1.007825032230
         H            4.095480157755    -0.866702790050     0.891288004950     1.007825032230
         H            3.840735157755     0.653450209950    -0.000006995050     1.007825032230

  Basis Set: AUG-CC-PVTZ
    Blend: AUG-CC-PVTZ
  Basis Set: (AUG-CC-PVTZ AUX)
    Blend: AUG-CC-PVTZ-JKFIT
	 Reference Energy          =    -474.6520744799390741 [Eh]
	 Singles Energy            =      -0.0000000000000000 [Eh]
	 Same-Spin Energy          =      -0.4906095898500567 [Eh]
	 Opposite-Spin Energy      =      -1.5265960146733659 [Eh]
	 Correlation Energy        =      -2.0172056045234226 [Eh]
	 Total Energy              =    -476.6692800844625140 [Eh]

	 ================> DF-SCS-MP2 Energies <==================
	-----------------------------------------------------------
	 SCS Same-Spin Scale       =       0.3333333333333333 [-]
	 SCS Opposite-Spin Scale   =       1.2000000000000000 [-]
	 SCS Same-Spin Energy      =      -0.1635365299500189 [Eh]
	 SCS Opposite-Spin Energy  =      -1.8319152176080391 [Eh]
	 SCS Correlation Energy    =      -1.9954517475580580 [Eh]
	 SCS Total Energy          =    -476.6475262274971101 [Eh]
	-----------------------------------------------------------

  Dipole Moment: [D]
     X:    -1.1283      Y:    -3.1755      Z:    -0.0000     Total:     3.3700

*** Psi4 exiting successfully. Buy a developer a beer!
