                               Psi4 1.4a3.dev225

  ==> Input File <==

--------------------------------------------------------------------------
#psi4
#
memory 32 gb

molecule  {
0 1
  O       -0.4083860    -1.2037120     0.0000020
  O        1.7243640     1.6671510     0.0000140
  N        2.2253870    -0.5811730    -0.0000150
  C       -2.3031430     0.0242890     0.0000050
  C       -0.0581500     0.1228580    -0.0000120
  C       -1.1822370     0.9067590    -0.0000090
  C       -1.7775000    -1.2415930     0.0000090
  C        1.4893328     0.5653373    -0.0000012
  C       -3.7529710     0.3950310    -0.0000010
  C        3.6643050    -0.4088610     0.0000040
  H       -1.1841660     1.9889020    -0.0000190
  H       -2.2178060    -2.2289420     0.0000270
  H       -4.0072870     0.9882130    -0.8832630
  H       -4.3837090    -0.4981310     0.0000100
  H       -4.0072900     0.9882370     0.8832440
  H        1.8267750    -1.5109680    -0.0000190
  H        4.1132610    -0.8568050    -0.8912560
  H        4.1132390    -0.8567810     0.8912880
  H        3.8584940     0.6633720    -0.0000070
units angstrom
no_reorient  #important for SAPT in psi4, default
symmetry c1  #important for SAPT in psi4, default
}

set PROPERTIES_ORIGIN ["COM"]
properties('MP2/aug-cc-pvtz', properties = ['dipole'])
--------------------------------------------------------------------------

    Molecular point group: c1
  Charge       = 0
  Multiplicity = 1
  Basis Set: AUG-CC-PVTZ
    Blend: AUG-CC-PVTZ
  Basis Set: (AUG-CC-PVTZ AUX)
    Blend: AUG-CC-PVTZ-JKFIT

    Orbital Energies [Eh]
    ---------------------

    Doubly Occupied:

       1A    -20.626740     2A    -20.539204     3A    -15.585972
       4A    -11.362899     5A    -11.290380     6A    -11.286842
       7A    -11.259197     8A    -11.240365     9A    -11.231732
      10A    -11.229413    11A     -1.460666    12A     -1.450114
      13A     -1.242772    14A     -1.101751    15A     -1.019049
      16A     -0.963873    17A     -0.935268    18A     -0.819560
      19A     -0.786529    20A     -0.780601    21A     -0.726400
      22A     -0.682341    23A     -0.650948    24A     -0.649182
      25A     -0.625513    26A     -0.605842    27A     -0.586902
      28A     -0.574222    29A     -0.569426    30A     -0.568669
      31A     -0.550959    32A     -0.543605    33A     -0.515221
      34A     -0.429067    35A     -0.405348    36A     -0.387217
      37A     -0.312521

  @DF-RHF Final Energy:  -474.63306807196750

   => Energetics <=

    Nuclear Repulsion Energy =            509.5034913150932425
    One-Electron Energy =               -1657.0805041784569767
    Two-Electron Energy =                 672.9439447913962340
    Total Energy =                       -474.6330680719675001
  Basis Set: (AUG-CC-PVTZ AUX)
    Blend: AUG-CC-PVTZ-RI
    Molecular point group: c1

    Geometry (in Angstrom), charge = 0, multiplicity = 1:

       Center              X                  Y                   Z               Mass
    ------------   -----------------  -----------------  -----------------  -----------------
         O           -0.431854370474    -1.220301906007     0.000002082612    15.994914619570
         O            1.700895629526     1.650561093993     0.000014082612    15.994914619570
         N            2.201918629526    -0.597762906007    -0.000014917388    14.003074004430
         C           -2.326611370474     0.007699093993     0.000005082612    12.000000000000
         C           -0.081618370474     0.106268093993    -0.000011917388    12.000000000000
         C           -1.205705370474     0.890169093993    -0.000008917388    12.000000000000
         C           -1.800968370474    -1.258182906007     0.000009082612    12.000000000000
         C            1.465864429526     0.548747393993    -0.000001117388    12.000000000000
         C           -3.776439370474     0.378441093993    -0.000000917388    12.000000000000
         C            3.640836629526    -0.425450906007     0.000004082612    12.000000000000
         H           -1.207634370474     1.972312093993    -0.000018917388     1.007825032230
         H           -2.241274370474    -2.245531906007     0.000027082612     1.007825032230
         H           -4.030755370474     0.971623093993    -0.883262917388     1.007825032230
         H           -4.407177370474    -0.514720906007     0.000010082612     1.007825032230
         H           -4.030758370474     0.971647093993     0.883244082612     1.007825032230
         H            1.803306629526    -1.527557906007    -0.000018917388     1.007825032230
         H            4.089792629526    -0.873394906007    -0.891255917388     1.007825032230
         H            4.089770629526    -0.873370906007     0.891288082612     1.007825032230
         H            3.835025629526     0.646782093993    -0.000006917388     1.007825032230

  Basis Set: AUG-CC-PVTZ
    Blend: AUG-CC-PVTZ
  Basis Set: (AUG-CC-PVTZ AUX)
    Blend: AUG-CC-PVTZ-JKFIT
	 Reference Energy          =    -474.6330680719675001 [Eh]
	 Singles Energy            =      -0.0000000000000000 [Eh]
	 Same-Spin Energy          =      -0.4883938000896142 [Eh]
	 Opposite-Spin Energy      =      -1.5220748380852887 [Eh]
	 Correlation Energy        =      -2.0104686381749026 [Eh]
	 Total Energy              =    -476.6435367101424276 [Eh]

	 ================> DF-SCS-MP2 Energies <==================
	-----------------------------------------------------------
	 SCS Same-Spin Scale       =       0.3333333333333333 [-]
	 SCS Opposite-Spin Scale   =       1.2000000000000000 [-]
	 SCS Same-Spin Energy      =      -0.1627979333632047 [Eh]
	 SCS Opposite-Spin Energy  =      -1.8264898057023462 [Eh]
	 SCS Correlation Energy    =      -1.9892877390655510 [Eh]
	 SCS Total Energy          =    -476.6223558110330600 [Eh]
	-----------------------------------------------------------

  Dipole Moment: [D]
     X:    -0.3253      Y:    -2.5038      Z:    -0.0000     Total:     2.5248

*** Psi4 exiting successfully. Buy a developer a beer!
