                               Psi4 1.4a3.dev225

  ==> Input File <==

--------------------------------------------------------------------------
#psi4
#
memory 32 gb

molecule  {
0 1
  O       -0.4092556    -1.1798234     0.0000016
  O        1.7243640     1.6671510     0.0000140
  N        2.2253870    -0.5811730    -0.0000150
  C       -2.3031430     0.0242890     0.0000050
  C       -0.0581500     0.1228580    -0.0000120
  C       -1.1822370     0.9067590    -0.0000090
  C       -1.7775000    -1.2415930     0.0000090
  C        1.3735220     0.4821180    -0.0000010
  C       -3.7529710     0.3950310    -0.0000010
  C        3.6643050    -0.4088610     0.0000040
  H       -1.1841660     1.9889020    -0.0000190
  H       -2.2178060    -2.2289420     0.0000270
  H       -4.0072870     0.9882130    -0.8832630
  H       -4.3837090    -0.4981310     0.0000100
  H       -4.0072900     0.9882370     0.8832440
  H        1.8267750    -1.5109680    -0.0000190
  H        4.1132610    -0.8568050    -0.8912560
  H        4.1132390    -0.8567810     0.8912880
  H        3.8584940     0.6633720    -0.0000070
units angstrom
no_reorient  #important for SAPT in psi4, default
symmetry c1  #important for SAPT in psi4, default
}

set PROPERTIES_ORIGIN ["COM"]
properties('MP2/aug-cc-pvtz', properties = ['dipole'])
--------------------------------------------------------------------------

    Molecular point group: c1
  Charge       = 0
  Multiplicity = 1
  Basis Set: AUG-CC-PVTZ
    Blend: AUG-CC-PVTZ
  Basis Set: (AUG-CC-PVTZ AUX)
    Blend: AUG-CC-PVTZ-JKFIT

    Orbital Energies [Eh]
    ---------------------

    Doubly Occupied:

       1A    -20.636929     2A    -20.514421     3A    -15.587599
       4A    -11.358415     5A    -11.299920     6A    -11.297801
       7A    -11.258347     8A    -11.249927     9A    -11.243375
      10A    -11.238300    11A     -1.475957    12A     -1.369193
      13A     -1.229938    14A     -1.111782    15A     -1.042411
      16A     -0.973728    17A     -0.942318    18A     -0.839549
      19A     -0.798355    20A     -0.773231    21A     -0.738252
      22A     -0.671115    23A     -0.660041    24A     -0.636151
      25A     -0.617913    26A     -0.596662    27A     -0.591911
      28A     -0.580048    29A     -0.576744    30A     -0.551259
      31A     -0.543451    32A     -0.534085    33A     -0.520737
      34A     -0.432137    35A     -0.397541    36A     -0.388494
      37A     -0.324144

  @DF-RHF Final Energy:  -474.65469309361657

   => Energetics <=

    Nuclear Repulsion Energy =            510.3128946642160599
    One-Electron Energy =               -1658.7308135519710959
    Two-Electron Energy =                 673.7632257941385205
    Total Energy =                       -474.6546930936166291
  Basis Set: (AUG-CC-PVTZ AUX)
    Blend: AUG-CC-PVTZ-RI
    Molecular point group: c1

    Geometry (in Angstrom), charge = 0, multiplicity = 1:

       Center              X                  Y                   Z               Mass
    ------------   -----------------  -----------------  -----------------  -----------------
         O           -0.422630448390    -1.191979818839     0.000001711362    15.994914619570
         O            1.710989151610     1.654994581161     0.000014111362    15.994914619570
         N            2.212012151610    -0.593329418839    -0.000014888638    14.003074004430
         C           -2.316517848390     0.012132581161     0.000005111362    12.000000000000
         C           -0.071524848390     0.110701581161    -0.000011888638    12.000000000000
         C           -1.195611848390     0.894602581161    -0.000008888638    12.000000000000
         C           -1.790874848390    -1.253749418839     0.000009111362    12.000000000000
         C            1.360147151610     0.469961581161    -0.000000888638    12.000000000000
         C           -3.766345848390     0.382874581161    -0.000000888638    12.000000000000
         C            3.650930151610    -0.421017418839     0.000004111362    12.000000000000
         H           -1.197540848390     1.976745581161    -0.000018888638     1.007825032230
         H           -2.231180848390    -2.241098418839     0.000027111362     1.007825032230
         H           -4.020661848390     0.976056581161    -0.883262888638     1.007825032230
         H           -4.397083848390    -0.510287418839     0.000010111362     1.007825032230
         H           -4.020664848390     0.976080581161     0.883244111362     1.007825032230
         H            1.813400151610    -1.523124418839    -0.000018888638     1.007825032230
         H            4.099886151610    -0.868961418839    -0.891255888638     1.007825032230
         H            4.099864151610    -0.868937418839     0.891288111362     1.007825032230
         H            3.845119151610     0.651215581161    -0.000006888638     1.007825032230

  Basis Set: AUG-CC-PVTZ
    Blend: AUG-CC-PVTZ
  Basis Set: (AUG-CC-PVTZ AUX)
    Blend: AUG-CC-PVTZ-JKFIT
	 Reference Energy          =    -474.6546930936165722 [Eh]
	 Singles Energy            =      -0.0000000000000000 [Eh]
	 Same-Spin Energy          =      -0.4908193386479411 [Eh]
	 Opposite-Spin Energy      =      -1.5258695370288546 [Eh]
	 Correlation Energy        =      -2.0166888756767958 [Eh]
	 Total Energy              =    -476.6713819692933498 [Eh]

	 ================> DF-SCS-MP2 Energies <==================
	-----------------------------------------------------------
	 SCS Same-Spin Scale       =       0.3333333333333333 [-]
	 SCS Opposite-Spin Scale   =       1.2000000000000000 [-]
	 SCS Same-Spin Energy      =      -0.1636064462159804 [Eh]
	 SCS Opposite-Spin Energy  =      -1.8310434444346255 [Eh]
	 SCS Correlation Energy    =      -1.9946498906506058 [Eh]
	 SCS Total Energy          =    -476.6493429842671503 [Eh]
	-----------------------------------------------------------

  Dipole Moment: [D]
     X:    -1.2708      Y:    -3.2183      Z:    -0.0000     Total:     3.4602

*** Psi4 exiting successfully. Buy a developer a beer!
