                               Psi4 1.4a3.dev225

  ==> Input File <==

--------------------------------------------------------------------------
#psi4
#
memory 32 gb

molecule  {
0 1
  O       -0.4083860    -1.2037120     0.0000020
  O        1.7243640     1.6671510     0.0000140
  N        2.2253870    -0.5811730    -0.0000150
  C       -2.3031430     0.0242890     0.0000050
  C       -0.0581500     0.1228580    -0.0000120
  C       -1.1822370     0.9067590    -0.0000090
  C       -1.7775000    -1.2415930     0.0000090
  C        1.3735220     0.4821180    -0.0000010
  C       -3.7529710     0.3950310    -0.0000010
  C        3.6643050    -0.4088610     0.0000040
  H       -1.1841660     1.9889020    -0.0000190
  H       -2.2178060    -2.2289420     0.0000270
  H       -4.0072870     0.9882130    -0.8832630
  H       -4.3837090    -0.4981310     0.0000100
  H       -4.0072900     0.9882370     0.8832440
  H        1.7479697    -1.6947878    -0.0000198
  H        4.1132610    -0.8568050    -0.8912560
  H        4.1132390    -0.8567810     0.8912880
  H        3.8584940     0.6633720    -0.0000070
units angstrom
no_reorient  #important for SAPT in psi4, default
symmetry c1  #important for SAPT in psi4, default
}

set PROPERTIES_ORIGIN ["COM"]
properties('MP2/aug-cc-pvtz', properties = ['dipole'])
--------------------------------------------------------------------------

    Molecular point group: c1
  Charge       = 0
  Multiplicity = 1
  Basis Set: AUG-CC-PVTZ
    Blend: AUG-CC-PVTZ
  Basis Set: (AUG-CC-PVTZ AUX)
    Blend: AUG-CC-PVTZ-JKFIT

    Orbital Energies [Eh]
    ---------------------

    Doubly Occupied:

       1A    -20.636879     2A    -20.512944     3A    -15.600486
       4A    -11.357478     5A    -11.300536     6A    -11.298588
       7A    -11.257286     8A    -11.250068     9A    -11.245808
      10A    -11.238611    11A     -1.468073    12A     -1.366867
      13A     -1.211537    14A     -1.112911    15A     -1.040283
      16A     -0.972253    17A     -0.938180    18A     -0.832042
      19A     -0.796377    20A     -0.742220    21A     -0.733131
      22A     -0.664227    23A     -0.655817    24A     -0.630297
      25A     -0.615361    26A     -0.596270    27A     -0.586230
      28A     -0.580001    29A     -0.578783    30A     -0.551140
      31A     -0.532969    32A     -0.528858    33A     -0.520579
      34A     -0.429976    35A     -0.398146    36A     -0.385756
      37A     -0.323523

  @DF-RHF Final Energy:  -474.62339968775944

   => Energetics <=

    Nuclear Repulsion Energy =            508.7326291773292724
    One-Electron Energy =               -1655.7310731574098099
    Two-Electron Energy =                 672.3750442923211494
    Total Energy =                       -474.6233996877593881
  Basis Set: (AUG-CC-PVTZ AUX)
    Blend: AUG-CC-PVTZ-RI
    Molecular point group: c1

    Geometry (in Angstrom), charge = 0, multiplicity = 1:

       Center              X                  Y                   Z               Mass
    ------------   -----------------  -----------------  -----------------  -----------------
         O           -0.421289748086    -1.211788591905     0.000002071152    15.994914619570
         O            1.711460251914     1.659074408095     0.000014071152    15.994914619570
         N            2.212483251914    -0.589249591905    -0.000014928848    14.003074004430
         C           -2.316046748086     0.016212408095     0.000005071152    12.000000000000
         C           -0.071053748086     0.114781408095    -0.000011928848    12.000000000000
         C           -1.195140748086     0.898682408095    -0.000008928848    12.000000000000
         C           -1.790403748086    -1.249669591905     0.000009071152    12.000000000000
         C            1.360618251914     0.474041408095    -0.000000928848    12.000000000000
         C           -3.765874748086     0.386954408095    -0.000000928848    12.000000000000
         C            3.651401251914    -0.416937591905     0.000004071152    12.000000000000
         H           -1.197069748086     1.980825408095    -0.000018928848     1.007825032230
         H           -2.230709748086    -2.237018591905     0.000027071152     1.007825032230
         H           -4.020190748086     0.980136408095    -0.883262928848     1.007825032230
         H           -4.396612748086    -0.506207591905     0.000010071152     1.007825032230
         H           -4.020193748086     0.980160408095     0.883244071152     1.007825032230
         H            1.735065951914    -1.702864391905    -0.000019728848     1.007825032230
         H            4.100357251914    -0.864881591905    -0.891255928848     1.007825032230
         H            4.100335251914    -0.864857591905     0.891288071152     1.007825032230
         H            3.845590251914     0.655295408095    -0.000006928848     1.007825032230

  Basis Set: AUG-CC-PVTZ
    Blend: AUG-CC-PVTZ
  Basis Set: (AUG-CC-PVTZ AUX)
    Blend: AUG-CC-PVTZ-JKFIT
	 Reference Energy          =    -474.6233996877594450 [Eh]
	 Singles Energy            =      -0.0000000000000000 [Eh]
	 Same-Spin Energy          =      -0.4926114567636116 [Eh]
	 Opposite-Spin Energy      =      -1.5309291928098041 [Eh]
	 Correlation Energy        =      -2.0235406495734156 [Eh]
	 Total Energy              =    -476.6469403373328646 [Eh]

	 ================> DF-SCS-MP2 Energies <==================
	-----------------------------------------------------------
	 SCS Same-Spin Scale       =       0.3333333333333333 [-]
	 SCS Opposite-Spin Scale   =       1.2000000000000000 [-]
	 SCS Same-Spin Energy      =      -0.1642038189212038 [Eh]
	 SCS Opposite-Spin Energy  =      -1.8371150313717648 [Eh]
	 SCS Correlation Energy    =      -2.0013188502929689 [Eh]
	 SCS Total Energy          =    -476.6247185380524343 [Eh]
	-----------------------------------------------------------

  Dipole Moment: [D]
     X:    -1.3298      Y:    -3.3240      Z:    -0.0000     Total:     3.5802

*** Psi4 exiting successfully. Buy a developer a beer!
