                               Psi4 1.4a3.dev225

  ==> Input File <==

--------------------------------------------------------------------------
#psi4
#
memory 32 gb

molecule  {
0 1
  O       -0.4083860    -1.2037120     0.0000020
  O        1.7243640     1.6671510     0.0000140
  N        2.2253870    -0.5811730    -0.0000150
  C       -2.3031430     0.0242890     0.0000050
  C       -0.0581500     0.1228580    -0.0000120
  C       -1.1822370     0.9067590    -0.0000090
  C       -1.7775000    -1.2415930     0.0000090
  C        1.3735220     0.4821180    -0.0000010
  C       -3.7529710     0.3950310    -0.0000010
  C        3.6643050    -0.4088610     0.0000040
  H       -1.1841660     1.9889020    -0.0000190
  H       -2.2178060    -2.2289420     0.0000270
  H       -4.0072870     0.9882130    -0.8832630
  H       -4.3837090    -0.4981310     0.0000100
  H       -4.0072900     0.9882370     0.8832440
  H        1.9055803    -1.3271482    -0.0000182
  H        4.1132610    -0.8568050    -0.8912560
  H        4.1132390    -0.8567810     0.8912880
  H        3.8584940     0.6633720    -0.0000070
units angstrom
no_reorient  #important for SAPT in psi4, default
symmetry c1  #important for SAPT in psi4, default
}

set PROPERTIES_ORIGIN ["COM"]
properties('MP2/aug-cc-pvtz', properties = ['dipole'])
--------------------------------------------------------------------------

    Molecular point group: c1
  Charge       = 0
  Multiplicity = 1
  Basis Set: AUG-CC-PVTZ
    Blend: AUG-CC-PVTZ
  Basis Set: (AUG-CC-PVTZ AUX)
    Blend: AUG-CC-PVTZ-JKFIT

    Orbital Energies [Eh]
    ---------------------

    Doubly Occupied:

       1A    -20.636671     2A    -20.515789     3A    -15.567258
       4A    -11.359633     5A    -11.301287     6A    -11.299438
       7A    -11.258878     8A    -11.250300     9A    -11.247146
      10A    -11.238886    11A     -1.467897    12A     -1.372954
      13A     -1.262196    14A     -1.113325    15A     -1.041761
      16A     -0.975310    17A     -0.946084    18A     -0.865516
      19A     -0.803477    20A     -0.796597    21A     -0.737035
      22A     -0.671138    23A     -0.656328    24A     -0.640928
      25A     -0.619523    26A     -0.596856    27A     -0.595760
      28A     -0.580258    29A     -0.578551    30A     -0.553154
      31A     -0.550386    32A     -0.535356    33A     -0.522120
      34A     -0.433841    35A     -0.400678    36A     -0.392143
      37A     -0.324544

  @DF-RHF Final Energy:  -474.60923051115765

   => Energetics <=

    Nuclear Repulsion Energy =            510.8792154928902960
    One-Electron Energy =               -1659.5588805666391181
    Two-Electron Energy =                 674.0704345625911174
    Total Energy =                       -474.6092305111576479
  Basis Set: (AUG-CC-PVTZ AUX)
    Blend: AUG-CC-PVTZ-RI
    Molecular point group: c1

    Geometry (in Angstrom), charge = 0, multiplicity = 1:

       Center              X                  Y                   Z               Mass
    ------------   -----------------  -----------------  -----------------  -----------------
         O           -0.422431989608    -1.214452963567     0.000002059556    15.994914619570
         O            1.710318010392     1.656410036433     0.000014059556    15.994914619570
         N            2.211341010392    -0.591913963567    -0.000014940444    14.003074004430
         C           -2.317188989608     0.013548036433     0.000005059556    12.000000000000
         C           -0.072195989608     0.112117036433    -0.000011940444    12.000000000000
         C           -1.196282989608     0.896018036433    -0.000008940444    12.000000000000
         C           -1.791545989608    -1.252333963567     0.000009059556    12.000000000000
         C            1.359476010392     0.471377036433    -0.000000940444    12.000000000000
         C           -3.767016989608     0.384290036433    -0.000000940444    12.000000000000
         C            3.650259010392    -0.419601963567     0.000004059556    12.000000000000
         H           -1.198211989608     1.978161036433    -0.000018940444     1.007825032230
         H           -2.231851989608    -2.239682963567     0.000027059556     1.007825032230
         H           -4.021332989608     0.977472036433    -0.883262940444     1.007825032230
         H           -4.397754989608    -0.508871963567     0.000010059556     1.007825032230
         H           -4.021335989608     0.977496036433     0.883244059556     1.007825032230
         H            1.891534310392    -1.337889163567    -0.000018140444     1.007825032230
         H            4.099215010392    -0.867545963567    -0.891255940444     1.007825032230
         H            4.099193010392    -0.867521963567     0.891288059556     1.007825032230
         H            3.844448010392     0.652631036433    -0.000006940444     1.007825032230

  Basis Set: AUG-CC-PVTZ
    Blend: AUG-CC-PVTZ
  Basis Set: (AUG-CC-PVTZ AUX)
    Blend: AUG-CC-PVTZ-JKFIT
	 Reference Energy          =    -474.6092305111576479 [Eh]
	 Singles Energy            =      -0.0000000000000000 [Eh]
	 Same-Spin Energy          =      -0.4894557056263247 [Eh]
	 Opposite-Spin Energy      =      -1.5236802411066463 [Eh]
	 Correlation Energy        =      -2.0131359467329712 [Eh]
	 Total Energy              =    -476.6223664578906209 [Eh]

	 ================> DF-SCS-MP2 Energies <==================
	-----------------------------------------------------------
	 SCS Same-Spin Scale       =       0.3333333333333333 [-]
	 SCS Opposite-Spin Scale   =       1.2000000000000000 [-]
	 SCS Same-Spin Energy      =      -0.1631519018754415 [Eh]
	 SCS Opposite-Spin Energy  =      -1.8284162893279756 [Eh]
	 SCS Correlation Energy    =      -1.9915681912034171 [Eh]
	 SCS Total Energy          =    -476.6007987023610895 [Eh]
	-----------------------------------------------------------

  Dipole Moment: [D]
     X:    -1.2732      Y:    -2.9662      Z:    -0.0000     Total:     3.2279

*** Psi4 exiting successfully. Buy a developer a beer!
