                               Psi4 1.4a3.dev225

  ==> Input File <==

--------------------------------------------------------------------------
#psi4
#
memory 32 gb

molecule  {
0 1
  O       -0.4083860    -1.2037120     0.0000020
  O        1.7243640     1.6671510     0.0000140
  N        2.2253870    -0.5811730    -0.0000150
  C       -2.3031430     0.0242890     0.0000050
  C       -0.0581500     0.1228580    -0.0000120
  C       -1.2465255     0.9827998    -0.0000090
  C       -1.7775000    -1.2415930     0.0000090
  C        1.3735220     0.4821180    -0.0000010
  C       -3.7529710     0.3950310    -0.0000010
  C        3.6643050    -0.4088610     0.0000040
  H       -1.1841660     1.9889020    -0.0000190
  H       -2.2178060    -2.2289420     0.0000270
  H       -4.0072870     0.9882130    -0.8832630
  H       -4.3837090    -0.4981310     0.0000100
  H       -4.0072900     0.9882370     0.8832440
  H        1.8267750    -1.5109680    -0.0000190
  H        4.1132610    -0.8568050    -0.8912560
  H        4.1132390    -0.8567810     0.8912880
  H        3.8584940     0.6633720    -0.0000070
units angstrom
no_reorient  #important for SAPT in psi4, default
symmetry c1  #important for SAPT in psi4, default
}

set PROPERTIES_ORIGIN ["COM"]
properties('MP2/aug-cc-pvtz', properties = ['dipole'])
--------------------------------------------------------------------------

    Molecular point group: c1
  Charge       = 0
  Multiplicity = 1
  Basis Set: AUG-CC-PVTZ
    Blend: AUG-CC-PVTZ
  Basis Set: (AUG-CC-PVTZ AUX)
    Blend: AUG-CC-PVTZ-JKFIT

    Orbital Energies [Eh]
    ---------------------

    Doubly Occupied:

       1A    -20.645056     2A    -20.514054     3A    -15.586962
       4A    -11.358144     5A    -11.311869     6A    -11.301491
       7A    -11.257993     8A    -11.254399     9A    -11.253292
      10A    -11.236638    11A     -1.469764    12A     -1.368820
      13A     -1.229454    14A     -1.110368    15A     -1.033130
      16A     -0.969595    17A     -0.940999    18A     -0.845798
      19A     -0.804338    20A     -0.772012    21A     -0.730993
      22A     -0.674327    23A     -0.655162    24A     -0.635772
      25A     -0.617384    26A     -0.612245    27A     -0.591572
      28A     -0.582568    29A     -0.579848    30A     -0.547447
      31A     -0.542918    32A     -0.533862    33A     -0.515232
      34A     -0.431500    35A     -0.396011    36A     -0.387910
      37A     -0.314985

  @DF-RHF Final Energy:  -474.63481453002908

   => Energetics <=

    Nuclear Repulsion Energy =            507.8735607774258369
    One-Electron Energy =               -1653.7889268954888848
    Two-Electron Energy =                 671.2805515880339726
    Total Energy =                       -474.6348145300290753
  Basis Set: (AUG-CC-PVTZ AUX)
    Blend: AUG-CC-PVTZ-RI
    Molecular point group: c1

    Geometry (in Angstrom), charge = 0, multiplicity = 1:

       Center              X                  Y                   Z               Mass
    ------------   -----------------  -----------------  -----------------  -----------------
         O           -0.416313309989    -1.219682461608     0.000002065354    15.994914619570
         O            1.716436690011     1.651180538392     0.000014065354    15.994914619570
         N            2.217459690011    -0.597143461608    -0.000014934646    14.003074004430
         C           -2.311070309989     0.008318538392     0.000005065354    12.000000000000
         C           -0.066077309989     0.106887538392    -0.000011934646    12.000000000000
         C           -1.254452809989     0.966829338392    -0.000008934646    12.000000000000
         C           -1.785427309989    -1.257563461608     0.000009065354    12.000000000000
         C            1.365594690011     0.466147538392    -0.000000934646    12.000000000000
         C           -3.760898309989     0.379060538392    -0.000000934646    12.000000000000
         C            3.656377690011    -0.424831461608     0.000004065354    12.000000000000
         H           -1.192093309989     1.972931538392    -0.000018934646     1.007825032230
         H           -2.225733309989    -2.244912461608     0.000027065354     1.007825032230
         H           -4.015214309989     0.972242538392    -0.883262934646     1.007825032230
         H           -4.391636309989    -0.514101461608     0.000010065354     1.007825032230
         H           -4.015217309989     0.972266538392     0.883244065354     1.007825032230
         H            1.818847690011    -1.526938461608    -0.000018934646     1.007825032230
         H            4.105333690011    -0.872775461608    -0.891255934646     1.007825032230
         H            4.105311690011    -0.872751461608     0.891288065354     1.007825032230
         H            3.850566690011     0.647401538392    -0.000006934646     1.007825032230

  Basis Set: AUG-CC-PVTZ
    Blend: AUG-CC-PVTZ
  Basis Set: (AUG-CC-PVTZ AUX)
    Blend: AUG-CC-PVTZ-JKFIT
	 Reference Energy          =    -474.6348145300290753 [Eh]
	 Singles Energy            =      -0.0000000000000000 [Eh]
	 Same-Spin Energy          =      -0.4928362341326786 [Eh]
	 Opposite-Spin Energy      =      -1.5301097430808048 [Eh]
	 Correlation Energy        =      -2.0229459772134835 [Eh]
	 Total Energy              =    -476.6577605072425854 [Eh]

	 ================> DF-SCS-MP2 Energies <==================
	-----------------------------------------------------------
	 SCS Same-Spin Scale       =       0.3333333333333333 [-]
	 SCS Opposite-Spin Scale   =       1.2000000000000000 [-]
	 SCS Same-Spin Energy      =      -0.1642787447108929 [Eh]
	 SCS Opposite-Spin Energy  =      -1.8361316916969657 [Eh]
	 SCS Correlation Energy    =      -2.0004104364078583 [Eh]
	 SCS Total Energy          =    -476.6352249664369083 [Eh]
	-----------------------------------------------------------

  Dipole Moment: [D]
     X:    -1.2707      Y:    -3.1999      Z:    -0.0000     Total:     3.4429

*** Psi4 exiting successfully. Buy a developer a beer!
