                               Psi4 1.4a3.dev225

  ==> Input File <==

--------------------------------------------------------------------------
#psi4
#
memory 32 gb

molecule  {
0 1
  O       -0.4083860    -1.2037120     0.0000020
  O        1.7243640     1.6671510     0.0000140
  N        2.2253870    -0.5811730    -0.0000150
  C       -2.3031430     0.0242890     0.0000050
  C       -0.0581500     0.1228580    -0.0000120
  C       -1.1822370     0.9067590    -0.0000090
  C       -1.7575077    -1.2410398     0.0000089
  C        1.3735220     0.4821180    -0.0000010
  C       -3.7529710     0.3950310    -0.0000010
  C        3.6643050    -0.4088610     0.0000040
  H       -1.1841660     1.9889020    -0.0000190
  H       -2.2178060    -2.2289420     0.0000270
  H       -4.0072870     0.9882130    -0.8832630
  H       -4.3837090    -0.4981310     0.0000100
  H       -4.0072900     0.9882370     0.8832440
  H        1.8267750    -1.5109680    -0.0000190
  H        4.1132610    -0.8568050    -0.8912560
  H        4.1132390    -0.8567810     0.8912880
  H        3.8584940     0.6633720    -0.0000070
units angstrom
no_reorient  #important for SAPT in psi4, default
symmetry c1  #important for SAPT in psi4, default
}

set PROPERTIES_ORIGIN ["COM"]
properties('MP2/aug-cc-pvtz', properties = ['dipole'])
--------------------------------------------------------------------------

    Molecular point group: c1
  Charge       = 0
  Multiplicity = 1
  Basis Set: AUG-CC-PVTZ
    Blend: AUG-CC-PVTZ
  Basis Set: (AUG-CC-PVTZ AUX)
    Blend: AUG-CC-PVTZ-JKFIT

    Orbital Energies [Eh]
    ---------------------

    Doubly Occupied:

       1A    -20.639936     2A    -20.513647     3A    -15.586925
       4A    -11.358089     5A    -11.302255     6A    -11.297906
       7A    -11.257954     8A    -11.249443     9A    -11.246924
      10A    -11.238670    11A     -1.476483    12A     -1.368716
      13A     -1.229426    14A     -1.112609    15A     -1.042010
      16A     -0.973500    17A     -0.940605    18A     -0.838626
      19A     -0.799137    20A     -0.772630    21A     -0.739033
      22A     -0.669325    23A     -0.660035    24A     -0.635860
      25A     -0.617793    26A     -0.593941    27A     -0.591491
      28A     -0.580835    29A     -0.580111    30A     -0.552035
      31A     -0.543335    32A     -0.534291    33A     -0.519795
      34A     -0.431535    35A     -0.398703    36A     -0.388956
      37A     -0.322519

  @DF-RHF Final Energy:  -474.65411166921331

   => Energetics <=

    Nuclear Repulsion Energy =            509.9513712583211031
    One-Electron Energy =               -1658.0007957418679325
    Two-Electron Energy =                 673.3953128143334652
    Total Energy =                       -474.6541116692133073
  Basis Set: (AUG-CC-PVTZ AUX)
    Blend: AUG-CC-PVTZ-RI
    Molecular point group: c1

    Geometry (in Angstrom), charge = 0, multiplicity = 1:

       Center              X                  Y                   Z               Mass
    ------------   -----------------  -----------------  -----------------  -----------------
         O           -0.423586036816    -1.213168514260     0.000002073983    15.994914619570
         O            1.709163963184     1.657694485740     0.000014073983    15.994914619570
         N            2.210186963184    -0.590629514260    -0.000014926017    14.003074004430
         C           -2.318343036816     0.014832485740     0.000005073983    12.000000000000
         C           -0.073350036816     0.113401485740    -0.000011926017    12.000000000000
         C           -1.197437036816     0.897302485740    -0.000008926017    12.000000000000
         C           -1.772707736816    -1.250496314260     0.000008973983    12.000000000000
         C            1.358321963184     0.472661485740    -0.000000926017    12.000000000000
         C           -3.768171036816     0.385574485740    -0.000000926017    12.000000000000
         C            3.649104963184    -0.418317514260     0.000004073983    12.000000000000
         H           -1.199366036816     1.979445485740    -0.000018926017     1.007825032230
         H           -2.233006036816    -2.238398514260     0.000027073983     1.007825032230
         H           -4.022487036816     0.978756485740    -0.883262926017     1.007825032230
         H           -4.398909036816    -0.507587514260     0.000010073983     1.007825032230
         H           -4.022490036816     0.978780485740     0.883244073983     1.007825032230
         H            1.811574963184    -1.520424514260    -0.000018926017     1.007825032230
         H            4.098060963184    -0.866261514260    -0.891255926017     1.007825032230
         H            4.098038963184    -0.866237514260     0.891288073983     1.007825032230
         H            3.843293963184     0.653915485740    -0.000006926017     1.007825032230

  Basis Set: AUG-CC-PVTZ
    Blend: AUG-CC-PVTZ
  Basis Set: (AUG-CC-PVTZ AUX)
    Blend: AUG-CC-PVTZ-JKFIT
	 Reference Energy          =    -474.6541116692133073 [Eh]
	 Singles Energy            =      -0.0000000000000000 [Eh]
	 Same-Spin Energy          =      -0.4909052928871739 [Eh]
	 Opposite-Spin Energy      =      -1.5261311343043271 [Eh]
	 Correlation Energy        =      -2.0170364271915009 [Eh]
	 Total Energy              =    -476.6711480964048064 [Eh]

	 ================> DF-SCS-MP2 Energies <==================
	-----------------------------------------------------------
	 SCS Same-Spin Scale       =       0.3333333333333333 [-]
	 SCS Opposite-Spin Scale   =       1.2000000000000000 [-]
	 SCS Same-Spin Energy      =      -0.1636350976290580 [Eh]
	 SCS Opposite-Spin Energy  =      -1.8313573611651925 [Eh]
	 SCS Correlation Energy    =      -1.9949924587942505 [Eh]
	 SCS Total Energy          =    -476.6491041280075365 [Eh]
	-----------------------------------------------------------

  Dipole Moment: [D]
     X:    -1.2746      Y:    -3.1587      Z:    -0.0000     Total:     3.4061

*** Psi4 exiting successfully. Buy a developer a beer!
