                               Psi4 1.4a3.dev225

  ==> Input File <==

--------------------------------------------------------------------------
#psi4
#
memory 32 gb

molecule  {
0 1
  O       -0.4083860    -1.2037120     0.0000020
  O        1.7243640     1.6671510     0.0000140
  N        2.2253870    -0.5811730    -0.0000150
  C       -2.3031430     0.0242890     0.0000050
  C       -0.0581500     0.1228580    -0.0000120
  C       -1.1822370     0.9067590    -0.0000090
  C       -1.7775000    -1.2415930     0.0000090
  C        1.3735220     0.4821180    -0.0000010
  C       -3.7529710     0.3950310    -0.0000010
  C        3.6643050    -0.4088610     0.0000040
  H       -1.1841660     1.9889020    -0.0000190
  H       -2.2178060    -2.2289420     0.0000270
  H       -4.0072870     0.9882130    -0.8832630
  H       -4.3837090    -0.4981310     0.0000100
  H       -4.0072900     0.9882370     0.8832440
  H        1.8267750    -1.5109680    -0.0000190
  H        4.1132610    -0.8568050    -0.8912560
  H        4.1002858    -0.8908380     0.8798791
  H        3.8584940     0.6633720    -0.0000070
units angstrom
no_reorient  #important for SAPT in psi4, default
symmetry c1  #important for SAPT in psi4, default
}

set PROPERTIES_ORIGIN ["COM"]
properties('MP2/aug-cc-pvtz', properties = ['dipole'])
--------------------------------------------------------------------------

    Molecular point group: c1
  Charge       = 0
  Multiplicity = 1
  Basis Set: AUG-CC-PVTZ
    Blend: AUG-CC-PVTZ
  Basis Set: (AUG-CC-PVTZ AUX)
    Blend: AUG-CC-PVTZ-JKFIT

    Orbital Energies [Eh]
    ---------------------

    Doubly Occupied:

       1A    -20.636726     2A    -20.514091     3A    -15.586931
       4A    -11.358276     5A    -11.300862     6A    -11.298926
       7A    -11.258294     8A    -11.250134     9A    -11.246384
      10A    -11.238712    11A     -1.467942    12A     -1.368942
      13A     -1.229605    14A     -1.113060    15A     -1.040997
      16A     -0.973478    17A     -0.940839    18A     -0.839651
      19A     -0.796550    20A     -0.773174    21A     -0.736987
      22A     -0.668240    23A     -0.655990    24A     -0.635449
      25A     -0.616592    26A     -0.596424    27A     -0.591547
      28A     -0.580079    29A     -0.578686    30A     -0.551688
      31A     -0.545426    32A     -0.533386    33A     -0.521863
      34A     -0.431828    35A     -0.398791    36A     -0.388528
      37A     -0.323948

  @DF-RHF Final Energy:  -474.65393045173511

   => Energetics <=

    Nuclear Repulsion Energy =            509.6645507277564207
    One-Electron Energy =               -1657.4589055640726656
    Two-Electron Energy =                 673.1404243845810242
    Total Energy =                       -474.6539304517351638
  Basis Set: (AUG-CC-PVTZ AUX)
    Blend: AUG-CC-PVTZ-RI
    Molecular point group: c1

    Geometry (in Angstrom), charge = 0, multiplicity = 1:

       Center              X                  Y                   Z               Mass
    ------------   -----------------  -----------------  -----------------  -----------------
         O           -0.421766993925    -1.212873958553     0.000084748367    15.994914619570
         O            1.710983006075     1.657989041447     0.000096748367    15.994914619570
         N            2.212006006075    -0.590334958553     0.000067748367    14.003074004430
         C           -2.316523993925     0.015127041447     0.000087748367    12.000000000000
         C           -0.071530993925     0.113696041447     0.000070748367    12.000000000000
         C           -1.195617993925     0.897597041447     0.000073748367    12.000000000000
         C           -1.790880993925    -1.250754958553     0.000091748367    12.000000000000
         C            1.360141006075     0.472956041447     0.000081748367    12.000000000000
         C           -3.766351993925     0.385869041447     0.000081748367    12.000000000000
         C            3.650924006075    -0.418022958553     0.000086748367    12.000000000000
         H           -1.197546993925     1.979740041447     0.000063748367     1.007825032230
         H           -2.231186993925    -2.238103958553     0.000109748367     1.007825032230
         H           -4.020667993925     0.979051041447    -0.883180251633     1.007825032230
         H           -4.397089993925    -0.507292958553     0.000092748367     1.007825032230
         H           -4.020670993925     0.979075041447     0.883326748367     1.007825032230
         H            1.813394006075    -1.520129958553     0.000063748367     1.007825032230
         H            4.099880006075    -0.865966958553    -0.891173251633     1.007825032230
         H            4.086904806075    -0.899999958553     0.879961848367     1.007825032230
         H            3.845113006075     0.654210041447     0.000075748367     1.007825032230

  Basis Set: AUG-CC-PVTZ
    Blend: AUG-CC-PVTZ
  Basis Set: (AUG-CC-PVTZ AUX)
    Blend: AUG-CC-PVTZ-JKFIT
	 Reference Energy          =    -474.6539304517351070 [Eh]
	 Singles Energy            =      -0.0000000000000000 [Eh]
	 Same-Spin Energy          =      -0.4908371776512856 [Eh]
	 Opposite-Spin Energy      =      -1.5264831331726101 [Eh]
	 Correlation Energy        =      -2.0173203108238957 [Eh]
	 Total Energy              =    -476.6712507625589978 [Eh]

	 ================> DF-SCS-MP2 Energies <==================
	-----------------------------------------------------------
	 SCS Same-Spin Scale       =       0.3333333333333333 [-]
	 SCS Opposite-Spin Scale   =       1.2000000000000000 [-]
	 SCS Same-Spin Energy      =      -0.1636123925504285 [Eh]
	 SCS Opposite-Spin Energy  =      -1.8317797598071319 [Eh]
	 SCS Correlation Energy    =      -1.9953921523575604 [Eh]
	 SCS Total Energy          =    -476.6493226040926743 [Eh]
	-----------------------------------------------------------

  Dipole Moment: [D]
     X:    -1.2898      Y:    -3.1638      Z:    -0.0063     Total:     3.4166

*** Psi4 exiting successfully. Buy a developer a beer!
