                               Psi4 1.4a3.dev225

  ==> Input File <==

--------------------------------------------------------------------------
#psi4
#
memory 32 gb

molecule  {
0 1
  O       -0.4083860    -1.2037120     0.0000020
  O        1.8463117     1.6239863     0.0000141
  N        2.2253870    -0.5811730    -0.0000150
  C       -2.3031430     0.0242890     0.0000050
  C       -0.0581500     0.1228580    -0.0000120
  C       -1.1822370     0.9067590    -0.0000090
  C       -1.7775000    -1.2415930     0.0000090
  C        1.3735220     0.4821180    -0.0000010
  C       -3.7529710     0.3950310    -0.0000010
  C        3.6643050    -0.4088610     0.0000040
  H       -1.1841660     1.9889020    -0.0000190
  H       -2.2178060    -2.2289420     0.0000270
  H       -4.0072870     0.9882130    -0.8832630
  H       -4.3837090    -0.4981310     0.0000100
  H       -4.0072900     0.9882370     0.8832440
  H        1.8267750    -1.5109680    -0.0000190
  H        4.1132610    -0.8568050    -0.8912560
  H        4.1132390    -0.8567810     0.8912880
  H        3.8584940     0.6633720    -0.0000070
units angstrom
no_reorient  #important for SAPT in psi4, default
symmetry c1  #important for SAPT in psi4, default
}

set PROPERTIES_ORIGIN ["COM"]
properties('MP2/aug-cc-pvtz', properties = ['dipole'])
--------------------------------------------------------------------------

    Molecular point group: c1
  Charge       = 0
  Multiplicity = 1
  Basis Set: AUG-CC-PVTZ
    Blend: AUG-CC-PVTZ
  Basis Set: (AUG-CC-PVTZ AUX)
    Blend: AUG-CC-PVTZ-JKFIT

    Orbital Energies [Eh]
    ---------------------

    Doubly Occupied:

       1A    -20.640587     2A    -20.511141     3A    -15.580311
       4A    -11.357335     5A    -11.304851     6A    -11.304356
       7A    -11.253329     8A    -11.252212     9A    -11.251178
      10A    -11.240978    11A     -1.471442    12A     -1.369805
      13A     -1.220535    14A     -1.116685    15A     -1.045078
      16A     -0.974099    17A     -0.939546    18A     -0.841115
      19A     -0.800495    20A     -0.768838    21A     -0.739500
      22A     -0.670327    23A     -0.658725    24A     -0.632540
      25A     -0.614090    26A     -0.599415    27A     -0.592072
      28A     -0.582320    29A     -0.581939    30A     -0.553518
      31A     -0.537271    32A     -0.531510    33A     -0.523701
      34A     -0.430462    35A     -0.401265    36A     -0.384426
      37A     -0.327962

  @DF-RHF Final Energy:  -474.65100020629814

   => Energetics <=

    Nuclear Repulsion Energy =            509.5069684751644559
    One-Electron Energy =               -1657.1060243690058087
    Two-Electron Energy =                 672.9480556875431603
    Total Energy =                       -474.6510002062981357
  Basis Set: (AUG-CC-PVTZ AUX)
    Blend: AUG-CC-PVTZ-RI
    Molecular point group: c1

    Geometry (in Angstrom), charge = 0, multiplicity = 1:

       Center              X                  Y                   Z               Mass
    ------------   -----------------  -----------------  -----------------  -----------------
         O           -0.435887162264    -1.208156020324     0.000002053852    15.994914619570
         O            1.818810537736     1.619542279676     0.000014153852    15.994914619570
         N            2.197885837736    -0.585617020324    -0.000014946148    14.003074004430
         C           -2.330644162264     0.019844979676     0.000005053852    12.000000000000
         C           -0.085651162264     0.118413979676    -0.000011946148    12.000000000000
         C           -1.209738162264     0.902314979676    -0.000008946148    12.000000000000
         C           -1.805001162264    -1.246037020324     0.000009053852    12.000000000000
         C            1.346020837736     0.477673979676    -0.000000946148    12.000000000000
         C           -3.780472162264     0.390586979676    -0.000000946148    12.000000000000
         C            3.636803837736    -0.413305020324     0.000004053852    12.000000000000
         H           -1.211667162264     1.984457979676    -0.000018946148     1.007825032230
         H           -2.245307162264    -2.233386020324     0.000027053852     1.007825032230
         H           -4.034788162264     0.983768979676    -0.883262946148     1.007825032230
         H           -4.411210162264    -0.502575020324     0.000010053852     1.007825032230
         H           -4.034791162264     0.983792979676     0.883244053852     1.007825032230
         H            1.799273837736    -1.515412020324    -0.000018946148     1.007825032230
         H            4.085759837736    -0.861249020324    -0.891255946148     1.007825032230
         H            4.085737837736    -0.861225020324     0.891288053852     1.007825032230
         H            3.830992837736     0.658927979676    -0.000006946148     1.007825032230

  Basis Set: AUG-CC-PVTZ
    Blend: AUG-CC-PVTZ
  Basis Set: (AUG-CC-PVTZ AUX)
    Blend: AUG-CC-PVTZ-JKFIT
	 Reference Energy          =    -474.6510002062981357 [Eh]
	 Singles Energy            =      -0.0000000000000000 [Eh]
	 Same-Spin Energy          =      -0.4911097264666592 [Eh]
	 Opposite-Spin Energy      =      -1.5266891125784028 [Eh]
	 Correlation Energy        =      -2.0177988390450619 [Eh]
	 Total Energy              =    -476.6687990453431780 [Eh]

	 ================> DF-SCS-MP2 Energies <==================
	-----------------------------------------------------------
	 SCS Same-Spin Scale       =       0.3333333333333333 [-]
	 SCS Opposite-Spin Scale   =       1.2000000000000000 [-]
	 SCS Same-Spin Energy      =      -0.1637032421555531 [Eh]
	 SCS Opposite-Spin Energy  =      -1.8320269350940832 [Eh]
	 SCS Correlation Energy    =      -1.9957301772496363 [Eh]
	 SCS Total Energy          =    -476.6467303835477765 [Eh]
	-----------------------------------------------------------

  Dipole Moment: [D]
     X:    -1.7708      Y:    -3.0634      Z:    -0.0000     Total:     3.5384

*** Psi4 exiting successfully. Buy a developer a beer!
