                               Psi4 1.4a3.dev225

  ==> Input File <==

--------------------------------------------------------------------------
#psi4
#
memory 32 gb

molecule  {
0 1
  O       -0.4083860    -1.2037120     0.0000020
  O        1.7243640     1.6671510     0.0000140
  N        2.2253870    -0.5811730    -0.0000150
  C       -2.3031430     0.0242890     0.0000050
  C       -0.0581500     0.1228580    -0.0000120
  C       -1.1822370     0.9067590    -0.0000090
  C       -1.7775000    -1.2415930     0.0000090
  C        1.3735220     0.4821180    -0.0000010
  C       -3.7529710     0.3950310    -0.0000010
  C        3.6643050    -0.4088610     0.0000040
  H       -1.1841660     1.9889020    -0.0000190
  H       -2.2178060    -2.2289420     0.0000270
  H       -4.0072870     0.9882130    -0.8832630
  H       -4.3837090    -0.4981310     0.0000100
  H       -4.0072900     0.9882370     0.8832440
  H        1.8070737    -1.5569230    -0.0000192
  H        4.1132610    -0.8568050    -0.8912560
  H        4.1132390    -0.8567810     0.8912880
  H        3.8584940     0.6633720    -0.0000070
units angstrom
no_reorient  #important for SAPT in psi4, default
symmetry c1  #important for SAPT in psi4, default
}

set PROPERTIES_ORIGIN ["COM"]
properties('MP2/aug-cc-pvtz', properties = ['dipole'])
--------------------------------------------------------------------------

    Molecular point group: c1
  Charge       = 0
  Multiplicity = 1
  Basis Set: AUG-CC-PVTZ
    Blend: AUG-CC-PVTZ
  Basis Set: (AUG-CC-PVTZ AUX)
    Blend: AUG-CC-PVTZ-JKFIT

    Orbital Energies [Eh]
    ---------------------

    Doubly Occupied:

       1A    -20.636791     2A    -20.513821     3A    -15.591138
       4A    -11.358133     5A    -11.300812     6A    -11.298876
       7A    -11.257856     8A    -11.250142     9A    -11.246277
      10A    -11.238704    11A     -1.468006    12A     -1.368344
      13A     -1.223985    14A     -1.113050    15A     -1.040820
      16A     -0.973096    17A     -0.940003    18A     -0.836984
      19A     -0.796529    20A     -0.763804    21A     -0.736873
      22A     -0.667209    23A     -0.655996    24A     -0.634581
      25A     -0.616855    26A     -0.596412    27A     -0.590122
      28A     -0.580091    29A     -0.578659    30A     -0.551328
      31A     -0.540249    32A     -0.533802    33A     -0.521632
      34A     -0.431421    35A     -0.398704    36A     -0.388107
      37A     -0.323883

  @DF-RHF Final Energy:  -474.65017712966869

   => Energetics <=

    Nuclear Repulsion Energy =            509.3988862306667897
    One-Electron Energy =               -1656.9719347670420575
    Two-Electron Energy =                 672.9228714067064629
    Total Energy =                       -474.6501771296686911
  Basis Set: (AUG-CC-PVTZ AUX)
    Blend: AUG-CC-PVTZ-RI
    Molecular point group: c1

    Geometry (in Angstrom), charge = 0, multiplicity = 1:

       Center              X                  Y                   Z               Mass
    ------------   -----------------  -----------------  -----------------  -----------------
         O           -0.421718088838    -1.212787730916     0.000002066803    15.994914619570
         O            1.711031911162     1.658075269084     0.000014066803    15.994914619570
         N            2.212054911162    -0.590248730916    -0.000014933197    14.003074004430
         C           -2.316475088838     0.015213269084     0.000005066803    12.000000000000
         C           -0.071482088838     0.113782269084    -0.000011933197    12.000000000000
         C           -1.195569088838     0.897683269084    -0.000008933197    12.000000000000
         C           -1.790832088838    -1.250668730916     0.000009066803    12.000000000000
         C            1.360189911162     0.473042269084    -0.000000933197    12.000000000000
         C           -3.766303088838     0.385955269084    -0.000000933197    12.000000000000
         C            3.650972911162    -0.417936730916     0.000004066803    12.000000000000
         H           -1.197498088838     1.979826269084    -0.000018933197     1.007825032230
         H           -2.231138088838    -2.238017730916     0.000027066803     1.007825032230
         H           -4.020619088838     0.979137269084    -0.883262933197     1.007825032230
         H           -4.397041088838    -0.507206730916     0.000010066803     1.007825032230
         H           -4.020622088838     0.979161269084     0.883244066803     1.007825032230
         H            1.793741611162    -1.565998730916    -0.000019133197     1.007825032230
         H            4.099928911162    -0.865880730916    -0.891255933197     1.007825032230
         H            4.099906911162    -0.865856730916     0.891288066803     1.007825032230
         H            3.845161911162     0.654296269084    -0.000006933197     1.007825032230

  Basis Set: AUG-CC-PVTZ
    Blend: AUG-CC-PVTZ
  Basis Set: (AUG-CC-PVTZ AUX)
    Blend: AUG-CC-PVTZ-JKFIT
	 Reference Energy          =    -474.6501771296686911 [Eh]
	 Singles Energy            =      -0.0000000000000000 [Eh]
	 Same-Spin Energy          =      -0.4912664450678992 [Eh]
	 Opposite-Spin Energy      =      -1.5274716021890629 [Eh]
	 Correlation Energy        =      -2.0187380472569618 [Eh]
	 Total Energy              =    -476.6689151769256796 [Eh]

	 ================> DF-SCS-MP2 Energies <==================
	-----------------------------------------------------------
	 SCS Same-Spin Scale       =       0.3333333333333333 [-]
	 SCS Opposite-Spin Scale   =       1.2000000000000000 [-]
	 SCS Same-Spin Energy      =      -0.1637554816892997 [Eh]
	 SCS Opposite-Spin Energy  =      -1.8329659226268753 [Eh]
	 SCS Correlation Energy    =      -1.9967214043161750 [Eh]
	 SCS Total Energy          =    -476.6468985339848814 [Eh]
	-----------------------------------------------------------

  Dipole Moment: [D]
     X:    -1.3013      Y:    -3.1927      Z:    -0.0000     Total:     3.4477

*** Psi4 exiting successfully. Buy a developer a beer!
