                               Psi4 1.4a3.dev225

  ==> Input File <==

--------------------------------------------------------------------------
#psi4
#
memory 32 gb

molecule  {
0 1
  O        1.7572910     0.3059760     0.0000180
  C       -0.4850880     0.9739040    -0.0000120
  C        0.4405670    -0.0879150     0.0000040
  C       -1.8443600     0.6614770    -0.0000180
  C        0.0124250    -1.4183170     0.0000060
  C        0.0484266     2.4854495    -0.0000077
  C       -2.2900340    -0.6642210    -0.0000140
  C       -1.3585410    -1.6984920    -0.0000020
  C        2.7379480    -0.7266300     0.0000180
  H       -2.5677820     1.4752540    -0.0000300
  H        0.7228010    -2.2381660     0.0000160
  H       -0.8234040     3.0925880    -0.0001030
  H        0.6363730     2.5877470     0.8789620
  H        0.6365320     2.5876940    -0.8788760
  H       -3.3546920    -0.8829470    -0.0000210
  H       -1.6887710    -2.7346470     0.0000000
  H        2.6565620    -1.3539010    -0.8944310
  H        2.6565580    -1.3539040     0.8944650
  H        3.6991380    -0.2132700     0.0000220
units angstrom
no_reorient  #important for SAPT in psi4, default
symmetry c1  #important for SAPT in psi4, default
}

set PROPERTIES_ORIGIN ["COM"]
properties('MP2/aug-cc-pvtz', properties = ['dipole'])
--------------------------------------------------------------------------

    Molecular point group: c1
  Charge       = 0
  Multiplicity = 1
  Basis Set: AUG-CC-PVTZ
    Blend: AUG-CC-PVTZ
  Basis Set: (AUG-CC-PVTZ AUX)
    Blend: AUG-CC-PVTZ-JKFIT

    Orbital Energies [Eh]
    ---------------------

    Doubly Occupied:

       1A    -20.583354     2A    -11.294772     3A    -11.283906
       4A    -11.237071     5A    -11.234327     6A    -11.231774
       7A    -11.229922     8A    -11.224139     9A    -11.215240
      10A     -1.403230    11A     -1.142436    12A     -1.035833
      13A     -1.008498    14A     -0.947730    15A     -0.923880
      16A     -0.811741    17A     -0.797320    18A     -0.708115
      19A     -0.665418    20A     -0.653013    21A     -0.642467
      22A     -0.612195    23A     -0.581320    24A     -0.578280
      25A     -0.557130    26A     -0.549678    27A     -0.513732
      28A     -0.513019    29A     -0.500248    30A     -0.464340
      31A     -0.463101    32A     -0.331735    33A     -0.305664

  @DF-RHF Final Energy:  -383.74591732342390

   => Energetics <=

    Nuclear Repulsion Energy =            428.4046616606867133
    One-Electron Energy =               -1369.8119072537947432
    Two-Electron Energy =                 557.6613282696840770
    Total Energy =                       -383.7459173234238961
  Basis Set: (AUG-CC-PVTZ AUX)
    Blend: AUG-CC-PVTZ-RI
    Molecular point group: c1

    Geometry (in Angstrom), charge = 0, multiplicity = 1:

       Center              X                  Y                   Z               Mass
    ------------   -----------------  -----------------  -----------------  -----------------
         O            1.775007473735     0.304574082695     0.000018134839    15.994914619570
         C           -0.467371526265     0.972502082695    -0.000011865161    12.000000000000
         C            0.458283473735    -0.089316917305     0.000004134839    12.000000000000
         C           -1.826643526265     0.660075082695    -0.000017865161    12.000000000000
         C            0.030141473735    -1.419718917305     0.000006134839    12.000000000000
         C            0.066143073735     2.484047582695    -0.000007565161    12.000000000000
         C           -2.272317526265    -0.665622917305    -0.000013865161    12.000000000000
         C           -1.340824526265    -1.699893917305    -0.000001865161    12.000000000000
         C            2.755664473735    -0.728031917305     0.000018134839    12.000000000000
         H           -2.550065526265     1.473852082695    -0.000029865161     1.007825032230
         H            0.740517473735    -2.239567917305     0.000016134839     1.007825032230
         H           -0.805687526265     3.091186082695    -0.000102865161     1.007825032230
         H            0.654089473735     2.586345082695     0.878962134839     1.007825032230
         H            0.654248473735     2.586292082695    -0.878875865161     1.007825032230
         H           -3.336975526265    -0.884348917305    -0.000020865161     1.007825032230
         H           -1.671054526265    -2.736048917305     0.000000134839     1.007825032230
         H            2.674278473735    -1.355302917305    -0.894430865161     1.007825032230
         H            2.674274473735    -1.355305917305     0.894465134839     1.007825032230
         H            3.716854473735    -0.214671917305     0.000022134839     1.007825032230

  Basis Set: AUG-CC-PVTZ
    Blend: AUG-CC-PVTZ
  Basis Set: (AUG-CC-PVTZ AUX)
    Blend: AUG-CC-PVTZ-JKFIT
	 Reference Energy          =    -383.7459173234238961 [Eh]
	 Singles Energy            =      -0.0000000000000000 [Eh]
	 Same-Spin Energy          =      -0.4103438430050902 [Eh]
	 Opposite-Spin Energy      =      -1.3180131953476040 [Eh]
	 Correlation Energy        =      -1.7283570383526943 [Eh]
	 Total Energy              =    -385.4742743617765655 [Eh]

	 ================> DF-SCS-MP2 Energies <==================
	-----------------------------------------------------------
	 SCS Same-Spin Scale       =       0.3333333333333333 [-]
	 SCS Opposite-Spin Scale   =       1.2000000000000000 [-]
	 SCS Same-Spin Energy      =      -0.1367812810016967 [Eh]
	 SCS Opposite-Spin Energy  =      -1.5816158344171247 [Eh]
	 SCS Correlation Energy    =      -1.7183971154188213 [Eh]
	 SCS Total Energy          =    -385.4643144388427345 [Eh]
	-----------------------------------------------------------

  Dipole Moment: [D]
     X:     0.9608      Y:    -0.7376      Z:     0.0000     Total:     1.2113

*** Psi4 exiting successfully. Buy a developer a beer!
