                               Psi4 1.4a3.dev225

  ==> Input File <==

--------------------------------------------------------------------------
#psi4
#
memory 32 gb

molecule  {
0 1
  O        1.7572910     0.3059760     0.0000180
  C       -0.4850880     0.9739040    -0.0000120
  C        0.4405670    -0.0879150     0.0000040
  C       -2.0392775     0.6166755    -0.0000189
  C        0.0124250    -1.4183170     0.0000060
  C        0.0151430     2.3911510    -0.0000080
  C       -2.2900340    -0.6642210    -0.0000140
  C       -1.3585410    -1.6984920    -0.0000020
  C        2.7379480    -0.7266300     0.0000180
  H       -2.5677820     1.4752540    -0.0000300
  H        0.7228010    -2.2381660     0.0000160
  H       -0.8234040     3.0925880    -0.0001030
  H        0.6363730     2.5877470     0.8789620
  H        0.6365320     2.5876940    -0.8788760
  H       -3.3546920    -0.8829470    -0.0000210
  H       -1.6887710    -2.7346470     0.0000000
  H        2.6565620    -1.3539010    -0.8944310
  H        2.6565580    -1.3539040     0.8944650
  H        3.6991380    -0.2132700     0.0000220
units angstrom
no_reorient  #important for SAPT in psi4, default
symmetry c1  #important for SAPT in psi4, default
}

set PROPERTIES_ORIGIN ["COM"]
properties('MP2/aug-cc-pvtz', properties = ['dipole'])
--------------------------------------------------------------------------

    Molecular point group: c1
  Charge       = 0
  Multiplicity = 1
  Basis Set: AUG-CC-PVTZ
    Blend: AUG-CC-PVTZ
  Basis Set: (AUG-CC-PVTZ AUX)
    Blend: AUG-CC-PVTZ-JKFIT

    Orbital Energies [Eh]
    ---------------------

    Doubly Occupied:

       1A    -20.580204     2A    -11.289387     3A    -11.283511
       4A    -11.245957     5A    -11.237542     6A    -11.235583
       7A    -11.234385     8A    -11.219099     9A    -11.216211
      10A     -1.400911    11A     -1.138702    12A     -1.037268
      13A     -1.021501    14A     -0.950400    15A     -0.914002
      16A     -0.820738    17A     -0.787033    18A     -0.713443
      19A     -0.668566    20A     -0.651776    21A     -0.643571
      22A     -0.631633    23A     -0.581570    24A     -0.564620
      25A     -0.560083    26A     -0.548684    27A     -0.522158
      28A     -0.507506    29A     -0.485883    30A     -0.466479
      31A     -0.454022    32A     -0.336745    33A     -0.294653

  @DF-RHF Final Energy:  -383.71011213593829

   => Energetics <=

    Nuclear Repulsion Energy =            427.7396879897791564
    One-Electron Energy =               -1368.4119469980457779
    Two-Electron Energy =                 556.9621468723282760
    Total Energy =                       -383.7101121359382887
  Basis Set: (AUG-CC-PVTZ AUX)
    Blend: AUG-CC-PVTZ-RI
    Molecular point group: c1

    Geometry (in Angstrom), charge = 0, multiplicity = 1:

       Center              X                  Y                   Z               Mass
    ------------   -----------------  -----------------  -----------------  -----------------
         O            1.797440030483     0.318247849577     0.000018252801    15.994914619570
         C           -0.444938969517     0.986175849577    -0.000011747199    12.000000000000
         C            0.480716030483    -0.075643150423     0.000004252801    12.000000000000
         C           -1.999128469517     0.628947349577    -0.000018647199    12.000000000000
         C            0.052574030483    -1.406045150423     0.000006252801    12.000000000000
         C            0.055292030483     2.403422849577    -0.000007747199    12.000000000000
         C           -2.249884969517    -0.651949150423    -0.000013747199    12.000000000000
         C           -1.318391969517    -1.686220150423    -0.000001747199    12.000000000000
         C            2.778097030483    -0.714358150423     0.000018252801    12.000000000000
         H           -2.527632969517     1.487525849577    -0.000029747199     1.007825032230
         H            0.762950030483    -2.225894150423     0.000016252801     1.007825032230
         H           -0.783254969517     3.104859849577    -0.000102747199     1.007825032230
         H            0.676522030483     2.600018849577     0.878962252801     1.007825032230
         H            0.676681030483     2.599965849577    -0.878875747199     1.007825032230
         H           -3.314542969517    -0.870675150423    -0.000020747199     1.007825032230
         H           -1.648621969517    -2.722375150423     0.000000252801     1.007825032230
         H            2.696711030483    -1.341629150423    -0.894430747199     1.007825032230
         H            2.696707030483    -1.341632150423     0.894465252801     1.007825032230
         H            3.739287030483    -0.200998150423     0.000022252801     1.007825032230

  Basis Set: AUG-CC-PVTZ
    Blend: AUG-CC-PVTZ
  Basis Set: (AUG-CC-PVTZ AUX)
    Blend: AUG-CC-PVTZ-JKFIT
	 Reference Energy          =    -383.7101121359382887 [Eh]
	 Singles Energy            =      -0.0000000000000000 [Eh]
	 Same-Spin Energy          =      -0.4112255031217741 [Eh]
	 Opposite-Spin Energy      =      -1.3209180281761972 [Eh]
	 Correlation Energy        =      -1.7321435312979714 [Eh]
	 Total Energy              =    -385.4422556672362816 [Eh]

	 ================> DF-SCS-MP2 Energies <==================
	-----------------------------------------------------------
	 SCS Same-Spin Scale       =       0.3333333333333333 [-]
	 SCS Opposite-Spin Scale   =       1.2000000000000000 [-]
	 SCS Same-Spin Energy      =      -0.1370751677072580 [Eh]
	 SCS Opposite-Spin Energy  =      -1.5851016338114365 [Eh]
	 SCS Correlation Energy    =      -1.7221768015186947 [Eh]
	 SCS Total Energy          =    -385.4322889374569741 [Eh]
	-----------------------------------------------------------

  Dipole Moment: [D]
     X:     0.9089      Y:    -0.7579      Z:     0.0000     Total:     1.1834

*** Psi4 exiting successfully. Buy a developer a beer!
