                               Psi4 1.4a3.dev225

  ==> Input File <==

--------------------------------------------------------------------------
#psi4
#
memory 32 gb

molecule  {
0 1
  O        1.7572910     0.3059760     0.0000180
  C       -0.4850880     0.9739040    -0.0000120
  C        0.4405670    -0.0879150     0.0000040
  C       -1.6494425     0.7062785    -0.0000171
  C        0.0124250    -1.4183170     0.0000060
  C        0.0151430     2.3911510    -0.0000080
  C       -2.2900340    -0.6642210    -0.0000140
  C       -1.3585410    -1.6984920    -0.0000020
  C        2.7379480    -0.7266300     0.0000180
  H       -2.5677820     1.4752540    -0.0000300
  H        0.7228010    -2.2381660     0.0000160
  H       -0.8234040     3.0925880    -0.0001030
  H        0.6363730     2.5877470     0.8789620
  H        0.6365320     2.5876940    -0.8788760
  H       -3.3546920    -0.8829470    -0.0000210
  H       -1.6887710    -2.7346470     0.0000000
  H        2.6565620    -1.3539010    -0.8944310
  H        2.6565580    -1.3539040     0.8944650
  H        3.6991380    -0.2132700     0.0000220
units angstrom
no_reorient  #important for SAPT in psi4, default
symmetry c1  #important for SAPT in psi4, default
}

set PROPERTIES_ORIGIN ["COM"]
properties('MP2/aug-cc-pvtz', properties = ['dipole'])
--------------------------------------------------------------------------

    Molecular point group: c1
  Charge       = 0
  Multiplicity = 1
  Basis Set: AUG-CC-PVTZ
    Blend: AUG-CC-PVTZ
  Basis Set: (AUG-CC-PVTZ AUX)
    Blend: AUG-CC-PVTZ-JKFIT

    Orbital Energies [Eh]
    ---------------------

    Doubly Occupied:

       1A    -20.588293     2A    -11.301341     3A    -11.285242
       4A    -11.233828     5A    -11.230966     6A    -11.225324
       7A    -11.225016     8A    -11.215818     9A    -11.209558
      10A     -1.407383    11A     -1.167011    12A     -1.059465
      13A     -0.999129    14A     -0.944141    15A     -0.933088
      16A     -0.816909    17A     -0.793391    18A     -0.709357
      19A     -0.668608    20A     -0.655794    21A     -0.647243
      22A     -0.595898    23A     -0.583209    24A     -0.575814
      25A     -0.573626    26A     -0.537625    27A     -0.519798
      28A     -0.511360    29A     -0.506622    30A     -0.467402
      31A     -0.438726    32A     -0.359709    33A     -0.298039

  @DF-RHF Final Energy:  -383.69165492258122

   => Energetics <=

    Nuclear Repulsion Energy =            433.0838555980966476
    One-Electron Energy =               -1378.9815549452919186
    Two-Electron Energy =                 562.2060444246139923
    Total Energy =                       -383.6916549225812787
  Basis Set: (AUG-CC-PVTZ AUX)
    Blend: AUG-CC-PVTZ-RI
    Molecular point group: c1

    Geometry (in Angstrom), charge = 0, multiplicity = 1:

       Center              X                  Y                   Z               Mass
    ------------   -----------------  -----------------  -----------------  -----------------
         O            1.759118586108     0.309439722087     0.000018075858    15.994914619570
         C           -0.483260413892     0.977367722087    -0.000011924142    12.000000000000
         C            0.442394586108    -0.084451277913     0.000004075858    12.000000000000
         C           -1.647614913892     0.709742222087    -0.000017024142    12.000000000000
         C            0.014252586108    -1.414853277913     0.000006075858    12.000000000000
         C            0.016970586108     2.394614722087    -0.000007924142    12.000000000000
         C           -2.288206413892    -0.660757277913    -0.000013924142    12.000000000000
         C           -1.356713413892    -1.695028277913    -0.000001924142    12.000000000000
         C            2.739775586108    -0.723166277913     0.000018075858    12.000000000000
         H           -2.565954413892     1.478717722087    -0.000029924142     1.007825032230
         H            0.724628586108    -2.234702277913     0.000016075858     1.007825032230
         H           -0.821576413892     3.096051722087    -0.000102924142     1.007825032230
         H            0.638200586108     2.591210722087     0.878962075858     1.007825032230
         H            0.638359586108     2.591157722087    -0.878875924142     1.007825032230
         H           -3.352864413892    -0.879483277913    -0.000020924142     1.007825032230
         H           -1.686943413892    -2.731183277913     0.000000075858     1.007825032230
         H            2.658389586108    -1.350437277913    -0.894430924142     1.007825032230
         H            2.658385586108    -1.350440277913     0.894465075858     1.007825032230
         H            3.700965586108    -0.209806277913     0.000022075858     1.007825032230

  Basis Set: AUG-CC-PVTZ
    Blend: AUG-CC-PVTZ
  Basis Set: (AUG-CC-PVTZ AUX)
    Blend: AUG-CC-PVTZ-JKFIT
	 Reference Energy          =    -383.6916549225812219 [Eh]
	 Singles Energy            =      -0.0000000000000000 [Eh]
	 Same-Spin Energy          =      -0.4098248180981764 [Eh]
	 Opposite-Spin Energy      =      -1.3194188181173643 [Eh]
	 Correlation Energy        =      -1.7292436362155408 [Eh]
	 Total Energy              =    -385.4208985587967504 [Eh]

	 ================> DF-SCS-MP2 Energies <==================
	-----------------------------------------------------------
	 SCS Same-Spin Scale       =       0.3333333333333333 [-]
	 SCS Opposite-Spin Scale   =       1.2000000000000000 [-]
	 SCS Same-Spin Energy      =      -0.1366082726993921 [Eh]
	 SCS Opposite-Spin Energy  =      -1.5833025817408370 [Eh]
	 SCS Correlation Energy    =      -1.7199108544402293 [Eh]
	 SCS Total Energy          =    -385.4115657770214511 [Eh]
	-----------------------------------------------------------

  Dipole Moment: [D]
     X:     1.0698      Y:    -0.7811      Z:     0.0000     Total:     1.3246

*** Psi4 exiting successfully. Buy a developer a beer!
