                               Psi4 1.4a3.dev225

  ==> Input File <==

--------------------------------------------------------------------------
#psi4
#
memory 32 gb

molecule  {
0 1
  O        1.7572910     0.3059760     0.0000180
  C       -0.4850880     0.9739040    -0.0000120
  C        0.3926644    -0.1022448     0.0000035
  C       -1.8443600     0.6614770    -0.0000180
  C        0.0124250    -1.4183170     0.0000060
  C        0.0151430     2.3911510    -0.0000080
  C       -2.2900340    -0.6642210    -0.0000140
  C       -1.3585410    -1.6984920    -0.0000020
  C        2.7379480    -0.7266300     0.0000180
  H       -2.5677820     1.4752540    -0.0000300
  H        0.7228010    -2.2381660     0.0000160
  H       -0.8234040     3.0925880    -0.0001030
  H        0.6363730     2.5877470     0.8789620
  H        0.6365320     2.5876940    -0.8788760
  H       -3.3546920    -0.8829470    -0.0000210
  H       -1.6887710    -2.7346470     0.0000000
  H        2.6565620    -1.3539010    -0.8944310
  H        2.6565580    -1.3539040     0.8944650
  H        3.6991380    -0.2132700     0.0000220
units angstrom
no_reorient  #important for SAPT in psi4, default
symmetry c1  #important for SAPT in psi4, default
}

set PROPERTIES_ORIGIN ["COM"]
properties('MP2/aug-cc-pvtz', properties = ['dipole'])
--------------------------------------------------------------------------

    Molecular point group: c1
  Charge       = 0
  Multiplicity = 1
  Basis Set: AUG-CC-PVTZ
    Blend: AUG-CC-PVTZ
  Basis Set: (AUG-CC-PVTZ AUX)
    Blend: AUG-CC-PVTZ-JKFIT

    Orbital Energies [Eh]
    ---------------------

    Doubly Occupied:

       1A    -20.575349     2A    -11.291542     3A    -11.278990
       4A    -11.236454     5A    -11.235090     6A    -11.233405
       7A    -11.230475     8A    -11.227107     9A    -11.217796
      10A     -1.381803    11A     -1.152367    12A     -1.047533
      13A     -1.012124    14A     -0.942054    15A     -0.922330
      16A     -0.816974    17A     -0.797625    18A     -0.704911
      19A     -0.663625    20A     -0.644202    21A     -0.641621
      22A     -0.616101    23A     -0.579691    24A     -0.569399
      25A     -0.564252    26A     -0.540852    27A     -0.518329
      28A     -0.506298    29A     -0.495361    30A     -0.478226
      31A     -0.461708    32A     -0.334292    33A     -0.312012

  @DF-RHF Final Energy:  -383.74958438469469

   => Energetics <=

    Nuclear Repulsion Energy =            430.1596677574912064
    One-Electron Energy =               -1373.3587091790036538
    Two-Electron Energy =                 559.4494570368177619
    Total Energy =                       -383.7495843846946855
  Basis Set: (AUG-CC-PVTZ AUX)
    Blend: AUG-CC-PVTZ-RI
    Molecular point group: c1

    Geometry (in Angstrom), charge = 0, multiplicity = 1:

       Center              X                  Y                   Z               Mass
    ------------   -----------------  -----------------  -----------------  -----------------
         O            1.782988215452     0.315252429575     0.000018213480    15.994914619570
         C           -0.459390784548     0.983180429575    -0.000011786520    12.000000000000
         C            0.418361615452    -0.092968370425     0.000003713480    12.000000000000
         C           -1.818662784548     0.670753429575    -0.000017786520    12.000000000000
         C            0.038122215452    -1.409040570425     0.000006213480    12.000000000000
         C            0.040840215452     2.400427429575    -0.000007786520    12.000000000000
         C           -2.264336784548    -0.654944570425    -0.000013786520    12.000000000000
         C           -1.332843784548    -1.689215570425    -0.000001786520    12.000000000000
         C            2.763645215452    -0.717353570425     0.000018213480    12.000000000000
         H           -2.542084784548     1.484530429575    -0.000029786520     1.007825032230
         H            0.748498215452    -2.228889570425     0.000016213480     1.007825032230
         H           -0.797706784548     3.101864429575    -0.000102786520     1.007825032230
         H            0.662070215452     2.597023429575     0.878962213480     1.007825032230
         H            0.662229215452     2.596970429575    -0.878875786520     1.007825032230
         H           -3.328994784548    -0.873670570425    -0.000020786520     1.007825032230
         H           -1.663073784548    -2.725370570425     0.000000213480     1.007825032230
         H            2.682259215452    -1.344624570425    -0.894430786520     1.007825032230
         H            2.682255215452    -1.344627570425     0.894465213480     1.007825032230
         H            3.724835215452    -0.203993570425     0.000022213480     1.007825032230

  Basis Set: AUG-CC-PVTZ
    Blend: AUG-CC-PVTZ
  Basis Set: (AUG-CC-PVTZ AUX)
    Blend: AUG-CC-PVTZ-JKFIT
	 Reference Energy          =    -383.7495843846946855 [Eh]
	 Singles Energy            =      -0.0000000000000000 [Eh]
	 Same-Spin Energy          =      -0.4108921727841031 [Eh]
	 Opposite-Spin Energy      =      -1.3186815682956521 [Eh]
	 Correlation Energy        =      -1.7295737410797551 [Eh]
	 Total Energy              =    -385.4791581257744610 [Eh]

	 ================> DF-SCS-MP2 Energies <==================
	-----------------------------------------------------------
	 SCS Same-Spin Scale       =       0.3333333333333333 [-]
	 SCS Opposite-Spin Scale   =       1.2000000000000000 [-]
	 SCS Same-Spin Energy      =      -0.1369640575947010 [Eh]
	 SCS Opposite-Spin Energy  =      -1.5824178819547825 [Eh]
	 SCS Correlation Energy    =      -1.7193819395494836 [Eh]
	 SCS Total Energy          =    -385.4689663242441497 [Eh]
	-----------------------------------------------------------

  Dipole Moment: [D]
     X:     0.6422      Y:    -0.7604      Z:     0.0000     Total:     0.9953

*** Psi4 exiting successfully. Buy a developer a beer!
