                               Psi4 1.4a3.dev225

  ==> Input File <==

--------------------------------------------------------------------------
#psi4
#
memory 32 gb

molecule  {
0 1
  O        1.7572910     0.3059760     0.0000180
  C       -0.4850880     0.9739040    -0.0000120
  C        0.4405670    -0.0879150     0.0000040
  C       -1.8443600     0.6614770    -0.0000180
  C        0.0286294    -1.5146332     0.0000065
  C        0.0151430     2.3911510    -0.0000080
  C       -2.2900340    -0.6642210    -0.0000140
  C       -1.3585410    -1.6984920    -0.0000020
  C        2.7379480    -0.7266300     0.0000180
  H       -2.5677820     1.4752540    -0.0000300
  H        0.7228010    -2.2381660     0.0000160
  H       -0.8234040     3.0925880    -0.0001030
  H        0.6363730     2.5877470     0.8789620
  H        0.6365320     2.5876940    -0.8788760
  H       -3.3546920    -0.8829470    -0.0000210
  H       -1.6887710    -2.7346470     0.0000000
  H        2.6565620    -1.3539010    -0.8944310
  H        2.6565580    -1.3539040     0.8944650
  H        3.6991380    -0.2132700     0.0000220
units angstrom
no_reorient  #important for SAPT in psi4, default
symmetry c1  #important for SAPT in psi4, default
}

set PROPERTIES_ORIGIN ["COM"]
properties('MP2/aug-cc-pvtz', properties = ['dipole'])
--------------------------------------------------------------------------

    Molecular point group: c1
  Charge       = 0
  Multiplicity = 1
  Basis Set: AUG-CC-PVTZ
    Blend: AUG-CC-PVTZ
  Basis Set: (AUG-CC-PVTZ AUX)
    Blend: AUG-CC-PVTZ-JKFIT

    Orbital Energies [Eh]
    ---------------------

    Doubly Occupied:

       1A    -20.585407     2A    -11.305135     3A    -11.285624
       4A    -11.236665     5A    -11.235112     6A    -11.233194
       7A    -11.232152     8A    -11.223733     9A    -11.216119
      10A     -1.404478    11A     -1.139319    12A     -1.045683
      13A     -1.003929    14A     -0.950792    15A     -0.917153
      16A     -0.820367    17A     -0.792814    18A     -0.704951
      19A     -0.670681    20A     -0.654985    21A     -0.653500
      22A     -0.614689    23A     -0.583432    24A     -0.567903
      25A     -0.563765    26A     -0.540210    27A     -0.521795
      28A     -0.506162    29A     -0.503608    30A     -0.467827
      31A     -0.463448    32A     -0.331357    33A     -0.299552

  @DF-RHF Final Energy:  -383.73930010054841

   => Energetics <=

    Nuclear Repulsion Energy =            428.4756738713715549
    One-Electron Energy =               -1369.8788688062520578
    Two-Electron Energy =                 557.6638948343320408
    Total Energy =                       -383.7393001005484621
  Basis Set: (AUG-CC-PVTZ AUX)
    Blend: AUG-CC-PVTZ-RI
    Molecular point group: c1

    Geometry (in Angstrom), charge = 0, multiplicity = 1:

       Center              X                  Y                   Z               Mass
    ------------   -----------------  -----------------  -----------------  -----------------
         O            1.776686388180     0.323311832315     0.000018115179    15.994914619570
         C           -0.465692611820     0.991239832315    -0.000011884821    12.000000000000
         C            0.459962388180    -0.070579167685     0.000004115179    12.000000000000
         C           -1.824964611820     0.678812832315    -0.000017884821    12.000000000000
         C            0.048024788180    -1.497297367685     0.000006615179    12.000000000000
         C            0.034538388180     2.408486832315    -0.000007884821    12.000000000000
         C           -2.270638611820    -0.646885167685    -0.000013884821    12.000000000000
         C           -1.339145611820    -1.681156167685    -0.000001884821    12.000000000000
         C            2.757343388180    -0.709294167685     0.000018115179    12.000000000000
         H           -2.548386611820     1.492589832315    -0.000029884821     1.007825032230
         H            0.742196388180    -2.220830167685     0.000016115179     1.007825032230
         H           -0.804008611820     3.109923832315    -0.000102884821     1.007825032230
         H            0.655768388180     2.605082832315     0.878962115179     1.007825032230
         H            0.655927388180     2.605029832315    -0.878875884821     1.007825032230
         H           -3.335296611820    -0.865611167685    -0.000020884821     1.007825032230
         H           -1.669375611820    -2.717311167685     0.000000115179     1.007825032230
         H            2.675957388180    -1.336565167685    -0.894430884821     1.007825032230
         H            2.675953388180    -1.336568167685     0.894465115179     1.007825032230
         H            3.718533388180    -0.195934167685     0.000022115179     1.007825032230

  Basis Set: AUG-CC-PVTZ
    Blend: AUG-CC-PVTZ
  Basis Set: (AUG-CC-PVTZ AUX)
    Blend: AUG-CC-PVTZ-JKFIT
	 Reference Energy          =    -383.7393001005484052 [Eh]
	 Singles Energy            =      -0.0000000000000000 [Eh]
	 Same-Spin Energy          =      -0.4110468165436788 [Eh]
	 Opposite-Spin Energy      =      -1.3193095778466248 [Eh]
	 Correlation Energy        =      -1.7303563943903035 [Eh]
	 Total Energy              =    -385.4696564949387039 [Eh]

	 ================> DF-SCS-MP2 Energies <==================
	-----------------------------------------------------------
	 SCS Same-Spin Scale       =       0.3333333333333333 [-]
	 SCS Opposite-Spin Scale   =       1.2000000000000000 [-]
	 SCS Same-Spin Energy      =      -0.1370156055145596 [Eh]
	 SCS Opposite-Spin Energy  =      -1.5831714934159498 [Eh]
	 SCS Correlation Energy    =      -1.7201870989305093 [Eh]
	 SCS Total Energy          =    -385.4594871994789287 [Eh]
	-----------------------------------------------------------

  Dipole Moment: [D]
     X:     1.0608      Y:    -0.6870      Z:     0.0000     Total:     1.2638

*** Psi4 exiting successfully. Buy a developer a beer!
