                               Psi4 1.4a3.dev225

  ==> Input File <==

--------------------------------------------------------------------------
#psi4
#
memory 32 gb

molecule  {
0 1
  O        1.7572910     0.3059760     0.0000180
  C       -0.4850880     0.9739040    -0.0000120
  C        0.4405670    -0.0879150     0.0000040
  C       -1.8443600     0.6614770    -0.0000180
  C        0.0124250    -1.4183170     0.0000060
  C        0.0151430     2.3911510    -0.0000080
  C       -2.2900340    -0.6642210    -0.0000140
  C       -1.3585410    -1.6984920    -0.0000020
  C        2.7379480    -0.7266300     0.0000180
  H       -2.5677820     1.4752540    -0.0000300
  H        0.7228010    -2.2381660     0.0000160
  H       -0.8234040     3.0925880    -0.0001030
  H        0.6363730     2.5877470     0.8789620
  H        0.6365320     2.5876940    -0.8788760
  H       -3.3546920    -0.8829470    -0.0000210
  H       -1.6887710    -2.7346470     0.0000000
  H        2.6565620    -1.3539010    -0.8944310
  H        2.6565580    -1.3539040     0.8944650
  H        3.5227227    -0.3074913     0.0000213
units angstrom
no_reorient  #important for SAPT in psi4, default
symmetry c1  #important for SAPT in psi4, default
}

set PROPERTIES_ORIGIN ["COM"]
properties('MP2/aug-cc-pvtz', properties = ['dipole'])
--------------------------------------------------------------------------

    Molecular point group: c1
  Charge       = 0
  Multiplicity = 1
  Basis Set: AUG-CC-PVTZ
    Blend: AUG-CC-PVTZ
  Basis Set: (AUG-CC-PVTZ AUX)
    Blend: AUG-CC-PVTZ-JKFIT

    Orbital Energies [Eh]
    ---------------------

    Doubly Occupied:

       1A    -20.582528     2A    -11.294083     3A    -11.260077
       4A    -11.234088     5A    -11.233188     6A    -11.231170
       7A    -11.229476     8A    -11.223827     9A    -11.215657
      10A     -1.403363    11A     -1.145167    12A     -1.045419
      13A     -1.015128    14A     -0.966194    15A     -0.922584
      16A     -0.816922    17A     -0.796147    18A     -0.708771
      19A     -0.677639    20A     -0.652155    21A     -0.645493
      22A     -0.625589    23A     -0.590073    24A     -0.567873
      25A     -0.564779    26A     -0.538475    27A     -0.530418
      28A     -0.508028    29A     -0.496861    30A     -0.475669
      31A     -0.463464    32A     -0.330449    33A     -0.304471

  @DF-RHF Final Energy:  -383.71816993524124

   => Energetics <=

    Nuclear Repulsion Energy =            431.1889235032053875
    One-Electron Energy =               -1375.2237338135273603
    Two-Electron Energy =                 560.3166403750807376
    Total Energy =                       -383.7181699352412352
  Basis Set: (AUG-CC-PVTZ AUX)
    Blend: AUG-CC-PVTZ-RI
    Molecular point group: c1

    Geometry (in Angstrom), charge = 0, multiplicity = 1:

       Center              X                  Y                   Z               Mass
    ------------   -----------------  -----------------  -----------------  -----------------
         O            1.779735777091     0.314621668381     0.000018170109    15.994914619570
         C           -0.462643222909     0.982549668381    -0.000011829891    12.000000000000
         C            0.463011777091    -0.079269331619     0.000004170109    12.000000000000
         C           -1.821915222909     0.670122668381    -0.000017829891    12.000000000000
         C            0.034869777091    -1.409671331619     0.000006170109    12.000000000000
         C            0.037587777091     2.399796668381    -0.000007829891    12.000000000000
         C           -2.267589222909    -0.655575331619    -0.000013829891    12.000000000000
         C           -1.336096222909    -1.689846331619    -0.000001829891    12.000000000000
         C            2.760392777091    -0.717984331619     0.000018170109    12.000000000000
         H           -2.545337222909     1.483899668381    -0.000029829891     1.007825032230
         H            0.745245777091    -2.229520331619     0.000016170109     1.007825032230
         H           -0.800959222909     3.101233668381    -0.000102829891     1.007825032230
         H            0.658817777091     2.596392668381     0.878962170109     1.007825032230
         H            0.658976777091     2.596339668381    -0.878875829891     1.007825032230
         H           -3.332247222909    -0.874301331619    -0.000020829891     1.007825032230
         H           -1.666326222909    -2.726001331619     0.000000170109     1.007825032230
         H            2.679006777091    -1.345255331619    -0.894430829891     1.007825032230
         H            2.679002777091    -1.345258331619     0.894465170109     1.007825032230
         H            3.545167477091    -0.298845631619     0.000021470109     1.007825032230

  Basis Set: AUG-CC-PVTZ
    Blend: AUG-CC-PVTZ
  Basis Set: (AUG-CC-PVTZ AUX)
    Blend: AUG-CC-PVTZ-JKFIT
	 Reference Energy          =    -383.7181699352412352 [Eh]
	 Singles Energy            =      -0.0000000000000000 [Eh]
	 Same-Spin Energy          =      -0.4109329175629547 [Eh]
	 Opposite-Spin Energy      =      -1.3175090509327596 [Eh]
	 Correlation Energy        =      -1.7284419684957144 [Eh]
	 Total Energy              =    -385.4466119037369367 [Eh]

	 ================> DF-SCS-MP2 Energies <==================
	-----------------------------------------------------------
	 SCS Same-Spin Scale       =       0.3333333333333333 [-]
	 SCS Opposite-Spin Scale   =       1.2000000000000000 [-]
	 SCS Same-Spin Energy      =      -0.1369776391876516 [Eh]
	 SCS Opposite-Spin Energy  =      -1.5810108611193114 [Eh]
	 SCS Correlation Energy    =      -1.7179885003069630 [Eh]
	 SCS Total Energy          =    -385.4361584355481796 [Eh]
	-----------------------------------------------------------

  Dipole Moment: [D]
     X:     1.0667      Y:    -0.7467      Z:     0.0000     Total:     1.3021

*** Psi4 exiting successfully. Buy a developer a beer!
