                               Psi4 1.4a3.dev225

  ==> Input File <==

--------------------------------------------------------------------------
#psi4
#
memory 32 gb

molecule  {
0 1
  O        1.7572910     0.3059760     0.0000180
  C       -0.4850880     0.9739040    -0.0000120
  C        0.4405670    -0.0879150     0.0000040
  C       -1.8443600     0.6614770    -0.0000180
  C        0.0124250    -1.4183170     0.0000060
  C        0.0151430     2.3911510    -0.0000080
  C       -2.2900340    -0.6642210    -0.0000140
  C       -1.3585410    -1.6984920    -0.0000020
  C        2.7379480    -0.7266300     0.0000180
  H       -2.5677820     1.4752540    -0.0000300
  H        0.7228010    -2.2381660     0.0000160
  H       -0.8234040     3.0925880    -0.0001030
  H        0.6363730     2.5877470     0.8789620
  H        0.6365320     2.5876940    -0.8788760
  H       -3.3546920    -0.8829470    -0.0000210
  H       -1.6887710    -2.7346470     0.0000000
  H        2.6580478    -1.3424493    -0.8781016
  H        2.6565580    -1.3539040     0.8944650
  H        3.6991380    -0.2132700     0.0000220
units angstrom
no_reorient  #important for SAPT in psi4, default
symmetry c1  #important for SAPT in psi4, default
}

set PROPERTIES_ORIGIN ["COM"]
properties('MP2/aug-cc-pvtz', properties = ['dipole'])
--------------------------------------------------------------------------

    Molecular point group: c1
  Charge       = 0
  Multiplicity = 1
  Basis Set: AUG-CC-PVTZ
    Blend: AUG-CC-PVTZ
  Basis Set: (AUG-CC-PVTZ AUX)
    Blend: AUG-CC-PVTZ-JKFIT

    Orbital Energies [Eh]
    ---------------------

    Doubly Occupied:

       1A    -20.583610     2A    -11.295057     3A    -11.281855
       4A    -11.234761     5A    -11.233864     6A    -11.231789
       7A    -11.230344     8A    -11.224426     9A    -11.215985
      10A     -1.403751    11A     -1.145337    12A     -1.044703
      13A     -1.009342    14A     -0.949675    15A     -0.921331
      16A     -0.812884    17A     -0.797024    18A     -0.709394
      19A     -0.666846    20A     -0.654961    21A     -0.646317
      22A     -0.613527    23A     -0.580953    24A     -0.568725
      25A     -0.563385    26A     -0.538835    27A     -0.522325
      28A     -0.509808    29A     -0.496472    30A     -0.475388
      31A     -0.464530    32A     -0.331128    33A     -0.305154

  @DF-RHF Final Energy:  -383.75310376522731

   => Energetics <=

    Nuclear Repulsion Energy =            430.1899517598701550
    One-Electron Energy =               -1373.3591350486874489
    Two-Electron Energy =                 559.4160795235900423
    Total Energy =                       -383.7531037652272516
  Basis Set: (AUG-CC-PVTZ AUX)
    Blend: AUG-CC-PVTZ-RI
    Molecular point group: c1

    Geometry (in Angstrom), charge = 0, multiplicity = 1:

       Center              X                  Y                   Z               Mass
    ------------   -----------------  -----------------  -----------------  -----------------
         O            1.778267041665     0.313749241630    -0.000116649723    15.994914619570
         C           -0.464111958335     0.981677241630    -0.000146649723    12.000000000000
         C            0.461543041665    -0.080141758370    -0.000130649723    12.000000000000
         C           -1.823383958335     0.669250241630    -0.000152649723    12.000000000000
         C            0.033401041665    -1.410543758370    -0.000128649723    12.000000000000
         C            0.036119041665     2.398924241630    -0.000142649723    12.000000000000
         C           -2.269057958335    -0.656447758370    -0.000148649723    12.000000000000
         C           -1.337564958335    -1.690718758370    -0.000136649723    12.000000000000
         C            2.758924041665    -0.718856758370    -0.000116649723    12.000000000000
         H           -2.546805958335     1.483027241630    -0.000164649723     1.007825032230
         H            0.743777041665    -2.230392758370    -0.000118649723     1.007825032230
         H           -0.802427958335     3.100361241630    -0.000237649723     1.007825032230
         H            0.657349041665     2.595520241630     0.878827350277     1.007825032230
         H            0.657508041665     2.595467241630    -0.879010649723     1.007825032230
         H           -3.333715958335    -0.875173758370    -0.000155649723     1.007825032230
         H           -1.667794958335    -2.726873758370    -0.000134649723     1.007825032230
         H            2.679023841665    -1.334676058370    -0.878236249723     1.007825032230
         H            2.677534041665    -1.346130758370     0.894330350277     1.007825032230
         H            3.720114041665    -0.205496758370    -0.000112649723     1.007825032230

  Basis Set: AUG-CC-PVTZ
    Blend: AUG-CC-PVTZ
  Basis Set: (AUG-CC-PVTZ AUX)
    Blend: AUG-CC-PVTZ-JKFIT
	 Reference Energy          =    -383.7531037652273085 [Eh]
	 Singles Energy            =      -0.0000000000000000 [Eh]
	 Same-Spin Energy          =      -0.4108400337816465 [Eh]
	 Opposite-Spin Energy      =      -1.3180451144192071 [Eh]
	 Correlation Energy        =      -1.7288851482008536 [Eh]
	 Total Energy              =    -385.4819889134281539 [Eh]

	 ================> DF-SCS-MP2 Energies <==================
	-----------------------------------------------------------
	 SCS Same-Spin Scale       =       0.3333333333333333 [-]
	 SCS Opposite-Spin Scale   =       1.2000000000000000 [-]
	 SCS Same-Spin Energy      =      -0.1369466779272155 [Eh]
	 SCS Opposite-Spin Energy  =      -1.5816541373030486 [Eh]
	 SCS Correlation Energy    =      -1.7186008152302641 [Eh]
	 SCS Total Energy          =    -385.4717045804575832 [Eh]
	-----------------------------------------------------------

  Dipole Moment: [D]
     X:     0.9889      Y:    -0.7451      Z:    -0.0091     Total:     1.2382

*** Psi4 exiting successfully. Buy a developer a beer!
