                               Psi4 1.4a3.dev225

  ==> Input File <==

--------------------------------------------------------------------------
#psi4
#
memory 32 gb

molecule  {
0 1
  O        1.7572910     0.3059760     0.0000180
  C       -0.4850880     0.9739040    -0.0000120
  C        0.4066073     0.0518779     0.0000048
  C       -1.8443600     0.6614770    -0.0000180
  C        0.0124250    -1.4183170     0.0000060
  C        0.0151430     2.3911510    -0.0000080
  C       -2.2900340    -0.6642210    -0.0000140
  C       -1.3585410    -1.6984920    -0.0000020
  C        2.7379480    -0.7266300     0.0000180
  H       -2.5677820     1.4752540    -0.0000300
  H        0.7228010    -2.2381660     0.0000160
  H       -0.8234040     3.0925880    -0.0001030
  H        0.6363730     2.5877470     0.8789620
  H        0.6365320     2.5876940    -0.8788760
  H       -3.3546920    -0.8829470    -0.0000210
  H       -1.6887710    -2.7346470     0.0000000
  H        2.6565620    -1.3539010    -0.8944310
  H        2.6565580    -1.3539040     0.8944650
  H        3.6991380    -0.2132700     0.0000220
units angstrom
no_reorient  #important for SAPT in psi4, default
symmetry c1  #important for SAPT in psi4, default
}

set PROPERTIES_ORIGIN ["COM"]
properties('MP2/aug-cc-pvtz', properties = ['dipole'])
--------------------------------------------------------------------------

    Molecular point group: c1
  Charge       = 0
  Multiplicity = 1
  Basis Set: AUG-CC-PVTZ
    Blend: AUG-CC-PVTZ
  Basis Set: (AUG-CC-PVTZ AUX)
    Blend: AUG-CC-PVTZ-JKFIT

    Orbital Energies [Eh]
    ---------------------

    Doubly Occupied:

       1A    -20.576819     2A    -11.292382     3A    -11.286441
       4A    -11.241207     5A    -11.236503     6A    -11.234937
       7A    -11.225567     8A    -11.216374     9A    -11.214271
      10A     -1.397241    11A     -1.152728    12A     -1.055727
      13A     -0.998110    14A     -0.946788    15A     -0.921924
      16A     -0.830728    17A     -0.785607    18A     -0.704392
      19A     -0.670502    20A     -0.651058    21A     -0.648718
      22A     -0.605848    23A     -0.589596    24A     -0.572505
      25A     -0.564087    26A     -0.535203    27A     -0.518249
      28A     -0.508165    29A     -0.506778    30A     -0.463055
      31A     -0.455200    32A     -0.334457    33A     -0.306262

  @DF-RHF Final Energy:  -383.72683009914039

   => Energetics <=

    Nuclear Repulsion Energy =            430.5275763525007164
    One-Electron Energy =               -1374.0139564574512860
    Two-Electron Energy =                 559.7595500058100697
    Total Energy =                       -383.7268300991404431
  Basis Set: (AUG-CC-PVTZ AUX)
    Blend: AUG-CC-PVTZ-RI
    Molecular point group: c1

    Geometry (in Angstrom), charge = 0, multiplicity = 1:

       Center              X                  Y                   Z               Mass
    ------------   -----------------  -----------------  -----------------  -----------------
         O            1.781617604638     0.300101905700     0.000018085688    15.994914619570
         C           -0.460761395362     0.968029905700    -0.000011914312    12.000000000000
         C            0.430933904638     0.046003805700     0.000004885688    12.000000000000
         C           -1.820033395362     0.655602905700    -0.000017914312    12.000000000000
         C            0.036751604638    -1.424191094300     0.000006085688    12.000000000000
         C            0.039469604638     2.385276905700    -0.000007914312    12.000000000000
         C           -2.265707395362    -0.670095094300    -0.000013914312    12.000000000000
         C           -1.334214395362    -1.704366094300    -0.000001914312    12.000000000000
         C            2.762274604638    -0.732504094300     0.000018085688    12.000000000000
         H           -2.543455395362     1.469379905700    -0.000029914312     1.007825032230
         H            0.747127604638    -2.244040094300     0.000016085688     1.007825032230
         H           -0.799077395362     3.086713905700    -0.000102914312     1.007825032230
         H            0.660699604638     2.581872905700     0.878962085688     1.007825032230
         H            0.660858604638     2.581819905700    -0.878875914312     1.007825032230
         H           -3.330365395362    -0.888821094300    -0.000020914312     1.007825032230
         H           -1.664444395362    -2.740521094300     0.000000085688     1.007825032230
         H            2.680888604638    -1.359775094300    -0.894430914312     1.007825032230
         H            2.680884604638    -1.359778094300     0.894465085688     1.007825032230
         H            3.723464604638    -0.219144094300     0.000022085688     1.007825032230

  Basis Set: AUG-CC-PVTZ
    Blend: AUG-CC-PVTZ
  Basis Set: (AUG-CC-PVTZ AUX)
    Blend: AUG-CC-PVTZ-JKFIT
	 Reference Energy          =    -383.7268300991403862 [Eh]
	 Singles Energy            =      -0.0000000000000000 [Eh]
	 Same-Spin Energy          =      -0.4103047089379757 [Eh]
	 Opposite-Spin Energy      =      -1.3183575851464435 [Eh]
	 Correlation Energy        =      -1.7286622940844192 [Eh]
	 Total Energy              =    -385.4554923932248016 [Eh]

	 ================> DF-SCS-MP2 Energies <==================
	-----------------------------------------------------------
	 SCS Same-Spin Scale       =       0.3333333333333333 [-]
	 SCS Opposite-Spin Scale   =       1.2000000000000000 [-]
	 SCS Same-Spin Energy      =      -0.1367682363126586 [Eh]
	 SCS Opposite-Spin Energy  =      -1.5820291021757322 [Eh]
	 SCS Correlation Energy    =      -1.7187973384883908 [Eh]
	 SCS Total Energy          =    -385.4456274376287865 [Eh]
	-----------------------------------------------------------

  Dipole Moment: [D]
     X:     0.9066      Y:    -0.7633      Z:     0.0000     Total:     1.1851

*** Psi4 exiting successfully. Buy a developer a beer!
