                               Psi4 1.4a3.dev225

  ==> Input File <==

--------------------------------------------------------------------------
#psi4
#
memory 32 gb

molecule  {
0 1
  O        1.7572910     0.3059760     0.0000180
  C       -0.4850880     0.9739040    -0.0000120
  C        0.3447618    -0.1165746     0.0000030
  C       -1.8443600     0.6614770    -0.0000180
  C        0.0124250    -1.4183170     0.0000060
  C        0.0151430     2.3911510    -0.0000080
  C       -2.2900340    -0.6642210    -0.0000140
  C       -1.3585410    -1.6984920    -0.0000020
  C        2.7379480    -0.7266300     0.0000180
  H       -2.5677820     1.4752540    -0.0000300
  H        0.7228010    -2.2381660     0.0000160
  H       -0.8234040     3.0925880    -0.0001030
  H        0.6363730     2.5877470     0.8789620
  H        0.6365320     2.5876940    -0.8788760
  H       -3.3546920    -0.8829470    -0.0000210
  H       -1.6887710    -2.7346470     0.0000000
  H        2.6565620    -1.3539010    -0.8944310
  H        2.6565580    -1.3539040     0.8944650
  H        3.6991380    -0.2132700     0.0000220
units angstrom
no_reorient  #important for SAPT in psi4, default
symmetry c1  #important for SAPT in psi4, default
}

set PROPERTIES_ORIGIN ["COM"]
properties('MP2/aug-cc-pvtz', properties = ['dipole'])
--------------------------------------------------------------------------

    Molecular point group: c1
  Charge       = 0
  Multiplicity = 1
  Basis Set: AUG-CC-PVTZ
    Blend: AUG-CC-PVTZ
  Basis Set: (AUG-CC-PVTZ AUX)
    Blend: AUG-CC-PVTZ-JKFIT

    Orbital Energies [Eh]
    ---------------------

    Doubly Occupied:

       1A    -20.566837     2A    -11.288922     3A    -11.273974
       4A    -11.238273     5A    -11.236356     6A    -11.235017
       7A    -11.230515     8A    -11.229384     9A    -11.219573
      10A     -1.362279    11A     -1.159688    12A     -1.051013
      13A     -1.015285    14A     -0.938296    15A     -0.921082
      16A     -0.821780    17A     -0.798459    18A     -0.703152
      19A     -0.661874    20A     -0.636366    21A     -0.636008
      22A     -0.617914    23A     -0.578726    24A     -0.570576
      25A     -0.564028    26A     -0.542532    27A     -0.516580
      28A     -0.506575    29A     -0.498255    30A     -0.472758
      31A     -0.456914    32A     -0.337820    33A     -0.317928

  @DF-RHF Final Energy:  -383.74073761989962

   => Energetics <=

    Nuclear Repulsion Energy =            430.2611354727296771
    One-Electron Energy =               -1373.5942626376083808
    Two-Electron Energy =                 559.5923895449791416
    Total Energy =                       -383.7407376198996189
  Basis Set: (AUG-CC-PVTZ AUX)
    Blend: AUG-CC-PVTZ-RI
    Molecular point group: c1

    Geometry (in Angstrom), charge = 0, multiplicity = 1:

       Center              X                  Y                   Z               Mass
    ------------   -----------------  -----------------  -----------------  -----------------
         O            1.787697122609     0.316661073318     0.000018262631    15.994914619570
         C           -0.454681877391     0.984589073318    -0.000011737369    12.000000000000
         C            0.375167922609    -0.105889526682     0.000003262631    12.000000000000
         C           -1.813953877391     0.672162073318    -0.000017737369    12.000000000000
         C            0.042831122609    -1.407631926682     0.000006262631    12.000000000000
         C            0.045549122609     2.401836073318    -0.000007737369    12.000000000000
         C           -2.259627877391    -0.653535926682    -0.000013737369    12.000000000000
         C           -1.328134877391    -1.687806926682    -0.000001737369    12.000000000000
         C            2.768354122609    -0.715944926682     0.000018262631    12.000000000000
         H           -2.537375877391     1.485939073318    -0.000029737369     1.007825032230
         H            0.753207122609    -2.227480926682     0.000016262631     1.007825032230
         H           -0.792997877391     3.103273073318    -0.000102737369     1.007825032230
         H            0.666779122609     2.598432073318     0.878962262631     1.007825032230
         H            0.666938122609     2.598379073318    -0.878875737369     1.007825032230
         H           -3.324285877391    -0.872261926682    -0.000020737369     1.007825032230
         H           -1.658364877391    -2.723961926682     0.000000262631     1.007825032230
         H            2.686968122609    -1.343215926682    -0.894430737369     1.007825032230
         H            2.686964122609    -1.343218926682     0.894465262631     1.007825032230
         H            3.729544122609    -0.202584926682     0.000022262631     1.007825032230

  Basis Set: AUG-CC-PVTZ
    Blend: AUG-CC-PVTZ
  Basis Set: (AUG-CC-PVTZ AUX)
    Blend: AUG-CC-PVTZ-JKFIT
	 Reference Energy          =    -383.7407376198996189 [Eh]
	 Singles Energy            =      -0.0000000000000000 [Eh]
	 Same-Spin Energy          =      -0.4111372824366873 [Eh]
	 Opposite-Spin Energy      =      -1.3195377831619410 [Eh]
	 Correlation Energy        =      -1.7306750655986285 [Eh]
	 Total Energy              =    -385.4714126854982510 [Eh]

	 ================> DF-SCS-MP2 Energies <==================
	-----------------------------------------------------------
	 SCS Same-Spin Scale       =       0.3333333333333333 [-]
	 SCS Opposite-Spin Scale   =       1.2000000000000000 [-]
	 SCS Same-Spin Energy      =      -0.1370457608122291 [Eh]
	 SCS Opposite-Spin Energy  =      -1.5834453397943291 [Eh]
	 SCS Correlation Energy    =      -1.7204911006065582 [Eh]
	 SCS Total Energy          =    -385.4612287205061989 [Eh]
	-----------------------------------------------------------

  Dipole Moment: [D]
     X:     0.3246      Y:    -0.7804      Z:    -0.0000     Total:     0.8452

*** Psi4 exiting successfully. Buy a developer a beer!
