                               Psi4 1.4a3.dev225

  ==> Input File <==

--------------------------------------------------------------------------
#psi4
#
memory 32 gb

molecule  {
0 1
  O        1.7702355     0.2597830     0.0000184
  C       -0.4850880     0.9739040    -0.0000120
  C        0.4405670    -0.0879150     0.0000040
  C       -1.8443600     0.6614770    -0.0000180
  C        0.0124250    -1.4183170     0.0000060
  C        0.0151430     2.3911510    -0.0000080
  C       -2.2900340    -0.6642210    -0.0000140
  C       -1.3585410    -1.6984920    -0.0000020
  C        2.7379480    -0.7266300     0.0000180
  H       -2.5677820     1.4752540    -0.0000300
  H        0.7228010    -2.2381660     0.0000160
  H       -0.8234040     3.0925880    -0.0001030
  H        0.6363730     2.5877470     0.8789620
  H        0.6365320     2.5876940    -0.8788760
  H       -3.3546920    -0.8829470    -0.0000210
  H       -1.6887710    -2.7346470     0.0000000
  H        2.6565620    -1.3539010    -0.8944310
  H        2.6565580    -1.3539040     0.8944650
  H        3.6991380    -0.2132700     0.0000220
units angstrom
no_reorient  #important for SAPT in psi4, default
symmetry c1  #important for SAPT in psi4, default
}

set PROPERTIES_ORIGIN ["COM"]
properties('MP2/aug-cc-pvtz', properties = ['dipole'])
--------------------------------------------------------------------------

    Molecular point group: c1
  Charge       = 0
  Multiplicity = 1
  Basis Set: AUG-CC-PVTZ
    Blend: AUG-CC-PVTZ
  Basis Set: (AUG-CC-PVTZ AUX)
    Blend: AUG-CC-PVTZ-JKFIT

    Orbital Energies [Eh]
    ---------------------

    Doubly Occupied:

       1A    -20.581218     2A    -11.296936     3A    -11.280120
       4A    -11.236021     5A    -11.235112     6A    -11.233151
       7A    -11.230278     8A    -11.225391     9A    -11.217356
      10A     -1.414299    11A     -1.147414    12A     -1.045862
      13A     -1.012928    14A     -0.948854    15A     -0.920443
      16A     -0.813282    17A     -0.798428    18A     -0.712432
      19A     -0.670117    20A     -0.659832    21A     -0.648929
      22A     -0.614510    23A     -0.588100    24A     -0.569249
      25A     -0.564843    26A     -0.539493    27A     -0.517702
      28A     -0.506294    29A     -0.498267    30A     -0.472931
      31A     -0.462117    32A     -0.331743    33A     -0.306226

  @DF-RHF Final Energy:  -383.75362650930776

   => Energetics <=

    Nuclear Repulsion Energy =            430.5331662784324180
    One-Electron Energy =               -1373.9738311013909424
    Two-Electron Energy =                 559.6870383136507598
    Total Energy =                       -383.7536265093077645
  Basis Set: (AUG-CC-PVTZ AUX)
    Blend: AUG-CC-PVTZ-RI
    Molecular point group: c1

    Geometry (in Angstrom), charge = 0, multiplicity = 1:

       Center              X                  Y                   Z               Mass
    ------------   -----------------  -----------------  -----------------  -----------------
         O            1.789527725685     0.273703328923     0.000018511919    15.994914619570
         C           -0.465795774315     0.987824328923    -0.000011888081    12.000000000000
         C            0.459859225685    -0.073994671077     0.000004111919    12.000000000000
         C           -1.825067774315     0.675397328923    -0.000017888081    12.000000000000
         C            0.031717225685    -1.404396671077     0.000006111919    12.000000000000
         C            0.034435225685     2.405071328923    -0.000007888081    12.000000000000
         C           -2.270741774315    -0.650300671077    -0.000013888081    12.000000000000
         C           -1.339248774315    -1.684571671077    -0.000001888081    12.000000000000
         C            2.757240225685    -0.712709671077     0.000018111919    12.000000000000
         H           -2.548489774315     1.489174328923    -0.000029888081     1.007825032230
         H            0.742093225685    -2.224245671077     0.000016111919     1.007825032230
         H           -0.804111774315     3.106508328923    -0.000102888081     1.007825032230
         H            0.655665225685     2.601667328923     0.878962111919     1.007825032230
         H            0.655824225685     2.601614328923    -0.878875888081     1.007825032230
         H           -3.335399774315    -0.869026671077    -0.000020888081     1.007825032230
         H           -1.669478774315    -2.720726671077     0.000000111919     1.007825032230
         H            2.675854225685    -1.339980671077    -0.894430888081     1.007825032230
         H            2.675850225685    -1.339983671077     0.894465111919     1.007825032230
         H            3.718430225685    -0.199349671077     0.000022111919     1.007825032230

  Basis Set: AUG-CC-PVTZ
    Blend: AUG-CC-PVTZ
  Basis Set: (AUG-CC-PVTZ AUX)
    Blend: AUG-CC-PVTZ-JKFIT
	 Reference Energy          =    -383.7536265093077645 [Eh]
	 Singles Energy            =      -0.0000000000000000 [Eh]
	 Same-Spin Energy          =      -0.4105153986588904 [Eh]
	 Opposite-Spin Energy      =      -1.3168195055200294 [Eh]
	 Correlation Energy        =      -1.7273349041789197 [Eh]
	 Total Energy              =    -385.4809614134866820 [Eh]

	 ================> DF-SCS-MP2 Energies <==================
	-----------------------------------------------------------
	 SCS Same-Spin Scale       =       0.3333333333333333 [-]
	 SCS Opposite-Spin Scale   =       1.2000000000000000 [-]
	 SCS Same-Spin Energy      =      -0.1368384662196301 [Eh]
	 SCS Opposite-Spin Energy  =      -1.5801834066240352 [Eh]
	 SCS Correlation Energy    =      -1.7170218728436653 [Eh]
	 SCS Total Energy          =    -385.4706483821514098 [Eh]
	-----------------------------------------------------------

  Dipole Moment: [D]
     X:     0.8526      Y:    -0.6199      Z:     0.0000     Total:     1.0541

*** Psi4 exiting successfully. Buy a developer a beer!
