                               Psi4 1.4a3.dev225

  ==> Input File <==

--------------------------------------------------------------------------
#psi4
#
memory 32 gb

molecule  {
0 1
  O        1.7572910     0.3059760     0.0000180
  C       -0.4850880     0.9739040    -0.0000120
  C        0.4405670    -0.0879150     0.0000040
  C       -1.8443600     0.6614770    -0.0000180
  C        0.0124250    -1.4183170     0.0000060
  C        0.0151430     2.3911510    -0.0000080
  C       -2.2900340    -0.6642210    -0.0000140
  C       -1.3747454    -1.6021758    -0.0000027
  C        2.7379480    -0.7266300     0.0000180
  H       -2.5677820     1.4752540    -0.0000300
  H        0.7228010    -2.2381660     0.0000160
  H       -0.8234040     3.0925880    -0.0001030
  H        0.6363730     2.5877470     0.8789620
  H        0.6365320     2.5876940    -0.8788760
  H       -3.3546920    -0.8829470    -0.0000210
  H       -1.6887710    -2.7346470     0.0000000
  H        2.6565620    -1.3539010    -0.8944310
  H        2.6565580    -1.3539040     0.8944650
  H        3.6991380    -0.2132700     0.0000220
units angstrom
no_reorient  #important for SAPT in psi4, default
symmetry c1  #important for SAPT in psi4, default
}

set PROPERTIES_ORIGIN ["COM"]
properties('MP2/aug-cc-pvtz', properties = ['dipole'])
--------------------------------------------------------------------------

    Molecular point group: c1
  Charge       = 0
  Multiplicity = 1
  Basis Set: AUG-CC-PVTZ
    Blend: AUG-CC-PVTZ
  Basis Set: (AUG-CC-PVTZ AUX)
    Blend: AUG-CC-PVTZ-JKFIT

    Orbital Energies [Eh]
    ---------------------

    Doubly Occupied:

       1A    -20.584134     2A    -11.295756     3A    -11.284734
       4A    -11.233399     5A    -11.232271     6A    -11.232022
       7A    -11.228946     8A    -11.215943     9A    -11.214662
      10A     -1.404285    11A     -1.154562    12A     -1.048475
      13A     -1.013289    14A     -0.949334    15A     -0.921468
      16A     -0.817175    17A     -0.791764    18A     -0.703697
      19A     -0.670784    20A     -0.653798    21A     -0.650769
      22A     -0.612532    23A     -0.583289    24A     -0.568845
      25A     -0.548188    26A     -0.544025    27A     -0.520402
      28A     -0.511016    29A     -0.502290    30A     -0.471384
      31A     -0.462713    32A     -0.328529    33A     -0.313797

  @DF-RHF Final Energy:  -383.74117869764626

   => Energetics <=

    Nuclear Repulsion Energy =            431.6855268429094394
    One-Electron Energy =               -1376.3168556373898355
    Two-Electron Energy =                 560.8901500968341907
    Total Energy =                       -383.7411786976462054
  Basis Set: (AUG-CC-PVTZ AUX)
    Blend: AUG-CC-PVTZ-RI
    Molecular point group: c1

    Geometry (in Angstrom), charge = 0, multiplicity = 1:

       Center              X                  Y                   Z               Mass
    ------------   -----------------  -----------------  -----------------  -----------------
         O            1.779872228411     0.304375739349     0.000018233141    15.994914619570
         C           -0.462506771589     0.972303739349    -0.000011766859    12.000000000000
         C            0.463148228411    -0.089515260651     0.000004233141    12.000000000000
         C           -1.821778771589     0.659876739349    -0.000017766859    12.000000000000
         C            0.035006228411    -1.419917260651     0.000006233141    12.000000000000
         C            0.037724228411     2.389550739349    -0.000007766859    12.000000000000
         C           -2.267452771589    -0.665821260651    -0.000013766859    12.000000000000
         C           -1.352164171589    -1.603776060651    -0.000002466859    12.000000000000
         C            2.760529228411    -0.728230260651     0.000018233141    12.000000000000
         H           -2.545200771589     1.473653739349    -0.000029766859     1.007825032230
         H            0.745382228411    -2.239766260651     0.000016233141     1.007825032230
         H           -0.800822771589     3.090987739349    -0.000102766859     1.007825032230
         H            0.658954228411     2.586146739349     0.878962233141     1.007825032230
         H            0.659113228411     2.586093739349    -0.878875766859     1.007825032230
         H           -3.332110771589    -0.884547260651    -0.000020766859     1.007825032230
         H           -1.666189771589    -2.736247260651     0.000000233141     1.007825032230
         H            2.679143228411    -1.355501260651    -0.894430766859     1.007825032230
         H            2.679139228411    -1.355504260651     0.894465233141     1.007825032230
         H            3.721719228411    -0.214870260651     0.000022233141     1.007825032230

  Basis Set: AUG-CC-PVTZ
    Blend: AUG-CC-PVTZ
  Basis Set: (AUG-CC-PVTZ AUX)
    Blend: AUG-CC-PVTZ-JKFIT
	 Reference Energy          =    -383.7411786976462622 [Eh]
	 Singles Energy            =      -0.0000000000000000 [Eh]
	 Same-Spin Energy          =      -0.4107996781401529 [Eh]
	 Opposite-Spin Energy      =      -1.3181469578572109 [Eh]
	 Correlation Energy        =      -1.7289466359973638 [Eh]
	 Total Energy              =    -385.4701253336436366 [Eh]

	 ================> DF-SCS-MP2 Energies <==================
	-----------------------------------------------------------
	 SCS Same-Spin Scale       =       0.3333333333333333 [-]
	 SCS Opposite-Spin Scale   =       1.2000000000000000 [-]
	 SCS Same-Spin Energy      =      -0.1369332260467176 [Eh]
	 SCS Opposite-Spin Energy  =      -1.5817763494286530 [Eh]
	 SCS Correlation Energy    =      -1.7187095754753705 [Eh]
	 SCS Total Energy          =    -385.4598882731216349 [Eh]
	-----------------------------------------------------------

  Dipole Moment: [D]
     X:     0.9964      Y:    -0.6689      Z:     0.0000     Total:     1.2001

*** Psi4 exiting successfully. Buy a developer a beer!
