                               Psi4 1.4a3.dev225

  ==> Input File <==

--------------------------------------------------------------------------
#psi4
#
memory 32 gb

molecule  {
0 1
  O        1.7572910     0.3059760     0.0000180
  C       -0.4850880     0.9739040    -0.0000120
  C        0.4405670    -0.0879150     0.0000040
  C       -1.8443600     0.6614770    -0.0000180
  C        0.0124250    -1.4183170     0.0000060
  C        0.0151430     2.3911510    -0.0000080
  C       -2.2900340    -0.6642210    -0.0000140
  C       -1.3585410    -1.6984920    -0.0000020
  C        2.7379480    -0.7266300     0.0000180
  H       -2.5677820     1.4752540    -0.0000300
  H        0.7228010    -2.2381660     0.0000160
  H       -0.8234040     3.0925880    -0.0001030
  H        0.6363730     2.5877470     0.8789620
  H        0.6365320     2.5876940    -0.8788760
  H       -3.3546920    -0.8829470    -0.0000210
  H       -1.6887710    -2.7346470     0.0000000
  H        2.6565620    -1.3539010    -0.8944310
  H        2.6565580    -1.3539040     0.8944650
  H        3.6550342    -0.2368253     0.0000218
units angstrom
no_reorient  #important for SAPT in psi4, default
symmetry c1  #important for SAPT in psi4, default
}

set PROPERTIES_ORIGIN ["COM"]
properties('MP2/aug-cc-pvtz', properties = ['dipole'])
--------------------------------------------------------------------------

    Molecular point group: c1
  Charge       = 0
  Multiplicity = 1
  Basis Set: AUG-CC-PVTZ
    Blend: AUG-CC-PVTZ
  Basis Set: (AUG-CC-PVTZ AUX)
    Blend: AUG-CC-PVTZ-JKFIT

    Orbital Energies [Eh]
    ---------------------

    Doubly Occupied:

       1A    -20.583511     2A    -11.294767     3A    -11.278222
       4A    -11.234546     5A    -11.233695     6A    -11.231610
       7A    -11.230077     8A    -11.224267     9A    -11.215921
      10A     -1.403657    11A     -1.145224    12A     -1.044662
      13A     -1.009955    14A     -0.951921    15A     -0.921478
      16A     -0.813468    17A     -0.796656    18A     -0.708810
      19A     -0.668794    20A     -0.653009    21A     -0.645946
      22A     -0.615926    23A     -0.583736    24A     -0.568216
      25A     -0.563917    26A     -0.538746    27A     -0.524770
      28A     -0.508587    29A     -0.496683    30A     -0.475477
      31A     -0.464012    32A     -0.330922    33A     -0.304986

  @DF-RHF Final Energy:  -383.75204305005235

   => Energetics <=

    Nuclear Repulsion Energy =            430.3487259698250114
    One-Electron Energy =               -1373.6691849494429789
    Two-Electron Energy =                 559.5684159295657309
    Total Energy =                       -383.7520430500522934
  Basis Set: (AUG-CC-PVTZ AUX)
    Blend: AUG-CC-PVTZ-RI
    Molecular point group: c1

    Geometry (in Angstrom), charge = 0, multiplicity = 1:

       Center              X                  Y                   Z               Mass
    ------------   -----------------  -----------------  -----------------  -----------------
         O            1.778643425288     0.314038256263     0.000018165981    15.994914619570
         C           -0.463735574712     0.981966256263    -0.000011834019    12.000000000000
         C            0.461919425288    -0.079852743737     0.000004165981    12.000000000000
         C           -1.823007574712     0.669539256263    -0.000017834019    12.000000000000
         C            0.033777425288    -1.410254743737     0.000006165981    12.000000000000
         C            0.036495425288     2.399213256263    -0.000007834019    12.000000000000
         C           -2.268681574712    -0.656158743737    -0.000013834019    12.000000000000
         C           -1.337188574712    -1.690429743737    -0.000001834019    12.000000000000
         C            2.759300425288    -0.718567743737     0.000018165981    12.000000000000
         H           -2.546429574712     1.483316256263    -0.000029834019     1.007825032230
         H            0.744153425288    -2.230103743737     0.000016165981     1.007825032230
         H           -0.802051574712     3.100650256263    -0.000102834019     1.007825032230
         H            0.657725425288     2.595809256263     0.878962165981     1.007825032230
         H            0.657884425288     2.595756256263    -0.878875834019     1.007825032230
         H           -3.333339574712    -0.874884743737    -0.000020834019     1.007825032230
         H           -1.667418574712    -2.726584743737     0.000000165981     1.007825032230
         H            2.677914425288    -1.345838743737    -0.894430834019     1.007825032230
         H            2.677910425288    -1.345841743737     0.894465165981     1.007825032230
         H            3.676386625288    -0.228763043737     0.000021965981     1.007825032230

  Basis Set: AUG-CC-PVTZ
    Blend: AUG-CC-PVTZ
  Basis Set: (AUG-CC-PVTZ AUX)
    Blend: AUG-CC-PVTZ-JKFIT
	 Reference Energy          =    -383.7520430500523503 [Eh]
	 Singles Energy            =      -0.0000000000000000 [Eh]
	 Same-Spin Energy          =      -0.4108568537102327 [Eh]
	 Opposite-Spin Energy      =      -1.3178813654279715 [Eh]
	 Correlation Energy        =      -1.7287382191382041 [Eh]
	 Total Energy              =    -385.4807812691905724 [Eh]

	 ================> DF-SCS-MP2 Energies <==================
	-----------------------------------------------------------
	 SCS Same-Spin Scale       =       0.3333333333333333 [-]
	 SCS Opposite-Spin Scale   =       1.2000000000000000 [-]
	 SCS Same-Spin Energy      =      -0.1369522845700775 [Eh]
	 SCS Opposite-Spin Energy  =      -1.5814576385135657 [Eh]
	 SCS Correlation Energy    =      -1.7184099230836432 [Eh]
	 SCS Total Energy          =    -385.4704529731359912 [Eh]
	-----------------------------------------------------------

  Dipole Moment: [D]
     X:     1.0104      Y:    -0.7376      Z:     0.0000     Total:     1.2510

*** Psi4 exiting successfully. Buy a developer a beer!
