                               Psi4 1.4a3.dev225

  ==> Input File <==

--------------------------------------------------------------------------
#psi4
#
memory 32 gb

molecule  {
0 1
  O        1.7572910     0.3059760     0.0000180
  C       -0.4850880     0.9739040    -0.0000120
  C        0.4405670    -0.0879150     0.0000040
  C       -1.8443600     0.6614770    -0.0000180
  C        0.0124250    -1.4183170     0.0000060
  C        0.0151430     2.3911510    -0.0000080
  C       -2.2900340    -0.6642210    -0.0000140
  C       -1.3585410    -1.6984920    -0.0000020
  C        2.7379480    -0.7266300     0.0000180
  H       -2.5677820     1.4752540    -0.0000300
  H        0.7228010    -2.2381660     0.0000160
  H       -0.8234040     3.0925880    -0.0001030
  H        0.6363730     2.5877470     0.8789620
  H        0.6365320     2.5876940    -0.8788760
  H       -3.3546920    -0.8829470    -0.0000210
  H       -1.6887710    -2.7346470     0.0000000
  H        2.5528217    -1.3843919    -0.8562583
  H        2.6565580    -1.3539040     0.8944650
  H        3.6991380    -0.2132700     0.0000220
units angstrom
no_reorient  #important for SAPT in psi4, default
symmetry c1  #important for SAPT in psi4, default
}

set PROPERTIES_ORIGIN ["COM"]
properties('MP2/aug-cc-pvtz', properties = ['dipole'])
--------------------------------------------------------------------------

    Molecular point group: c1
  Charge       = 0
  Multiplicity = 1
  Basis Set: AUG-CC-PVTZ
    Blend: AUG-CC-PVTZ
  Basis Set: (AUG-CC-PVTZ AUX)
    Blend: AUG-CC-PVTZ-JKFIT

    Orbital Energies [Eh]
    ---------------------

    Doubly Occupied:

       1A    -20.582795     2A    -11.295178     3A    -11.284452
       4A    -11.234936     5A    -11.234026     6A    -11.231917
       7A    -11.230608     8A    -11.224602     9A    -11.216031
      10A     -1.403723    11A     -1.145484    12A     -1.044854
      13A     -1.009176    14A     -0.948419    15A     -0.921187
      16A     -0.812084    17A     -0.797404    18A     -0.710042
      19A     -0.667506    20A     -0.651328    21A     -0.645898
      22A     -0.615558    23A     -0.581970    24A     -0.567486
      25A     -0.563968    26A     -0.538961    27A     -0.524779
      28A     -0.505895    29A     -0.496775    30A     -0.475595
      31A     -0.463026    32A     -0.331375    33A     -0.305215

  @DF-RHF Final Energy:  -383.75159579048835

   => Energetics <=

    Nuclear Repulsion Energy =            430.3025071427418311
    One-Electron Energy =               -1373.5837007567545243
    Two-Electron Energy =                 559.5295978235242274
    Total Energy =                       -383.7515957904884090
  Basis Set: (AUG-CC-PVTZ AUX)
    Blend: AUG-CC-PVTZ-RI
    Molecular point group: c1

    Geometry (in Angstrom), charge = 0, multiplicity = 1:

       Center              X                  Y                   Z               Mass
    ------------   -----------------  -----------------  -----------------  -----------------
         O            1.779135778850     0.314095515951    -0.000296986036    15.994914619570
         C           -0.463243221150     0.982023515951    -0.000326986036    12.000000000000
         C            0.462411778850    -0.079795484049    -0.000310986036    12.000000000000
         C           -1.822515221150     0.669596515951    -0.000332986036    12.000000000000
         C            0.034269778850    -1.410197484049    -0.000308986036    12.000000000000
         C            0.036987778850     2.399270515951    -0.000322986036    12.000000000000
         C           -2.268189221150    -0.656101484049    -0.000328986036    12.000000000000
         C           -1.336696221150    -1.690372484049    -0.000316986036    12.000000000000
         C            2.759792778850    -0.718510484049    -0.000296986036    12.000000000000
         H           -2.545937221150     1.483373515951    -0.000344986036     1.007825032230
         H            0.744645778850    -2.230046484049    -0.000298986036     1.007825032230
         H           -0.801559221150     3.100707515951    -0.000417986036     1.007825032230
         H            0.658217778850     2.595866515951     0.878647013964     1.007825032230
         H            0.658376778850     2.595813515951    -0.879190986036     1.007825032230
         H           -3.332847221150    -0.874827484049    -0.000335986036     1.007825032230
         H           -1.666926221150    -2.726527484049    -0.000314986036     1.007825032230
         H            2.574666478850    -1.376272384049    -0.856573286036     1.007825032230
         H            2.678402778850    -1.345784484049     0.894150013964     1.007825032230
         H            3.720982778850    -0.205150484049    -0.000292986036     1.007825032230

  Basis Set: AUG-CC-PVTZ
    Blend: AUG-CC-PVTZ
  Basis Set: (AUG-CC-PVTZ AUX)
    Blend: AUG-CC-PVTZ-JKFIT
	 Reference Energy          =    -383.7515957904883521 [Eh]
	 Singles Energy            =      -0.0000000000000000 [Eh]
	 Same-Spin Energy          =      -0.4110109113449107 [Eh]
	 Opposite-Spin Energy      =      -1.3183762190474895 [Eh]
	 Correlation Energy        =      -1.7293871303924002 [Eh]
	 Total Energy              =    -385.4809829208807628 [Eh]

	 ================> DF-SCS-MP2 Energies <==================
	-----------------------------------------------------------
	 SCS Same-Spin Scale       =       0.3333333333333333 [-]
	 SCS Opposite-Spin Scale   =       1.2000000000000000 [-]
	 SCS Same-Spin Energy      =      -0.1370036371149702 [Eh]
	 SCS Opposite-Spin Energy  =      -1.5820514628569873 [Eh]
	 SCS Correlation Energy    =      -1.7190550999719576 [Eh]
	 SCS Total Energy          =    -385.4706508904603197 [Eh]
	-----------------------------------------------------------

  Dipole Moment: [D]
     X:     0.9586      Y:    -0.7298      Z:     0.0271     Total:     1.2050

*** Psi4 exiting successfully. Buy a developer a beer!
