                               Psi4 1.4a3.dev225

  ==> Input File <==

--------------------------------------------------------------------------
#psi4
#
memory 32 gb

molecule  {
0 1
  O        1.7572910     0.3059760     0.0000180
  C       -0.4850880     0.9739040    -0.0000120
  C        0.4405670    -0.0879150     0.0000040
  C       -1.8443600     0.6614770    -0.0000180
  C        0.0124250    -1.4183170     0.0000060
  C        0.0151430     2.3911510    -0.0000080
  C       -2.2900340    -0.6642210    -0.0000140
  C       -1.3585410    -1.6984920    -0.0000020
  C        2.7379480    -0.7266300     0.0000180
  H       -2.5677820     1.4752540    -0.0000300
  H        0.7228010    -2.2381660     0.0000160
  H       -0.8234040     3.0925880    -0.0001030
  H        0.6363730     2.5877470     0.8789620
  H        0.6365320     2.5876940    -0.8788760
  H       -3.3546920    -0.8829470    -0.0000210
  H       -1.6887710    -2.7346470     0.0000000
  H        2.6565620    -1.3539010    -0.8944310
  H        2.6565580    -1.3539040     0.8944650
  H        3.7432418    -0.1897147     0.0000222
units angstrom
no_reorient  #important for SAPT in psi4, default
symmetry c1  #important for SAPT in psi4, default
}

set PROPERTIES_ORIGIN ["COM"]
properties('MP2/aug-cc-pvtz', properties = ['dipole'])
--------------------------------------------------------------------------

    Molecular point group: c1
  Charge       = 0
  Multiplicity = 1
  Basis Set: AUG-CC-PVTZ
    Blend: AUG-CC-PVTZ
  Basis Set: (AUG-CC-PVTZ AUX)
    Blend: AUG-CC-PVTZ-JKFIT

    Orbital Energies [Eh]
    ---------------------

    Doubly Occupied:

       1A    -20.584554     2A    -11.295483     3A    -11.290163
       4A    -11.235008     5A    -11.234203     6A    -11.232053
       7A    -11.230684     8A    -11.224717     9A    -11.216188
      10A     -1.404342    11A     -1.145557    12A     -1.044778
      13A     -1.008722    14A     -0.945590    15A     -0.920580
      16A     -0.811895    17A     -0.797179    18A     -0.709207
      19A     -0.665552    20A     -0.654071    21A     -0.646465
      22A     -0.611588    23A     -0.578549    24A     -0.568617
      25A     -0.562646    26A     -0.539053    27A     -0.518573
      28A     -0.509308    29A     -0.496252    30A     -0.475119
      31A     -0.464626    32A     -0.331401    33A     -0.305514

  @DF-RHF Final Energy:  -383.75082432409943

   => Energetics <=

    Nuclear Repulsion Energy =            429.8741346303046953
    One-Electron Energy =               -1372.7334459036510452
    Two-Electron Energy =                 559.1084869492468670
    Total Energy =                       -383.7508243240994261
  Basis Set: (AUG-CC-PVTZ AUX)
    Blend: AUG-CC-PVTZ-RI
    Molecular point group: c1

    Geometry (in Angstrom), charge = 0, multiplicity = 1:

       Center              X                  Y                   Z               Mass
    ------------   -----------------  -----------------  -----------------  -----------------
         O            1.777915191304     0.313649315401     0.000018162678    15.994914619570
         C           -0.464463808696     0.981577315401    -0.000011837322    12.000000000000
         C            0.461191191304    -0.080241684599     0.000004162678    12.000000000000
         C           -1.823735808696     0.669150315401    -0.000017837322    12.000000000000
         C            0.033049191304    -1.410643684599     0.000006162678    12.000000000000
         C            0.035767191304     2.398824315401    -0.000007837322    12.000000000000
         C           -2.269409808696    -0.656547684599    -0.000013837322    12.000000000000
         C           -1.337916808696    -1.690818684599    -0.000001837322    12.000000000000
         C            2.758572191304    -0.718956684599     0.000018162678    12.000000000000
         H           -2.547157808696     1.482927315401    -0.000029837322     1.007825032230
         H            0.743425191304    -2.230492684599     0.000016162678     1.007825032230
         H           -0.802779808696     3.100261315401    -0.000102837322     1.007825032230
         H            0.656997191304     2.595420315401     0.878962162678     1.007825032230
         H            0.657156191304     2.595367315401    -0.878875837322     1.007825032230
         H           -3.334067808696    -0.875273684599    -0.000020837322     1.007825032230
         H           -1.668146808696    -2.726973684599     0.000000162678     1.007825032230
         H            2.677186191304    -1.346227684599    -0.894430837322     1.007825032230
         H            2.677182191304    -1.346230684599     0.894465162678     1.007825032230
         H            3.763865991304    -0.182041384599     0.000022362678     1.007825032230

  Basis Set: AUG-CC-PVTZ
    Blend: AUG-CC-PVTZ
  Basis Set: (AUG-CC-PVTZ AUX)
    Blend: AUG-CC-PVTZ-JKFIT
	 Reference Energy          =    -383.7508243240994261 [Eh]
	 Singles Energy            =      -0.0000000000000000 [Eh]
	 Same-Spin Energy          =      -0.4108854469213951 [Eh]
	 Opposite-Spin Energy      =      -1.3185594485345864 [Eh]
	 Correlation Energy        =      -1.7294448954559816 [Eh]
	 Total Energy              =    -385.4802692195553959 [Eh]

	 ================> DF-SCS-MP2 Energies <==================
	-----------------------------------------------------------
	 SCS Same-Spin Scale       =       0.3333333333333333 [-]
	 SCS Opposite-Spin Scale   =       1.2000000000000000 [-]
	 SCS Same-Spin Energy      =      -0.1369618156404650 [Eh]
	 SCS Opposite-Spin Energy  =      -1.5822713382415037 [Eh]
	 SCS Correlation Energy    =      -1.7192331538819687 [Eh]
	 SCS Total Energy          =    -385.4700574779814133 [Eh]
	-----------------------------------------------------------

  Dipole Moment: [D]
     X:     0.9476      Y:    -0.7366      Z:     0.0000     Total:     1.2002

*** Psi4 exiting successfully. Buy a developer a beer!
