                               Psi4 1.4a3.dev225

  ==> Input File <==

--------------------------------------------------------------------------
#psi4
#
memory 32 gb

molecule  {
0 1
  O        1.7572910     0.3059760     0.0000180
  C       -0.4850880     0.9739040    -0.0000120
  C        0.4405670    -0.0879150     0.0000040
  C       -1.8443600     0.6614770    -0.0000180
  C        0.0124250    -1.4183170     0.0000060
  C        0.0151430     2.3911510    -0.0000080
  C       -2.2900340    -0.6642210    -0.0000140
  C       -1.3585410    -1.6984920    -0.0000020
  C        2.7379480    -0.7266300     0.0000180
  H       -2.5677820     1.4752540    -0.0000300
  H        0.7228010    -2.2381660     0.0000160
  H       -0.8234040     3.0925880    -0.0001030
  H        0.6363730     2.5877470     0.8789620
  H        0.6365320     2.5876940    -0.8788760
  H       -3.3546920    -0.8829470    -0.0000210
  H       -1.6887710    -2.7346470     0.0000000
  H        2.6218264    -1.3648463    -0.8827771
  H        2.6565580    -1.3539040     0.8944650
  H        3.6991380    -0.2132700     0.0000220
units angstrom
no_reorient  #important for SAPT in psi4, default
symmetry c1  #important for SAPT in psi4, default
}

set PROPERTIES_ORIGIN ["COM"]
properties('MP2/aug-cc-pvtz', properties = ['dipole'])
--------------------------------------------------------------------------

    Molecular point group: c1
  Charge       = 0
  Multiplicity = 1
  Basis Set: AUG-CC-PVTZ
    Blend: AUG-CC-PVTZ
  Basis Set: (AUG-CC-PVTZ AUX)
    Blend: AUG-CC-PVTZ-JKFIT

    Orbital Energies [Eh]
    ---------------------

    Doubly Occupied:

       1A    -20.583594     2A    -11.295120     3A    -11.284332
       4A    -11.234812     5A    -11.233958     6A    -11.231844
       7A    -11.230434     8A    -11.224513     9A    -11.216038
      10A     -1.403867    11A     -1.145398    12A     -1.044730
      13A     -1.009181    14A     -0.948385    15A     -0.921073
      16A     -0.812417    17A     -0.797052    18A     -0.709304
      19A     -0.667021    20A     -0.652802    21A     -0.646122
      22A     -0.614142    23A     -0.581310    24A     -0.568131
      25A     -0.563582    26A     -0.538905    27A     -0.522959
      28A     -0.507969    29A     -0.496636    30A     -0.475449
      31A     -0.463931    32A     -0.331213    33A     -0.305223

  @DF-RHF Final Energy:  -383.75285045240673

   => Energetics <=

    Nuclear Repulsion Energy =            430.1680469115393635
    One-Electron Energy =               -1373.3189008954298060
    Two-Electron Energy =                 559.3980035314837096
    Total Energy =                       -383.7528504524067330
  Basis Set: (AUG-CC-PVTZ AUX)
    Blend: AUG-CC-PVTZ-RI
    Molecular point group: c1

    Geometry (in Angstrom), charge = 0, multiplicity = 1:

       Center              X                  Y                   Z               Mass
    ------------   -----------------  -----------------  -----------------  -----------------
         O            1.778566082274     0.313934149241    -0.000078049217    15.994914619570
         C           -0.463812917726     0.981862149241    -0.000108049217    12.000000000000
         C            0.461842082274    -0.079956850759    -0.000092049217    12.000000000000
         C           -1.823084917726     0.669435149241    -0.000114049217    12.000000000000
         C            0.033700082274    -1.410358850759    -0.000090049217    12.000000000000
         C            0.036418082274     2.399109149241    -0.000104049217    12.000000000000
         C           -2.268758917726    -0.656262850759    -0.000110049217    12.000000000000
         C           -1.337265917726    -1.690533850759    -0.000098049217    12.000000000000
         C            2.759223082274    -0.718671850759    -0.000078049217    12.000000000000
         H           -2.546506917726     1.483212149241    -0.000126049217     1.007825032230
         H            0.744076082274    -2.230207850759    -0.000080049217     1.007825032230
         H           -0.802128917726     3.100546149241    -0.000199049217     1.007825032230
         H            0.657648082274     2.595705149241     0.878865950783     1.007825032230
         H            0.657807082274     2.595652149241    -0.878972049217     1.007825032230
         H           -3.333416917726    -0.874988850759    -0.000117049217     1.007825032230
         H           -1.667495917726    -2.726688850759    -0.000096049217     1.007825032230
         H            2.643101482274    -1.356888150759    -0.882873149217     1.007825032230
         H            2.677833082274    -1.345945850759     0.894368950783     1.007825032230
         H            3.720413082274    -0.205311850759    -0.000074049217     1.007825032230

  Basis Set: AUG-CC-PVTZ
    Blend: AUG-CC-PVTZ
  Basis Set: (AUG-CC-PVTZ AUX)
    Blend: AUG-CC-PVTZ-JKFIT
	 Reference Energy          =    -383.7528504524067330 [Eh]
	 Singles Energy            =      -0.0000000000000000 [Eh]
	 Same-Spin Energy          =      -0.4108987796952800 [Eh]
	 Opposite-Spin Energy      =      -1.3182302821643672 [Eh]
	 Correlation Energy        =      -1.7291290618596471 [Eh]
	 Total Energy              =    -385.4819795142663565 [Eh]

	 ================> DF-SCS-MP2 Energies <==================
	-----------------------------------------------------------
	 SCS Same-Spin Scale       =       0.3333333333333333 [-]
	 SCS Opposite-Spin Scale   =       1.2000000000000000 [-]
	 SCS Same-Spin Energy      =      -0.1369662598984266 [Eh]
	 SCS Opposite-Spin Energy  =      -1.5818763385972405 [Eh]
	 SCS Correlation Energy    =      -1.7188425984956672 [Eh]
	 SCS Total Energy          =    -385.4716930509023882 [Eh]
	-----------------------------------------------------------

  Dipole Moment: [D]
     X:     0.9740      Y:    -0.7351      Z:     0.0086     Total:     1.2203

*** Psi4 exiting successfully. Buy a developer a beer!
