                               Psi4 1.4a3.dev225

  ==> Input File <==

--------------------------------------------------------------------------
#psi4
#
memory 32 gb

molecule  {
0 1
  O        1.7572910     0.3059760     0.0000180
  C       -0.4850880     0.9739040    -0.0000120
  C        0.4405670    -0.0879150     0.0000040
  C       -1.8443600     0.6614770    -0.0000180
  C        0.0124250    -1.4183170     0.0000060
  C        0.0151430     2.3911510    -0.0000080
  C       -2.2900340    -0.6642210    -0.0000140
  C       -1.3585410    -1.6984920    -0.0000020
  C        2.7379480    -0.7266300     0.0000180
  H       -2.5677820     1.4752540    -0.0000300
  H        0.7228010    -2.2381660     0.0000160
  H       -0.8234040     3.0925880    -0.0001030
  H        0.6363730     2.5877470     0.8789620
  H        0.6365320     2.5876940    -0.8788760
  H       -3.3546920    -0.8829470    -0.0000210
  H       -1.6887710    -2.7346470     0.0000000
  H        2.6739696    -1.3481409    -0.8998501
  H        2.6565580    -1.3539040     0.8944650
  H        3.6991380    -0.2132700     0.0000220
units angstrom
no_reorient  #important for SAPT in psi4, default
symmetry c1  #important for SAPT in psi4, default
}

set PROPERTIES_ORIGIN ["COM"]
properties('MP2/aug-cc-pvtz', properties = ['dipole'])
--------------------------------------------------------------------------

    Molecular point group: c1
  Charge       = 0
  Multiplicity = 1
  Basis Set: AUG-CC-PVTZ
    Blend: AUG-CC-PVTZ
  Basis Set: (AUG-CC-PVTZ AUX)
    Blend: AUG-CC-PVTZ-JKFIT

    Orbital Energies [Eh]
    ---------------------

    Doubly Occupied:

       1A    -20.584193     2A    -11.295091     3A    -11.284226
       4A    -11.234739     5A    -11.233921     6A    -11.231804
       7A    -11.230326     8A    -11.224460     9A    -11.216049
      10A     -1.403998    11A     -1.145350    12A     -1.044658
      13A     -1.009209    14A     -0.948438    15A     -0.921021
      16A     -0.812701    17A     -0.796827    18A     -0.708821
      19A     -0.666966    20A     -0.653810    21A     -0.646207
      22A     -0.613149    23A     -0.580987    24A     -0.568517
      25A     -0.563275    26A     -0.538880    27A     -0.521419
      28A     -0.509347    29A     -0.496470    30A     -0.475287
      31A     -0.464454    32A     -0.331113    33A     -0.305237

  @DF-RHF Final Energy:  -383.75299298009492

   => Energetics <=

    Nuclear Repulsion Energy =            430.0732187393034565
    One-Electron Energy =               -1373.1305218946115474
    Two-Electron Energy =                 559.3043101752132316
    Total Energy =                       -383.7529929800948594
  Basis Set: (AUG-CC-PVTZ AUX)
    Blend: AUG-CC-PVTZ-RI
    Molecular point group: c1

    Geometry (in Angstrom), charge = 0, multiplicity = 1:

       Center              X                  Y                   Z               Mass
    ------------   -----------------  -----------------  -----------------  -----------------
         O            1.778135592721     0.313796230966     0.000062903930    15.994914619570
         C           -0.464243407279     0.981724230966     0.000032903930    12.000000000000
         C            0.461411592721    -0.080094769034     0.000048903930    12.000000000000
         C           -1.823515407279     0.669297230966     0.000026903930    12.000000000000
         C            0.033269592721    -1.410496769034     0.000050903930    12.000000000000
         C            0.035987592721     2.398971230966     0.000036903930    12.000000000000
         C           -2.269189407279    -0.656400769034     0.000030903930    12.000000000000
         C           -1.337696407279    -1.690671769034     0.000042903930    12.000000000000
         C            2.758792592721    -0.718809769034     0.000062903930    12.000000000000
         H           -2.546937407279     1.483074230966     0.000014903930     1.007825032230
         H            0.743645592721    -2.230345769034     0.000060903930     1.007825032230
         H           -0.802559407279     3.100408230966    -0.000058096070     1.007825032230
         H            0.657217592721     2.595567230966     0.879006903930     1.007825032230
         H            0.657376592721     2.595514230966    -0.878831096070     1.007825032230
         H           -3.333847407279    -0.875126769034     0.000023903930     1.007825032230
         H           -1.667926407279    -2.726826769034     0.000044903930     1.007825032230
         H            2.694814192721    -1.340320669034    -0.899805196070     1.007825032230
         H            2.677402592721    -1.346083769034     0.894509903930     1.007825032230
         H            3.719982592721    -0.205449769034     0.000066903930     1.007825032230

  Basis Set: AUG-CC-PVTZ
    Blend: AUG-CC-PVTZ
  Basis Set: (AUG-CC-PVTZ AUX)
    Blend: AUG-CC-PVTZ-JKFIT
	 Reference Energy          =    -383.7529929800949162 [Eh]
	 Singles Energy            =      -0.0000000000000000 [Eh]
	 Same-Spin Energy          =      -0.4108557325327583 [Eh]
	 Opposite-Spin Energy      =      -1.3181755191073730 [Eh]
	 Correlation Energy        =      -1.7290312516401312 [Eh]
	 Total Energy              =    -385.4820242317350676 [Eh]

	 ================> DF-SCS-MP2 Energies <==================
	-----------------------------------------------------------
	 SCS Same-Spin Scale       =       0.3333333333333333 [-]
	 SCS Opposite-Spin Scale   =       1.2000000000000000 [-]
	 SCS Same-Spin Energy      =      -0.1369519108442527 [Eh]
	 SCS Opposite-Spin Energy  =      -1.5818106229288476 [Eh]
	 SCS Correlation Energy    =      -1.7187625337731003 [Eh]
	 SCS Total Energy          =    -385.4717555138680041 [Eh]
	-----------------------------------------------------------

  Dipole Moment: [D]
     X:     0.9852      Y:    -0.7371      Z:    -0.0042     Total:     1.2305

*** Psi4 exiting successfully. Buy a developer a beer!
