                               Psi4 1.4a3.dev225

  ==> Input File <==

--------------------------------------------------------------------------
#psi4
#
memory 32 gb

molecule  {
0 1
  O        1.7572910     0.3059760     0.0000180
  C       -0.4850880     0.9739040    -0.0000120
  C        0.4405670    -0.0879150     0.0000040
  C       -1.8443600     0.6614770    -0.0000180
  C        0.0124250    -1.4183170     0.0000060
  C        0.0151430     2.3911510    -0.0000080
  C       -2.2741012    -0.6168275    -0.0000141
  C       -1.3585410    -1.6984920    -0.0000020
  C        2.7379480    -0.7266300     0.0000180
  H       -2.5677820     1.4752540    -0.0000300
  H        0.7228010    -2.2381660     0.0000160
  H       -0.8234040     3.0925880    -0.0001030
  H        0.6363730     2.5877470     0.8789620
  H        0.6365320     2.5876940    -0.8788760
  H       -3.3546920    -0.8829470    -0.0000210
  H       -1.6887710    -2.7346470     0.0000000
  H        2.6565620    -1.3539010    -0.8944310
  H        2.6565580    -1.3539040     0.8944650
  H        3.6991380    -0.2132700     0.0000220
units angstrom
no_reorient  #important for SAPT in psi4, default
symmetry c1  #important for SAPT in psi4, default
}

set PROPERTIES_ORIGIN ["COM"]
properties('MP2/aug-cc-pvtz', properties = ['dipole'])
--------------------------------------------------------------------------

    Molecular point group: c1
  Charge       = 0
  Multiplicity = 1
  Basis Set: AUG-CC-PVTZ
    Blend: AUG-CC-PVTZ
  Basis Set: (AUG-CC-PVTZ AUX)
    Blend: AUG-CC-PVTZ-JKFIT

    Orbital Energies [Eh]
    ---------------------

    Doubly Occupied:

       1A    -20.583154     2A    -11.293715     3A    -11.284086
       4A    -11.237409     5A    -11.232952     6A    -11.231472
       7A    -11.226434     8A    -11.223915     9A    -11.215635
      10A     -1.403278    11A     -1.148163    12A     -1.042450
      13A     -1.014443    14A     -0.949434    15A     -0.918840
      16A     -0.812113    17A     -0.796686    18A     -0.709505
      19A     -0.667838    20A     -0.653199    21A     -0.641953
      22A     -0.615541    23A     -0.582778    24A     -0.568372
      25A     -0.564708    26A     -0.535807    27A     -0.523045
      28A     -0.508939    29A     -0.489659    30A     -0.477182
      31A     -0.466044    32A     -0.335628    33A     -0.302269

  @DF-RHF Final Energy:  -383.74957040887341

   => Energetics <=

    Nuclear Repulsion Energy =            430.6431967662595071
    One-Electron Energy =               -1374.2722424314083582
    Two-Electron Energy =                 559.8794752562754411
    Total Energy =                       -383.7495704088734101
  Basis Set: (AUG-CC-PVTZ AUX)
    Blend: AUG-CC-PVTZ-RI
    Molecular point group: c1

    Geometry (in Angstrom), charge = 0, multiplicity = 1:

       Center              X                  Y                   Z               Mass
    ------------   -----------------  -----------------  -----------------  -----------------
         O            1.776713086923     0.309184924073     0.000018174160    15.994914619570
         C           -0.465665913077     0.977112924073    -0.000011825840    12.000000000000
         C            0.459989086923    -0.084706075927     0.000004174160    12.000000000000
         C           -1.824937913077     0.664685924073    -0.000017825840    12.000000000000
         C            0.031847086923    -1.415108075927     0.000006174160    12.000000000000
         C            0.034565086923     2.394359924073    -0.000007825840    12.000000000000
         C           -2.254679113077    -0.613618575927    -0.000013925840    12.000000000000
         C           -1.339118913077    -1.695283075927    -0.000001825840    12.000000000000
         C            2.757370086923    -0.723421075927     0.000018174160    12.000000000000
         H           -2.548359913077     1.478462924073    -0.000029825840     1.007825032230
         H            0.742223086923    -2.234957075927     0.000016174160     1.007825032230
         H           -0.803981913077     3.095796924073    -0.000102825840     1.007825032230
         H            0.655795086923     2.590955924073     0.878962174160     1.007825032230
         H            0.655954086923     2.590902924073    -0.878875825840     1.007825032230
         H           -3.335269913077    -0.879738075927    -0.000020825840     1.007825032230
         H           -1.669348913077    -2.731438075927     0.000000174160     1.007825032230
         H            2.675984086923    -1.350692075927    -0.894430825840     1.007825032230
         H            2.675980086923    -1.350695075927     0.894465174160     1.007825032230
         H            3.718560086923    -0.210061075927     0.000022174160     1.007825032230

  Basis Set: AUG-CC-PVTZ
    Blend: AUG-CC-PVTZ
  Basis Set: (AUG-CC-PVTZ AUX)
    Blend: AUG-CC-PVTZ-JKFIT
	 Reference Energy          =    -383.7495704088734101 [Eh]
	 Singles Energy            =      -0.0000000000000000 [Eh]
	 Same-Spin Energy          =      -0.4110865328116812 [Eh]
	 Opposite-Spin Energy      =      -1.3183822524207700 [Eh]
	 Correlation Energy        =      -1.7294687852324513 [Eh]
	 Total Energy              =    -385.4790391941058374 [Eh]

	 ================> DF-SCS-MP2 Energies <==================
	-----------------------------------------------------------
	 SCS Same-Spin Scale       =       0.3333333333333333 [-]
	 SCS Opposite-Spin Scale   =       1.2000000000000000 [-]
	 SCS Same-Spin Energy      =      -0.1370288442705604 [Eh]
	 SCS Opposite-Spin Energy  =      -1.5820587029049240 [Eh]
	 SCS Correlation Energy    =      -1.7190875471754843 [Eh]
	 SCS Total Energy          =    -385.4686579560489008 [Eh]
	-----------------------------------------------------------

  Dipole Moment: [D]
     X:     0.9802      Y:    -0.7657      Z:     0.0000     Total:     1.2439

*** Psi4 exiting successfully. Buy a developer a beer!
