                               Psi4 1.4a3.dev225

  ==> Input File <==

--------------------------------------------------------------------------
#psi4
#
memory 32 gb

molecule  {
0 1
  O        1.7572910     0.3059760     0.0000180
  C       -0.4850880     0.9739040    -0.0000120
  C        0.4405670    -0.0879150     0.0000040
  C       -1.8443600     0.6614770    -0.0000180
  C        0.0124250    -1.4183170     0.0000060
  C        0.0151430     2.3911510    -0.0000080
  C       -2.2900340    -0.6642210    -0.0000140
  C       -1.3585410    -1.6984920    -0.0000020
  C        2.7379480    -0.7266300     0.0000180
  H       -2.5677820     1.4752540    -0.0000300
  H        0.7228010    -2.2381660     0.0000160
  H       -0.8234040     3.0925880    -0.0001030
  H        0.6363730     2.5877470     0.8789620
  H        0.6365320     2.5876940    -0.8788760
  H       -3.1587836    -0.8426991    -0.0000197
  H       -1.6887710    -2.7346470     0.0000000
  H        2.6565620    -1.3539010    -0.8944310
  H        2.6565580    -1.3539040     0.8944650
  H        3.6991380    -0.2132700     0.0000220
units angstrom
no_reorient  #important for SAPT in psi4, default
symmetry c1  #important for SAPT in psi4, default
}

set PROPERTIES_ORIGIN ["COM"]
properties('MP2/aug-cc-pvtz', properties = ['dipole'])
--------------------------------------------------------------------------

    Molecular point group: c1
  Charge       = 0
  Multiplicity = 1
  Basis Set: AUG-CC-PVTZ
    Blend: AUG-CC-PVTZ
  Basis Set: (AUG-CC-PVTZ AUX)
    Blend: AUG-CC-PVTZ-JKFIT

    Orbital Energies [Eh]
    ---------------------

    Doubly Occupied:

       1A    -20.583670     2A    -11.294699     3A    -11.283938
       4A    -11.233493     5A    -11.232808     6A    -11.230463
       7A    -11.229269     8A    -11.215402     9A    -11.200293
      10A     -1.403596    11A     -1.146246    12A     -1.046186
      13A     -1.015055    14A     -0.950339    15A     -0.922207
      16A     -0.818305    17A     -0.808983    18A     -0.709380
      19A     -0.676358    20A     -0.665032    21A     -0.653116
      22A     -0.613015    23A     -0.580380    24A     -0.567802
      25A     -0.564228    26A     -0.542928    27A     -0.524605
      28A     -0.508366    29A     -0.502682    30A     -0.474642
      31A     -0.463504    32A     -0.330224    33A     -0.304753

  @DF-RHF Final Energy:  -383.71823525154122

   => Energetics <=

    Nuclear Repulsion Energy =            431.2685529419214845
    One-Electron Energy =               -1375.3816408165157554
    Two-Electron Energy =                 560.3948526230531115
    Total Energy =                       -383.7182352515411594
  Basis Set: (AUG-CC-PVTZ AUX)
    Blend: AUG-CC-PVTZ-RI
    Molecular point group: c1

    Geometry (in Angstrom), charge = 0, multiplicity = 1:

       Center              X                  Y                   Z               Mass
    ------------   -----------------  -----------------  -----------------  -----------------
         O            1.776661906227     0.313511502802     0.000018153597    15.994914619570
         C           -0.465717093773     0.981439502802    -0.000011846403    12.000000000000
         C            0.459937906227    -0.080379497198     0.000004153597    12.000000000000
         C           -1.824989093773     0.669012502802    -0.000017846403    12.000000000000
         C            0.031795906227    -1.410781497198     0.000006153597    12.000000000000
         C            0.034513906227     2.398686502802    -0.000007846403    12.000000000000
         C           -2.270663093773    -0.656685497198    -0.000013846403    12.000000000000
         C           -1.339170093773    -1.690956497198    -0.000001846403    12.000000000000
         C            2.757318906227    -0.719094497198     0.000018153597    12.000000000000
         H           -2.548411093773     1.482789502802    -0.000029846403     1.007825032230
         H            0.742171906227    -2.230630497198     0.000016153597     1.007825032230
         H           -0.804033093773     3.100123502802    -0.000102846403     1.007825032230
         H            0.655743906227     2.595282502802     0.878962153597     1.007825032230
         H            0.655902906227     2.595229502802    -0.878875846403     1.007825032230
         H           -3.139412693773    -0.835163597198    -0.000019546403     1.007825032230
         H           -1.669400093773    -2.727111497198     0.000000153597     1.007825032230
         H            2.675932906227    -1.346365497198    -0.894430846403     1.007825032230
         H            2.675928906227    -1.346368497198     0.894465153597     1.007825032230
         H            3.718508906227    -0.205734497198     0.000022153597     1.007825032230

  Basis Set: AUG-CC-PVTZ
    Blend: AUG-CC-PVTZ
  Basis Set: (AUG-CC-PVTZ AUX)
    Blend: AUG-CC-PVTZ-JKFIT
	 Reference Energy          =    -383.7182352515412163 [Eh]
	 Singles Energy            =      -0.0000000000000000 [Eh]
	 Same-Spin Energy          =      -0.4107194684008584 [Eh]
	 Opposite-Spin Energy      =      -1.3176880934697275 [Eh]
	 Correlation Energy        =      -1.7284075618705859 [Eh]
	 Total Energy              =    -385.4466428134118132 [Eh]

	 ================> DF-SCS-MP2 Energies <==================
	-----------------------------------------------------------
	 SCS Same-Spin Scale       =       0.3333333333333333 [-]
	 SCS Opposite-Spin Scale   =       1.2000000000000000 [-]
	 SCS Same-Spin Energy      =      -0.1369064894669528 [Eh]
	 SCS Opposite-Spin Energy  =      -1.5812257121636730 [Eh]
	 SCS Correlation Energy    =      -1.7181322016306257 [Eh]
	 SCS Total Energy          =    -385.4363674531718402 [Eh]
	-----------------------------------------------------------

  Dipole Moment: [D]
     X:     0.9298      Y:    -0.7539      Z:     0.0000     Total:     1.1970

*** Psi4 exiting successfully. Buy a developer a beer!
