                               Psi4 1.4a3.dev225

  ==> Input File <==

--------------------------------------------------------------------------
#psi4
#
memory 32 gb

molecule  {
0 1
  O        1.7572910     0.3059760     0.0000180
  C       -0.4850880     0.9739040    -0.0000120
  C        0.4405670    -0.0879150     0.0000040
  C       -1.8443600     0.6614770    -0.0000180
  C        0.0124250    -1.4183170     0.0000060
  C        0.0151430     2.3911510    -0.0000080
  C       -2.2434963    -0.6789672    -0.0000135
  C       -1.3585410    -1.6984920    -0.0000020
  C        2.7379480    -0.7266300     0.0000180
  H       -2.5677820     1.4752540    -0.0000300
  H        0.7228010    -2.2381660     0.0000160
  H       -0.8234040     3.0925880    -0.0001030
  H        0.6363730     2.5877470     0.8789620
  H        0.6365320     2.5876940    -0.8788760
  H       -3.3546920    -0.8829470    -0.0000210
  H       -1.6887710    -2.7346470     0.0000000
  H        2.6565620    -1.3539010    -0.8944310
  H        2.6565580    -1.3539040     0.8944650
  H        3.6991380    -0.2132700     0.0000220
units angstrom
no_reorient  #important for SAPT in psi4, default
symmetry c1  #important for SAPT in psi4, default
}

set PROPERTIES_ORIGIN ["COM"]
properties('MP2/aug-cc-pvtz', properties = ['dipole'])
--------------------------------------------------------------------------

    Molecular point group: c1
  Charge       = 0
  Multiplicity = 1
  Basis Set: AUG-CC-PVTZ
    Blend: AUG-CC-PVTZ
  Basis Set: (AUG-CC-PVTZ AUX)
    Blend: AUG-CC-PVTZ-JKFIT

    Orbital Energies [Eh]
    ---------------------

    Doubly Occupied:

       1A    -20.583473     2A    -11.294293     3A    -11.283908
       4A    -11.234549     5A    -11.231603     6A    -11.230098
       7A    -11.228823     8A    -11.223370     9A    -11.216224
      10A     -1.403481    11A     -1.149509    12A     -1.048204
      13A     -1.008103    14A     -0.947692    15A     -0.924012
      16A     -0.814815    17A     -0.792555    18A     -0.710097
      19A     -0.668706    20A     -0.653187    21A     -0.639267
      22A     -0.614683    23A     -0.583927    24A     -0.568766
      25A     -0.563391    26A     -0.540430    27A     -0.519394
      28A     -0.509638    29A     -0.491143    30A     -0.475470
      31A     -0.467525    32A     -0.330340    33A     -0.308535

  @DF-RHF Final Energy:  -383.75027204058216

   => Energetics <=

    Nuclear Repulsion Energy =            430.9217230531976384
    One-Electron Energy =               -1374.8255694398699234
    Two-Electron Energy =                 560.1535743460901813
    Total Energy =                       -383.7502720405821037
  Basis Set: (AUG-CC-PVTZ AUX)
    Blend: AUG-CC-PVTZ-RI
    Molecular point group: c1

    Geometry (in Angstrom), charge = 0, multiplicity = 1:

       Center              X                  Y                   Z               Mass
    ------------   -----------------  -----------------  -----------------  -----------------
         O            1.773704573134     0.315293362404     0.000018115179    15.994914619570
         C           -0.468674426866     0.983221362404    -0.000011884821    12.000000000000
         C            0.456980573134    -0.078597637596     0.000004115179    12.000000000000
         C           -1.827946426866     0.670794362404    -0.000017884821    12.000000000000
         C            0.028838573134    -1.408999637596     0.000006115179    12.000000000000
         C            0.031556573134     2.400468362404    -0.000007884821    12.000000000000
         C           -2.227082726866    -0.669649837596    -0.000013384821    12.000000000000
         C           -1.342127426866    -1.689174637596    -0.000001884821    12.000000000000
         C            2.754361573134    -0.717312637596     0.000018115179    12.000000000000
         H           -2.551368426866     1.484571362404    -0.000029884821     1.007825032230
         H            0.739214573134    -2.228848637596     0.000016115179     1.007825032230
         H           -0.806990426866     3.101905362404    -0.000102884821     1.007825032230
         H            0.652786573134     2.597064362404     0.878962115179     1.007825032230
         H            0.652945573134     2.597011362404    -0.878875884821     1.007825032230
         H           -3.338278426866    -0.873629637596    -0.000020884821     1.007825032230
         H           -1.672357426866    -2.725329637596     0.000000115179     1.007825032230
         H            2.672975573134    -1.344583637596    -0.894430884821     1.007825032230
         H            2.672971573134    -1.344586637596     0.894465115179     1.007825032230
         H            3.715551573134    -0.203952637596     0.000022115179     1.007825032230

  Basis Set: AUG-CC-PVTZ
    Blend: AUG-CC-PVTZ
  Basis Set: (AUG-CC-PVTZ AUX)
    Blend: AUG-CC-PVTZ-JKFIT
	 Reference Energy          =    -383.7502720405821606 [Eh]
	 Singles Energy            =      -0.0000000000000000 [Eh]
	 Same-Spin Energy          =      -0.4108537616347339 [Eh]
	 Opposite-Spin Energy      =      -1.3180375366647068 [Eh]
	 Correlation Energy        =      -1.7288912982994407 [Eh]
	 Total Energy              =    -385.4791633388816194 [Eh]

	 ================> DF-SCS-MP2 Energies <==================
	-----------------------------------------------------------
	 SCS Same-Spin Scale       =       0.3333333333333333 [-]
	 SCS Opposite-Spin Scale   =       1.2000000000000000 [-]
	 SCS Same-Spin Energy      =      -0.1369512538782446 [Eh]
	 SCS Opposite-Spin Energy  =      -1.5816450439976482 [Eh]
	 SCS Correlation Energy    =      -1.7185962978758929 [Eh]
	 SCS Total Energy          =    -385.4688683384580372 [Eh]
	-----------------------------------------------------------

  Dipole Moment: [D]
     X:     0.9819      Y:    -0.7173      Z:     0.0000     Total:     1.2160

*** Psi4 exiting successfully. Buy a developer a beer!
