                               Psi4 1.4a3.dev225

  ==> Input File <==

--------------------------------------------------------------------------
#psi4
#
memory 32 gb

molecule  {
0 1
  O        1.7572910     0.3059760     0.0000180
  C       -0.4850880     0.9739040    -0.0000120
  C        0.4405670    -0.0879150     0.0000040
  C       -1.8443600     0.6614770    -0.0000180
  C        0.0124250    -1.4183170     0.0000060
  C        0.0151430     2.3911510    -0.0000080
  C       -2.2900340    -0.6642210    -0.0000140
  C       -1.3803170    -1.5536522    -0.0000030
  C        2.7379480    -0.7266300     0.0000180
  H       -2.5677820     1.4752540    -0.0000300
  H        0.7228010    -2.2381660     0.0000160
  H       -0.8234040     3.0925880    -0.0001030
  H        0.6363730     2.5877470     0.8789620
  H        0.6365320     2.5876940    -0.8788760
  H       -3.3546920    -0.8829470    -0.0000210
  H       -1.6887710    -2.7346470     0.0000000
  H        2.6565620    -1.3539010    -0.8944310
  H        2.6565580    -1.3539040     0.8944650
  H        3.6991380    -0.2132700     0.0000220
units angstrom
no_reorient  #important for SAPT in psi4, default
symmetry c1  #important for SAPT in psi4, default
}

set PROPERTIES_ORIGIN ["COM"]
properties('MP2/aug-cc-pvtz', properties = ['dipole'])
--------------------------------------------------------------------------

    Molecular point group: c1
  Charge       = 0
  Multiplicity = 1
  Basis Set: AUG-CC-PVTZ
    Blend: AUG-CC-PVTZ
  Basis Set: (AUG-CC-PVTZ AUX)
    Blend: AUG-CC-PVTZ-JKFIT

    Orbital Energies [Eh]
    ---------------------

    Doubly Occupied:

       1A    -20.584309     2A    -11.296292     3A    -11.285039
       4A    -11.233524     5A    -11.232285     6A    -11.231442
       7A    -11.228859     8A    -11.216047     9A    -11.209949
      10A     -1.404568    11A     -1.160398    12A     -1.051146
      13A     -1.015511    14A     -0.950163    15A     -0.921789
      16A     -0.819544    17A     -0.789670    18A     -0.701495
      19A     -0.673324    20A     -0.654060    21A     -0.653106
      22A     -0.613312    23A     -0.585831    24A     -0.569307
      25A     -0.546278    26A     -0.541960    27A     -0.518937
      28A     -0.512689    29A     -0.504741    30A     -0.475365
      31A     -0.452010    32A     -0.327678    33A     -0.318270

  @DF-RHF Final Energy:  -383.72541250429839

   => Energetics <=

    Nuclear Repulsion Energy =            432.5301536097661028
    One-Electron Energy =               -1377.9533389396945040
    Two-Electron Energy =                 561.6977728256299542
    Total Energy =                       -383.7254125042984469
  Basis Set: (AUG-CC-PVTZ AUX)
    Blend: AUG-CC-PVTZ-RI
    Molecular point group: c1

    Geometry (in Angstrom), charge = 0, multiplicity = 1:

       Center              X                  Y                   Z               Mass
    ------------   -----------------  -----------------  -----------------  -----------------
         O            1.780419926180     0.299605786835     0.000018262631    15.994914619570
         C           -0.461959073820     0.967533786835    -0.000011737369    12.000000000000
         C            0.463695926180    -0.094285213165     0.000004262631    12.000000000000
         C           -1.821231073820     0.655106786835    -0.000017737369    12.000000000000
         C            0.035553926180    -1.424687213165     0.000006262631    12.000000000000
         C            0.038271926180     2.384780786835    -0.000007737369    12.000000000000
         C           -2.266905073820    -0.670591213165    -0.000013737369    12.000000000000
         C           -1.357188073820    -1.560022413165    -0.000002737369    12.000000000000
         C            2.761076926180    -0.733000213165     0.000018262631    12.000000000000
         H           -2.544653073820     1.468883786835    -0.000029737369     1.007825032230
         H            0.745929926180    -2.244536213165     0.000016262631     1.007825032230
         H           -0.800275073820     3.086217786835    -0.000102737369     1.007825032230
         H            0.659501926180     2.581376786835     0.878962262631     1.007825032230
         H            0.659660926180     2.581323786835    -0.878875737369     1.007825032230
         H           -3.331563073820    -0.889317213165    -0.000020737369     1.007825032230
         H           -1.665642073820    -2.741017213165     0.000000262631     1.007825032230
         H            2.679690926180    -1.360271213165    -0.894430737369     1.007825032230
         H            2.679686926180    -1.360274213165     0.894465262631     1.007825032230
         H            3.722266926180    -0.219640213165     0.000022262631     1.007825032230

  Basis Set: AUG-CC-PVTZ
    Blend: AUG-CC-PVTZ
  Basis Set: (AUG-CC-PVTZ AUX)
    Blend: AUG-CC-PVTZ-JKFIT
	 Reference Energy          =    -383.7254125042983901 [Eh]
	 Singles Energy            =      -0.0000000000000000 [Eh]
	 Same-Spin Energy          =      -0.4108916030314521 [Eh]
	 Opposite-Spin Energy      =      -1.3185995592508268 [Eh]
	 Correlation Energy        =      -1.7294911622822788 [Eh]
	 Total Energy              =    -385.4549036665806625 [Eh]

	 ================> DF-SCS-MP2 Energies <==================
	-----------------------------------------------------------
	 SCS Same-Spin Scale       =       0.3333333333333333 [-]
	 SCS Opposite-Spin Scale   =       1.2000000000000000 [-]
	 SCS Same-Spin Energy      =      -0.1369638676771507 [Eh]
	 SCS Opposite-Spin Energy  =      -1.5823194711009922 [Eh]
	 SCS Correlation Energy    =      -1.7192833387781430 [Eh]
	 SCS Total Energy          =    -385.4446958430765449 [Eh]
	-----------------------------------------------------------

  Dipole Moment: [D]
     X:     1.0114      Y:    -0.6108      Z:     0.0000     Total:     1.1815

*** Psi4 exiting successfully. Buy a developer a beer!
