                               Psi4 1.4a3.dev225

  ==> Input File <==

--------------------------------------------------------------------------
#psi4
#
memory 32 gb

molecule  {
0 1
  O        1.7572910     0.3059760     0.0000180
  C       -0.4850880     0.9739040    -0.0000120
  C        0.4405670    -0.0879150     0.0000040
  C       -1.8443600     0.6614770    -0.0000180
  C        0.0124250    -1.4183170     0.0000060
  C        0.0151430     2.3911510    -0.0000080
  C       -2.2900340    -0.6642210    -0.0000140
  C       -1.3585410    -1.6984920    -0.0000020
  C        2.7379480    -0.7266300     0.0000180
  H       -2.5677820     1.4752540    -0.0000300
  H        0.7228010    -2.2381660     0.0000160
  H       -0.8234040     3.0925880    -0.0001030
  H        0.6363730     2.5877470     0.8789620
  H        0.6365320     2.5876940    -0.8788760
  H       -3.3546920    -0.8829470    -0.0000210
  H       -1.6887710    -2.7346470     0.0000000
  H        2.6565620    -1.3539010    -0.8944310
  H        2.6565580    -1.3539040     0.8944650
  H        3.7167795    -0.2038479     0.0000221
units angstrom
no_reorient  #important for SAPT in psi4, default
symmetry c1  #important for SAPT in psi4, default
}

set PROPERTIES_ORIGIN ["COM"]
properties('MP2/aug-cc-pvtz', properties = ['dipole'])
--------------------------------------------------------------------------

    Molecular point group: c1
  Charge       = 0
  Multiplicity = 1
  Basis Set: AUG-CC-PVTZ
    Blend: AUG-CC-PVTZ
  Basis Set: (AUG-CC-PVTZ AUX)
    Blend: AUG-CC-PVTZ-JKFIT

    Orbital Energies [Eh]
    ---------------------

    Doubly Occupied:

       1A    -20.584209     2A    -11.295247     3A    -11.286642
       4A    -11.234856     5A    -11.234037     6A    -11.231907
       7A    -11.230484     8A    -11.224569     9A    -11.216100
      10A     -1.404097    11A     -1.145436    12A     -1.044711
      13A     -1.008978    14A     -0.947204    15A     -0.920853
      16A     -0.812301    17A     -0.797006    18A     -0.709060
      19A     -0.666342    20A     -0.653712    21A     -0.646291
      22A     -0.612652    23A     -0.580031    24A     -0.568482
      25A     -0.563111    26A     -0.538951    27A     -0.520657
      28A     -0.509063    29A     -0.496440    30A     -0.475271
      31A     -0.464421    32A     -0.331243    33A     -0.305340

  @DF-RHF Final Energy:  -383.75247464994141

   => Energetics <=

    Nuclear Repulsion Energy =            430.0105783142428777
    One-Electron Energy =               -1373.0067046006772671
    Two-Electron Energy =                 559.2436516364930412
    Total Energy =                       -383.7524746499414050
  Basis Set: (AUG-CC-PVTZ AUX)
    Blend: AUG-CC-PVTZ-RI
    Molecular point group: c1

    Geometry (in Angstrom), charge = 0, multiplicity = 1:

       Center              X                  Y                   Z               Mass
    ------------   -----------------  -----------------  -----------------  -----------------
         O            1.778133661664     0.313765997825     0.000018163504    15.994914619570
         C           -0.464245338336     0.981693997825    -0.000011836496    12.000000000000
         C            0.461409661664    -0.080125002175     0.000004163504    12.000000000000
         C           -1.823517338336     0.669266997825    -0.000017836496    12.000000000000
         C            0.033267661664    -1.410527002175     0.000006163504    12.000000000000
         C            0.035985661664     2.398940997825    -0.000007836496    12.000000000000
         C           -2.269191338336    -0.656431002175    -0.000013836496    12.000000000000
         C           -1.337698338336    -1.690702002175    -0.000001836496    12.000000000000
         C            2.758790661664    -0.718840002175     0.000018163504    12.000000000000
         H           -2.546939338336     1.483043997825    -0.000029836496     1.007825032230
         H            0.743643661664    -2.230376002175     0.000016163504     1.007825032230
         H           -0.802561338336     3.100377997825    -0.000102836496     1.007825032230
         H            0.657215661664     2.595536997825     0.878962163504     1.007825032230
         H            0.657374661664     2.595483997825    -0.878875836496     1.007825032230
         H           -3.333849338336    -0.875157002175    -0.000020836496     1.007825032230
         H           -1.667928338336    -2.726857002175     0.000000163504     1.007825032230
         H            2.677404661664    -1.346111002175    -0.894430836496     1.007825032230
         H            2.677400661664    -1.346114002175     0.894465163504     1.007825032230
         H            3.737622161664    -0.196057902175     0.000022263504     1.007825032230

  Basis Set: AUG-CC-PVTZ
    Blend: AUG-CC-PVTZ
  Basis Set: (AUG-CC-PVTZ AUX)
    Blend: AUG-CC-PVTZ-JKFIT
	 Reference Energy          =    -383.7524746499414050 [Eh]
	 Singles Energy            =      -0.0000000000000000 [Eh]
	 Same-Spin Energy          =      -0.4108729978445728 [Eh]
	 Opposite-Spin Energy      =      -1.3183301945749331 [Eh]
	 Correlation Energy        =      -1.7292031924195057 [Eh]
	 Total Energy              =    -385.4816778423609094 [Eh]

	 ================> DF-SCS-MP2 Energies <==================
	-----------------------------------------------------------
	 SCS Same-Spin Scale       =       0.3333333333333333 [-]
	 SCS Opposite-Spin Scale   =       1.2000000000000000 [-]
	 SCS Same-Spin Energy      =      -0.1369576659481909 [Eh]
	 SCS Opposite-Spin Energy  =      -1.5819962334899196 [Eh]
	 SCS Correlation Energy    =      -1.7189538994381104 [Eh]
	 SCS Total Energy          =    -385.4714285493795387 [Eh]
	-----------------------------------------------------------

  Dipole Moment: [D]
     X:     0.9685      Y:    -0.7365      Z:     0.0000     Total:     1.2167

*** Psi4 exiting successfully. Buy a developer a beer!
