                               Psi4 1.4a3.dev225

  ==> Input File <==

--------------------------------------------------------------------------
#psi4
#
memory 32 gb

molecule  {
0 1
  O        1.7572910     0.3059760     0.0000180
  C       -0.4850880     0.9739040    -0.0000120
  C        0.4338932    -0.0648750     0.0000041
  C       -1.8443600     0.6614770    -0.0000180
  C        0.0124250    -1.4183170     0.0000060
  C        0.0151430     2.3911510    -0.0000080
  C       -2.2900340    -0.6642210    -0.0000140
  C       -1.3585410    -1.6984920    -0.0000020
  C        2.7379480    -0.7266300     0.0000180
  H       -2.5677820     1.4752540    -0.0000300
  H        0.7228010    -2.2381660     0.0000160
  H       -0.8234040     3.0925880    -0.0001030
  H        0.6363730     2.5877470     0.8789620
  H        0.6365320     2.5876940    -0.8788760
  H       -3.3546920    -0.8829470    -0.0000210
  H       -1.6887710    -2.7346470     0.0000000
  H        2.6565620    -1.3539010    -0.8944310
  H        2.6565580    -1.3539040     0.8944650
  H        3.6991380    -0.2132700     0.0000220
units angstrom
no_reorient  #important for SAPT in psi4, default
symmetry c1  #important for SAPT in psi4, default
}

set PROPERTIES_ORIGIN ["COM"]
properties('MP2/aug-cc-pvtz', properties = ['dipole'])
--------------------------------------------------------------------------

    Molecular point group: c1
  Charge       = 0
  Multiplicity = 1
  Basis Set: AUG-CC-PVTZ
    Blend: AUG-CC-PVTZ
  Basis Set: (AUG-CC-PVTZ AUX)
    Blend: AUG-CC-PVTZ-JKFIT

    Orbital Energies [Eh]
    ---------------------

    Doubly Occupied:

       1A    -20.582825     2A    -11.295025     3A    -11.284579
       4A    -11.234976     5A    -11.233052     6A    -11.232381
       7A    -11.230898     8A    -11.224487     9A    -11.215727
      10A     -1.402873    11A     -1.146149    12A     -1.046186
      13A     -1.007293    14A     -0.948135    15A     -0.921023
      16A     -0.815860    17A     -0.795169    18A     -0.708147
      19A     -0.667350    20A     -0.652987    21A     -0.646517
      22A     -0.612480    23A     -0.582764    24A     -0.568933
      25A     -0.563446    26A     -0.538267    27A     -0.521351
      28A     -0.508443    29A     -0.498640    30A     -0.473334
      31A     -0.464107    32A     -0.330063    33A     -0.306342

  @DF-RHF Final Energy:  -383.75243907597286

   => Energetics <=

    Nuclear Repulsion Energy =            430.1614385696822183
    One-Electron Energy =               -1373.3081375988660966
    Two-Electron Energy =                 559.3942599532109625
    Total Energy =                       -383.7524390759729158
  Basis Set: (AUG-CC-PVTZ AUX)
    Blend: AUG-CC-PVTZ-RI
    Molecular point group: c1

    Geometry (in Angstrom), charge = 0, multiplicity = 1:

       Center              X                  Y                   Z               Mass
    ------------   -----------------  -----------------  -----------------  -----------------
         O            1.778935354201     0.311578914596     0.000018154499    15.994914619570
         C           -0.463443645799     0.979506914596    -0.000011845501    12.000000000000
         C            0.455537554201    -0.059272085404     0.000004254499    12.000000000000
         C           -1.822715645799     0.667079914596    -0.000017845501    12.000000000000
         C            0.034069354201    -1.412714085404     0.000006154499    12.000000000000
         C            0.036787354201     2.396753914596    -0.000007845501    12.000000000000
         C           -2.268389645799    -0.658618085404    -0.000013845501    12.000000000000
         C           -1.336896645799    -1.692889085404    -0.000001845501    12.000000000000
         C            2.759592354201    -0.721027085404     0.000018154499    12.000000000000
         H           -2.546137645799     1.480856914596    -0.000029845501     1.007825032230
         H            0.744445354201    -2.232563085404     0.000016154499     1.007825032230
         H           -0.801759645799     3.098190914596    -0.000102845501     1.007825032230
         H            0.658017354201     2.593349914596     0.878962154499     1.007825032230
         H            0.658176354201     2.593296914596    -0.878875845501     1.007825032230
         H           -3.333047645799    -0.877344085404    -0.000020845501     1.007825032230
         H           -1.667126645799    -2.729044085404     0.000000154499     1.007825032230
         H            2.678206354201    -1.348298085404    -0.894430845501     1.007825032230
         H            2.678202354201    -1.348301085404     0.894465154499     1.007825032230
         H            3.720782354201    -0.207667085404     0.000022154499     1.007825032230

  Basis Set: AUG-CC-PVTZ
    Blend: AUG-CC-PVTZ
  Basis Set: (AUG-CC-PVTZ AUX)
    Blend: AUG-CC-PVTZ-JKFIT
	 Reference Energy          =    -383.7524390759728590 [Eh]
	 Singles Energy            =      -0.0000000000000000 [Eh]
	 Same-Spin Energy          =      -0.4108703901097798 [Eh]
	 Opposite-Spin Energy      =      -1.3180912546078583 [Eh]
	 Correlation Energy        =      -1.7289616447176379 [Eh]
	 Total Energy              =    -385.4814007206904876 [Eh]

	 ================> DF-SCS-MP2 Energies <==================
	-----------------------------------------------------------
	 SCS Same-Spin Scale       =       0.3333333333333333 [-]
	 SCS Opposite-Spin Scale   =       1.2000000000000000 [-]
	 SCS Same-Spin Energy      =      -0.1369567967032599 [Eh]
	 SCS Opposite-Spin Energy  =      -1.5817095055294299 [Eh]
	 SCS Correlation Energy    =      -1.7186663022326898 [Eh]
	 SCS Total Energy          =    -385.4711053782055501 [Eh]
	-----------------------------------------------------------

  Dipole Moment: [D]
     X:     0.9704      Y:    -0.7411      Z:     0.0000     Total:     1.2210

*** Psi4 exiting successfully. Buy a developer a beer!
