                               Psi4 1.4a3.dev225

  ==> Input File <==

--------------------------------------------------------------------------
#psi4
#
memory 32 gb

molecule  {
0 1
  O        1.7815600     0.2131665     0.0000188
  C       -0.4850880     0.9739040    -0.0000120
  C        0.4405670    -0.0879150     0.0000040
  C       -1.8443600     0.6614770    -0.0000180
  C        0.0124250    -1.4183170     0.0000060
  C        0.0151430     2.3911510    -0.0000080
  C       -2.2900340    -0.6642210    -0.0000140
  C       -1.3585410    -1.6984920    -0.0000020
  C        2.7379480    -0.7266300     0.0000180
  H       -2.5677820     1.4752540    -0.0000300
  H        0.7228010    -2.2381660     0.0000160
  H       -0.8234040     3.0925880    -0.0001030
  H        0.6363730     2.5877470     0.8789620
  H        0.6365320     2.5876940    -0.8788760
  H       -3.3546920    -0.8829470    -0.0000210
  H       -1.6887710    -2.7346470     0.0000000
  H        2.6565620    -1.3539010    -0.8944310
  H        2.6565580    -1.3539040     0.8944650
  H        3.6991380    -0.2132700     0.0000220
units angstrom
no_reorient  #important for SAPT in psi4, default
symmetry c1  #important for SAPT in psi4, default
}

set PROPERTIES_ORIGIN ["COM"]
properties('MP2/aug-cc-pvtz', properties = ['dipole'])
--------------------------------------------------------------------------

    Molecular point group: c1
  Charge       = 0
  Multiplicity = 1
  Basis Set: AUG-CC-PVTZ
    Blend: AUG-CC-PVTZ
  Basis Set: (AUG-CC-PVTZ AUX)
    Blend: AUG-CC-PVTZ-JKFIT

    Orbital Energies [Eh]
    ---------------------

    Doubly Occupied:

       1A    -20.578171     2A    -11.299100     3A    -11.276167
       4A    -11.238230     5A    -11.235492     6A    -11.234500
       7A    -11.230266     8A    -11.226369     9A    -11.218711
      10A     -1.425820    11A     -1.149601    12A     -1.047110
      13A     -1.017058    14A     -0.949635    15A     -0.919755
      16A     -0.814293    17A     -0.799740    18A     -0.715977
      19A     -0.673855    20A     -0.666922    21A     -0.651755
      22A     -0.615872    23A     -0.594549    24A     -0.570335
      25A     -0.566072    26A     -0.540343    27A     -0.514101
      28A     -0.504015    29A     -0.499947    30A     -0.468824
      31A     -0.459133    32A     -0.332388    33A     -0.307186

  @DF-RHF Final Energy:  -383.75034233626479

   => Energetics <=

    Nuclear Repulsion Energy =            431.0064463147339779
    One-Electron Energy =               -1374.8309896199830291
    Two-Electron Energy =                 560.0742009689843144
    Total Energy =                       -383.7503423362647936
  Basis Set: (AUG-CC-PVTZ AUX)
    Blend: AUG-CC-PVTZ-RI
    Molecular point group: c1

    Geometry (in Angstrom), charge = 0, multiplicity = 1:

       Center              X                  Y                   Z               Mass
    ------------   -----------------  -----------------  -----------------  -----------------
         O            1.799368407266     0.233194862066     0.000018859508    15.994914619570
         C           -0.467279592734     0.993932362066    -0.000011940492    12.000000000000
         C            0.458375407266    -0.067886637934     0.000004059508    12.000000000000
         C           -1.826551592734     0.681505362066    -0.000017940492    12.000000000000
         C            0.030233407266    -1.398288637934     0.000006059508    12.000000000000
         C            0.032951407266     2.411179362066    -0.000007940492    12.000000000000
         C           -2.272225592734    -0.644192637934    -0.000013940492    12.000000000000
         C           -1.340732592734    -1.678463637934    -0.000001940492    12.000000000000
         C            2.755756407266    -0.706601637934     0.000018059508    12.000000000000
         H           -2.549973592734     1.495282362066    -0.000029940492     1.007825032230
         H            0.740609407266    -2.218137637934     0.000016059508     1.007825032230
         H           -0.805595592734     3.112616362066    -0.000102940492     1.007825032230
         H            0.654181407266     2.607775362066     0.878962059508     1.007825032230
         H            0.654340407266     2.607722362066    -0.878875940492     1.007825032230
         H           -3.336883592734    -0.862918637934    -0.000020940492     1.007825032230
         H           -1.670962592734    -2.714618637934     0.000000059508     1.007825032230
         H            2.674370407266    -1.333872637934    -0.894430940492     1.007825032230
         H            2.674366407266    -1.333875637934     0.894465059508     1.007825032230
         H            3.716946407266    -0.193241637934     0.000022059508     1.007825032230

  Basis Set: AUG-CC-PVTZ
    Blend: AUG-CC-PVTZ
  Basis Set: (AUG-CC-PVTZ AUX)
    Blend: AUG-CC-PVTZ-JKFIT
	 Reference Energy          =    -383.7503423362647936 [Eh]
	 Singles Energy            =      -0.0000000000000000 [Eh]
	 Same-Spin Energy          =      -0.4102931510580305 [Eh]
	 Opposite-Spin Energy      =      -1.3157129331810871 [Eh]
	 Correlation Energy        =      -1.7260060842391176 [Eh]
	 Total Energy              =    -385.4763484205039390 [Eh]

	 ================> DF-SCS-MP2 Energies <==================
	-----------------------------------------------------------
	 SCS Same-Spin Scale       =       0.3333333333333333 [-]
	 SCS Opposite-Spin Scale   =       1.2000000000000000 [-]
	 SCS Same-Spin Energy      =      -0.1367643836860102 [Eh]
	 SCS Opposite-Spin Energy  =      -1.5788555198173044 [Eh]
	 SCS Correlation Energy    =      -1.7156199035033146 [Eh]
	 SCS Total Energy          =    -385.4659622397680891 [Eh]
	-----------------------------------------------------------

  Dipole Moment: [D]
     X:     0.7124      Y:    -0.4924      Z:     0.0000     Total:     0.8661

*** Psi4 exiting successfully. Buy a developer a beer!
