                               Psi4 1.4a3.dev225

  ==> Input File <==

--------------------------------------------------------------------------
#psi4
#
memory 32 gb

molecule  {
0 1
  O        1.7572910     0.3059760     0.0000180
  C       -0.4850880     0.9739040    -0.0000120
  C        0.4405670    -0.0879150     0.0000040
  C       -1.8443600     0.6614770    -0.0000180
  C        0.0124250    -1.4183170     0.0000060
  C        0.0151430     2.3911510    -0.0000080
  C       -2.2900340    -0.6642210    -0.0000140
  C       -1.3585410    -1.6984920    -0.0000020
  C        2.7379480    -0.7266300     0.0000180
  H       -2.5677820     1.4752540    -0.0000300
  H        0.7228010    -2.2381660     0.0000160
  H       -0.8234040     3.0925880    -0.0001030
  H        0.6363730     2.5877470     0.8789620
  H        0.6365320     2.5876940    -0.8788760
  H       -3.3057149    -0.8728850    -0.0000207
  H       -1.6887710    -2.7346470     0.0000000
  H        2.6565620    -1.3539010    -0.8944310
  H        2.6565580    -1.3539040     0.8944650
  H        3.6991380    -0.2132700     0.0000220
units angstrom
no_reorient  #important for SAPT in psi4, default
symmetry c1  #important for SAPT in psi4, default
}

set PROPERTIES_ORIGIN ["COM"]
properties('MP2/aug-cc-pvtz', properties = ['dipole'])
--------------------------------------------------------------------------

    Molecular point group: c1
  Charge       = 0
  Multiplicity = 1
  Basis Set: AUG-CC-PVTZ
    Blend: AUG-CC-PVTZ
  Basis Set: (AUG-CC-PVTZ AUX)
    Blend: AUG-CC-PVTZ-JKFIT

    Orbital Energies [Eh]
    ---------------------

    Doubly Occupied:

       1A    -20.583861     2A    -11.294928     3A    -11.284145
       4A    -11.234317     5A    -11.233585     6A    -11.231355
       7A    -11.230022     8A    -11.218498     9A    -11.215844
      10A     -1.403813    11A     -1.145371    12A     -1.044770
      13A     -1.010207    14A     -0.948697    15A     -0.921186
      16A     -0.812667    17A     -0.800114    18A     -0.708953
      19A     -0.666963    20A     -0.653355    21A     -0.652993
      22A     -0.613365    23A     -0.580838    24A     -0.568208
      25A     -0.563522    26A     -0.539839    27A     -0.522750
      28A     -0.508726    29A     -0.498698    30A     -0.475122
      31A     -0.464019    32A     -0.330853    33A     -0.305022

  @DF-RHF Final Energy:  -383.75222874820867

   => Energetics <=

    Nuclear Repulsion Energy =            430.3669325398064984
    One-Electron Energy =               -1373.7051148724792711
    Two-Electron Energy =                 559.5859535844641641
    Total Energy =                       -383.7522287482086085
  Basis Set: (AUG-CC-PVTZ AUX)
    Blend: AUG-CC-PVTZ-RI
    Molecular point group: c1

    Geometry (in Angstrom), charge = 0, multiplicity = 1:

       Center              X                  Y                   Z               Mass
    ------------   -----------------  -----------------  -----------------  -----------------
         O            1.777874957779     0.313760714868     0.000018161853    15.994914619570
         C           -0.464504042221     0.981688714868    -0.000011838147    12.000000000000
         C            0.461150957779    -0.080130285132     0.000004161853    12.000000000000
         C           -1.823776042221     0.669261714868    -0.000017838147    12.000000000000
         C            0.033008957779    -1.410532285132     0.000006161853    12.000000000000
         C            0.035726957779     2.398935714868    -0.000007838147    12.000000000000
         C           -2.269450042221    -0.656436285132    -0.000013838147    12.000000000000
         C           -1.337957042221    -1.690707285132    -0.000001838147    12.000000000000
         C            2.758531957779    -0.718845285132     0.000018161853    12.000000000000
         H           -2.547198042221     1.483038714868    -0.000029838147     1.007825032230
         H            0.743384957779    -2.230381285132     0.000016161853     1.007825032230
         H           -0.802820042221     3.100372714868    -0.000102838147     1.007825032230
         H            0.656956957779     2.595531714868     0.878962161853     1.007825032230
         H            0.657115957779     2.595478714868    -0.878875838147     1.007825032230
         H           -3.285130942221    -0.865100285132    -0.000020538147     1.007825032230
         H           -1.668187042221    -2.726862285132     0.000000161853     1.007825032230
         H            2.677145957779    -1.346116285132    -0.894430838147     1.007825032230
         H            2.677141957779    -1.346119285132     0.894465161853     1.007825032230
         H            3.719721957779    -0.205485285132     0.000022161853     1.007825032230

  Basis Set: AUG-CC-PVTZ
    Blend: AUG-CC-PVTZ
  Basis Set: (AUG-CC-PVTZ AUX)
    Blend: AUG-CC-PVTZ-JKFIT
	 Reference Energy          =    -383.7522287482086654 [Eh]
	 Singles Energy            =      -0.0000000000000000 [Eh]
	 Same-Spin Energy          =      -0.4107925698084699 [Eh]
	 Opposite-Spin Energy      =      -1.3178742619011412 [Eh]
	 Correlation Energy        =      -1.7286668317096110 [Eh]
	 Total Energy              =    -385.4808955799182968 [Eh]

	 ================> DF-SCS-MP2 Energies <==================
	-----------------------------------------------------------
	 SCS Same-Spin Scale       =       0.3333333333333333 [-]
	 SCS Opposite-Spin Scale   =       1.2000000000000000 [-]
	 SCS Same-Spin Energy      =      -0.1369308566028233 [Eh]
	 SCS Opposite-Spin Energy  =      -1.5814491142813694 [Eh]
	 SCS Correlation Energy    =      -1.7183799708841927 [Eh]
	 SCS Total Energy          =    -385.4706087190928656 [Eh]
	-----------------------------------------------------------

  Dipole Moment: [D]
     X:     0.9617      Y:    -0.7426      Z:     0.0000     Total:     1.2150

*** Psi4 exiting successfully. Buy a developer a beer!
