                               Psi4 1.4a3.dev225

  ==> Input File <==

--------------------------------------------------------------------------
#psi4
#
memory 32 gb

molecule  {
0 1
  O        1.7572910     0.3059760     0.0000180
  C       -0.4850880     0.9739040    -0.0000120
  C        0.4405670    -0.0879150     0.0000040
  C       -1.8443600     0.6614770    -0.0000180
  C        0.0124250    -1.4183170     0.0000060
  C        0.0151430     2.3911510    -0.0000080
  C       -2.2900340    -0.6642210    -0.0000140
  C       -1.3585410    -1.6984920    -0.0000020
  C        2.7241754    -0.7121278     0.0000180
  H       -2.5677820     1.4752540    -0.0000300
  H        0.7228010    -2.2381660     0.0000160
  H       -0.8234040     3.0925880    -0.0001030
  H        0.6363730     2.5877470     0.8789620
  H        0.6365320     2.5876940    -0.8788760
  H       -3.3546920    -0.8829470    -0.0000210
  H       -1.6887710    -2.7346470     0.0000000
  H        2.6565620    -1.3539010    -0.8944310
  H        2.6565580    -1.3539040     0.8944650
  H        3.6991380    -0.2132700     0.0000220
units angstrom
no_reorient  #important for SAPT in psi4, default
symmetry c1  #important for SAPT in psi4, default
}

set PROPERTIES_ORIGIN ["COM"]
properties('MP2/aug-cc-pvtz', properties = ['dipole'])
--------------------------------------------------------------------------

    Molecular point group: c1
  Charge       = 0
  Multiplicity = 1
  Basis Set: AUG-CC-PVTZ
    Blend: AUG-CC-PVTZ
  Basis Set: (AUG-CC-PVTZ AUX)
    Blend: AUG-CC-PVTZ-JKFIT

    Orbital Energies [Eh]
    ---------------------

    Doubly Occupied:

       1A    -20.585489     2A    -11.295877     3A    -11.284167
       4A    -11.235196     5A    -11.234715     6A    -11.232324
       7A    -11.231057     8A    -11.225171     9A    -11.216623
      10A     -1.410565    11A     -1.146392    12A     -1.045444
      13A     -1.010417    14A     -0.947427    15A     -0.921064
      16A     -0.812801    17A     -0.798017    18A     -0.711251
      19A     -0.669084    20A     -0.654849    21A     -0.647619
      22A     -0.613288    23A     -0.583444    24A     -0.568269
      25A     -0.563961    26A     -0.539481    27A     -0.519873
      28A     -0.506575    29A     -0.496978    30A     -0.475872
      31A     -0.463756    32A     -0.331666    33A     -0.306145

  @DF-RHF Final Energy:  -383.75303229941017

   => Energetics <=

    Nuclear Repulsion Energy =            430.4862189741995735
    One-Electron Energy =               -1373.9087914590920718
    Two-Electron Energy =                 559.6695401854823331
    Total Energy =                       -383.7530322994101653
  Basis Set: (AUG-CC-PVTZ AUX)
    Blend: AUG-CC-PVTZ-RI
    Molecular point group: c1

    Geometry (in Angstrom), charge = 0, multiplicity = 1:

       Center              X                  Y                   Z               Mass
    ------------   -----------------  -----------------  -----------------  -----------------
         O            1.779633178330     0.312418194875     0.000018164330    15.994914619570
         C           -0.462745821670     0.980346194875    -0.000011835670    12.000000000000
         C            0.462909178330    -0.081472805125     0.000004164330    12.000000000000
         C           -1.822017821670     0.667919194875    -0.000017835670    12.000000000000
         C            0.034767178330    -1.411874805125     0.000006164330    12.000000000000
         C            0.037485178330     2.397593194875    -0.000007835670    12.000000000000
         C           -2.267691821670    -0.657778805125    -0.000013835670    12.000000000000
         C           -1.336198821670    -1.692049805125    -0.000001835670    12.000000000000
         C            2.746517578330    -0.705685605125     0.000018164330    12.000000000000
         H           -2.545439821670     1.481696194875    -0.000029835670     1.007825032230
         H            0.745143178330    -2.231723805125     0.000016164330     1.007825032230
         H           -0.801061821670     3.099030194875    -0.000102835670     1.007825032230
         H            0.658715178330     2.594189194875     0.878962164330     1.007825032230
         H            0.658874178330     2.594136194875    -0.878875835670     1.007825032230
         H           -3.332349821670    -0.876504805125    -0.000020835670     1.007825032230
         H           -1.666428821670    -2.728204805125     0.000000164330     1.007825032230
         H            2.678904178330    -1.347458805125    -0.894430835670     1.007825032230
         H            2.678900178330    -1.347461805125     0.894465164330     1.007825032230
         H            3.721480178330    -0.206827805125     0.000022164330     1.007825032230

  Basis Set: AUG-CC-PVTZ
    Blend: AUG-CC-PVTZ
  Basis Set: (AUG-CC-PVTZ AUX)
    Blend: AUG-CC-PVTZ-JKFIT
	 Reference Energy          =    -383.7530322994101653 [Eh]
	 Singles Energy            =      -0.0000000000000000 [Eh]
	 Same-Spin Energy          =      -0.4108661708320092 [Eh]
	 Opposite-Spin Energy      =      -1.3179274077037839 [Eh]
	 Correlation Energy        =      -1.7287935785357931 [Eh]
	 Total Energy              =    -385.4818258779459370 [Eh]

	 ================> DF-SCS-MP2 Energies <==================
	-----------------------------------------------------------
	 SCS Same-Spin Scale       =       0.3333333333333333 [-]
	 SCS Opposite-Spin Scale   =       1.2000000000000000 [-]
	 SCS Same-Spin Energy      =      -0.1369553902773364 [Eh]
	 SCS Opposite-Spin Energy  =      -1.5815128892445407 [Eh]
	 SCS Correlation Energy    =      -1.7184682795218771 [Eh]
	 SCS Total Energy          =    -385.4715005789320230 [Eh]
	-----------------------------------------------------------

  Dipole Moment: [D]
     X:     0.8978      Y:    -0.6924      Z:     0.0000     Total:     1.1337

*** Psi4 exiting successfully. Buy a developer a beer!
