                               Psi4 1.4a3.dev225

  ==> Input File <==

--------------------------------------------------------------------------
#psi4
#
memory 32 gb

molecule  {
0 1
  O        1.7572910     0.3059760     0.0000180
  C       -0.4850880     0.9739040    -0.0000120
  C        0.4405670    -0.0879150     0.0000040
  C       -1.8443600     0.6614770    -0.0000180
  C        0.0124250    -1.4183170     0.0000060
  C        0.0151430     2.3911510    -0.0000080
  C       -2.2900340    -0.6642210    -0.0000140
  C       -1.3585410    -1.6984920    -0.0000020
  C        2.7379480    -0.7266300     0.0000180
  H       -2.5677820     1.4752540    -0.0000300
  H        0.7228010    -2.2381660     0.0000160
  H       -0.8234040     3.0925880    -0.0001030
  H        0.6363730     2.5877470     0.8789620
  H        0.6365320     2.5876940    -0.8788760
  H       -3.3546920    -0.8829470    -0.0000210
  H       -1.6887710    -2.7346470     0.0000000
  H        2.7611939    -1.3165375    -0.9228039
  H        2.6565580    -1.3539040     0.8944650
  H        3.6991380    -0.2132700     0.0000220
units angstrom
no_reorient  #important for SAPT in psi4, default
symmetry c1  #important for SAPT in psi4, default
}

set PROPERTIES_ORIGIN ["COM"]
properties('MP2/aug-cc-pvtz', properties = ['dipole'])
--------------------------------------------------------------------------

    Molecular point group: c1
  Charge       = 0
  Multiplicity = 1
  Basis Set: AUG-CC-PVTZ
    Blend: AUG-CC-PVTZ
  Basis Set: (AUG-CC-PVTZ AUX)
    Blend: AUG-CC-PVTZ-JKFIT

    Orbital Energies [Eh]
    ---------------------

    Doubly Occupied:

       1A    -20.585179     2A    -11.295064     3A    -11.284033
       4A    -11.234642     5A    -11.233881     6A    -11.231758
       7A    -11.230176     8A    -11.224389     9A    -11.216076
      10A     -1.404243    11A     -1.145294    12A     -1.044571
      13A     -1.009298    14A     -0.948685    15A     -0.920993
      16A     -0.813235    17A     -0.796515    18A     -0.708136
      19A     -0.667635    20A     -0.655034    21A     -0.646280
      22A     -0.611647    23A     -0.580869    24A     -0.568918
      25A     -0.562730    26A     -0.538863    27A     -0.518969
      28A     -0.510822    29A     -0.496063    30A     -0.474893
      31A     -0.465038    32A     -0.330976    33A     -0.305265

  @DF-RHF Final Energy:  -383.75172714816307

   => Energetics <=

    Nuclear Repulsion Energy =            429.9266150443618812
    One-Electron Energy =               -1372.8363433585857365
    Two-Electron Energy =                 559.1580011660608989
    Total Energy =                       -383.7517271481630132
  Basis Set: (AUG-CC-PVTZ AUX)
    Blend: AUG-CC-PVTZ-RI
    Molecular point group: c1

    Geometry (in Angstrom), charge = 0, multiplicity = 1:

       Center              X                  Y                   Z               Mass
    ------------   -----------------  -----------------  -----------------  -----------------
         O            1.777415476773     0.313535316148     0.000252408431    15.994914619570
         C           -0.464963523227     0.981463316148     0.000222408431    12.000000000000
         C            0.460691476773    -0.080355683852     0.000238408431    12.000000000000
         C           -1.824235523227     0.669036316148     0.000216408431    12.000000000000
         C            0.032549476773    -1.410757683852     0.000240408431    12.000000000000
         C            0.035267476773     2.398710316148     0.000226408431    12.000000000000
         C           -2.269909523227    -0.656661683852     0.000220408431    12.000000000000
         C           -1.338416523227    -1.690932683852     0.000232408431    12.000000000000
         C            2.758072476773    -0.719070683852     0.000252408431    12.000000000000
         H           -2.547657523227     1.482813316148     0.000204408431     1.007825032230
         H            0.742925476773    -2.230606683852     0.000250408431     1.007825032230
         H           -0.803279523227     3.100147316148     0.000131408431     1.007825032230
         H            0.656497476773     2.595306316148     0.879196408431     1.007825032230
         H            0.656656476773     2.595253316148    -0.878641591569     1.007825032230
         H           -3.334567523227    -0.875387683852     0.000213408431     1.007825032230
         H           -1.668646523227    -2.727087683852     0.000234408431     1.007825032230
         H            2.781318376773    -1.308978183852    -0.922569491569     1.007825032230
         H            2.676682476773    -1.346344683852     0.894699408431     1.007825032230
         H            3.719262476773    -0.205710683852     0.000256408431     1.007825032230

  Basis Set: AUG-CC-PVTZ
    Blend: AUG-CC-PVTZ
  Basis Set: (AUG-CC-PVTZ AUX)
    Blend: AUG-CC-PVTZ-JKFIT
	 Reference Energy          =    -383.7517271481630701 [Eh]
	 Singles Energy            =      -0.0000000000000000 [Eh]
	 Same-Spin Energy          =      -0.4108602844038602 [Eh]
	 Opposite-Spin Energy      =      -1.3181873709492553 [Eh]
	 Correlation Energy        =      -1.7290476553531156 [Eh]
	 Total Energy              =    -385.4807748035161694 [Eh]

	 ================> DF-SCS-MP2 Energies <==================
	-----------------------------------------------------------
	 SCS Same-Spin Scale       =       0.3333333333333333 [-]
	 SCS Opposite-Spin Scale   =       1.2000000000000000 [-]
	 SCS Same-Spin Energy      =      -0.1369534281346201 [Eh]
	 SCS Opposite-Spin Energy  =      -1.5818248451391064 [Eh]
	 SCS Correlation Energy    =      -1.7187782732737265 [Eh]
	 SCS Total Energy          =    -385.4705054214367692 [Eh]
	-----------------------------------------------------------

  Dipole Moment: [D]
     X:     1.0046      Y:    -0.7364      Z:    -0.0234     Total:     1.2459

*** Psi4 exiting successfully. Buy a developer a beer!
