                               Psi4 1.4a3.dev225

  ==> Input File <==

--------------------------------------------------------------------------
#psi4
#
memory 32 gb

molecule  {
0 1
  O        1.7572910     0.3059760     0.0000180
  C       -0.4850880     0.9739040    -0.0000120
  C        0.4405670    -0.0879150     0.0000040
  C       -1.8443600     0.6614770    -0.0000180
  C       -0.0104586    -1.3233657     0.0000055
  C        0.0151430     2.3911510    -0.0000080
  C       -2.2900340    -0.6642210    -0.0000140
  C       -1.3585410    -1.6984920    -0.0000020
  C        2.7379480    -0.7266300     0.0000180
  H       -2.5677820     1.4752540    -0.0000300
  H        0.7228010    -2.2381660     0.0000160
  H       -0.8234040     3.0925880    -0.0001030
  H        0.6363730     2.5877470     0.8789620
  H        0.6365320     2.5876940    -0.8788760
  H       -3.3546920    -0.8829470    -0.0000210
  H       -1.6887710    -2.7346470     0.0000000
  H        2.6565620    -1.3539010    -0.8944310
  H        2.6565580    -1.3539040     0.8944650
  H        3.6991380    -0.2132700     0.0000220
units angstrom
no_reorient  #important for SAPT in psi4, default
symmetry c1  #important for SAPT in psi4, default
}

set PROPERTIES_ORIGIN ["COM"]
properties('MP2/aug-cc-pvtz', properties = ['dipole'])
--------------------------------------------------------------------------

    Molecular point group: c1
  Charge       = 0
  Multiplicity = 1
  Basis Set: AUG-CC-PVTZ
    Blend: AUG-CC-PVTZ
  Basis Set: (AUG-CC-PVTZ AUX)
    Blend: AUG-CC-PVTZ-JKFIT

    Orbital Energies [Eh]
    ---------------------

    Doubly Occupied:

       1A    -20.582880     2A    -11.283989     3A    -11.282674
       4A    -11.235571     5A    -11.234195     6A    -11.229436
       7A    -11.228043     8A    -11.225736     9A    -11.216126
      10A     -1.403474    11A     -1.153911    12A     -1.044011
      13A     -1.017147    14A     -0.946351    15A     -0.925530
      16A     -0.807942    17A     -0.800547    18A     -0.712423
      19A     -0.667867    20A     -0.653627    21A     -0.642627
      22A     -0.609830    23A     -0.579969    24A     -0.569293
      25A     -0.558467    26A     -0.537751    27A     -0.522269
      28A     -0.512859    29A     -0.491589    30A     -0.470667
      31A     -0.465486    32A     -0.334306    33A     -0.309635

  @DF-RHF Final Energy:  -383.74129508273921

   => Energetics <=

    Nuclear Repulsion Energy =            431.8161969064249206
    One-Electron Energy =               -1376.6025274238140810
    Two-Electron Energy =                 561.0450354346500035
    Total Energy =                       -383.7412950827391569
  Basis Set: (AUG-CC-PVTZ AUX)
    Blend: AUG-CC-PVTZ-RI
    Molecular point group: c1

    Geometry (in Angstrom), charge = 0, multiplicity = 1:

       Center              X                  Y                   Z               Mass
    ------------   -----------------  -----------------  -----------------  -----------------
         O            1.780528805146     0.304509911343     0.000018213480    15.994914619570
         C           -0.461850194854     0.972437911343    -0.000011786520    12.000000000000
         C            0.463804805146    -0.089381088657     0.000004213480    12.000000000000
         C           -1.821122194854     0.660010911343    -0.000017786520    12.000000000000
         C            0.012779205146    -1.324831788657     0.000005713480    12.000000000000
         C            0.038380805146     2.389684911343    -0.000007786520    12.000000000000
         C           -2.266796194854    -0.665687088657    -0.000013786520    12.000000000000
         C           -1.335303194854    -1.699958088657    -0.000001786520    12.000000000000
         C            2.761185805146    -0.728096088657     0.000018213480    12.000000000000
         H           -2.544544194854     1.473787911343    -0.000029786520     1.007825032230
         H            0.746038805146    -2.239632088657     0.000016213480     1.007825032230
         H           -0.800166194854     3.091121911343    -0.000102786520     1.007825032230
         H            0.659610805146     2.586280911343     0.878962213480     1.007825032230
         H            0.659769805146     2.586227911343    -0.878875786520     1.007825032230
         H           -3.331454194854    -0.884413088657    -0.000020786520     1.007825032230
         H           -1.665533194854    -2.736113088657     0.000000213480     1.007825032230
         H            2.679799805146    -1.355367088657    -0.894430786520     1.007825032230
         H            2.679795805146    -1.355370088657     0.894465213480     1.007825032230
         H            3.722375805146    -0.214736088657     0.000022213480     1.007825032230

  Basis Set: AUG-CC-PVTZ
    Blend: AUG-CC-PVTZ
  Basis Set: (AUG-CC-PVTZ AUX)
    Blend: AUG-CC-PVTZ-JKFIT
	 Reference Energy          =    -383.7412950827392137 [Eh]
	 Singles Energy            =      -0.0000000000000000 [Eh]
	 Same-Spin Energy          =      -0.4109383540828136 [Eh]
	 Opposite-Spin Energy      =      -1.3182848398922498 [Eh]
	 Correlation Energy        =      -1.7292231939750633 [Eh]
	 Total Energy              =    -385.4705182767143015 [Eh]

	 ================> DF-SCS-MP2 Energies <==================
	-----------------------------------------------------------
	 SCS Same-Spin Scale       =       0.3333333333333333 [-]
	 SCS Opposite-Spin Scale   =       1.2000000000000000 [-]
	 SCS Same-Spin Energy      =      -0.1369794513609379 [Eh]
	 SCS Opposite-Spin Energy  =      -1.5819418078706997 [Eh]
	 SCS Correlation Energy    =      -1.7189212592316376 [Eh]
	 SCS Total Energy          =    -385.4602163419708631 [Eh]
	-----------------------------------------------------------

  Dipole Moment: [D]
     X:     0.8701      Y:    -0.7674      Z:     0.0000     Total:     1.1602

*** Psi4 exiting successfully. Buy a developer a beer!
