                               Psi4 1.4a3.dev225

  ==> Input File <==

--------------------------------------------------------------------------
#psi4
#
memory 32 gb

molecule  {
0 1
  O        1.7572910     0.3059760     0.0000180
  C       -0.4850880     0.9739040    -0.0000120
  C        0.4405670    -0.0879150     0.0000040
  C       -1.8443600     0.6614770    -0.0000180
  C        0.0073265    -1.3944330     0.0000059
  C        0.0151430     2.3911510    -0.0000080
  C       -2.2900340    -0.6642210    -0.0000140
  C       -1.3585410    -1.6984920    -0.0000020
  C        2.7379480    -0.7266300     0.0000180
  H       -2.5677820     1.4752540    -0.0000300
  H        0.7228010    -2.2381660     0.0000160
  H       -0.8234040     3.0925880    -0.0001030
  H        0.6363730     2.5877470     0.8789620
  H        0.6365320     2.5876940    -0.8788760
  H       -3.3546920    -0.8829470    -0.0000210
  H       -1.6887710    -2.7346470     0.0000000
  H        2.6565620    -1.3539010    -0.8944310
  H        2.6565580    -1.3539040     0.8944650
  H        3.6991380    -0.2132700     0.0000220
units angstrom
no_reorient  #important for SAPT in psi4, default
symmetry c1  #important for SAPT in psi4, default
}

set PROPERTIES_ORIGIN ["COM"]
properties('MP2/aug-cc-pvtz', properties = ['dipole'])
--------------------------------------------------------------------------

    Molecular point group: c1
  Charge       = 0
  Multiplicity = 1
  Basis Set: AUG-CC-PVTZ
    Blend: AUG-CC-PVTZ
  Basis Set: (AUG-CC-PVTZ AUX)
    Blend: AUG-CC-PVTZ-JKFIT

    Orbital Energies [Eh]
    ---------------------

    Doubly Occupied:

       1A    -20.583678     2A    -11.292378     3A    -11.283883
       4A    -11.234496     5A    -11.234269     6A    -11.231205
       7A    -11.229727     8A    -11.224742     9A    -11.216045
      10A     -1.403822    11A     -1.147244    12A     -1.044479
      13A     -1.010935    14A     -0.947861    15A     -0.922128
      16A     -0.810987    17A     -0.798075    18A     -0.709880
      19A     -0.666867    20A     -0.653502    21A     -0.644715
      22A     -0.612700    23A     -0.580584    24A     -0.568576
      25A     -0.562577    26A     -0.538589    27A     -0.522004
      28A     -0.509772    29A     -0.494624    30A     -0.475828
      31A     -0.464561    32A     -0.331572    33A     -0.306503

  @DF-RHF Final Energy:  -383.75250592534479

   => Energetics <=

    Nuclear Repulsion Energy =            430.5249641549637545
    One-Electron Energy =               -1374.0373273119396345
    Two-Electron Energy =                 559.7598572316311447
    Total Energy =                       -383.7525059253447353
  Basis Set: (AUG-CC-PVTZ AUX)
    Blend: AUG-CC-PVTZ-RI
    Molecular point group: c1

    Geometry (in Angstrom), charge = 0, multiplicity = 1:

       Center              X                  Y                   Z               Mass
    ------------   -----------------  -----------------  -----------------  -----------------
         O            1.778780499528     0.311495947959     0.000018174160    15.994914619570
         C           -0.463598500472     0.979423947959    -0.000011825840    12.000000000000
         C            0.462056499528    -0.082395052041     0.000004174160    12.000000000000
         C           -1.822870500472     0.666996947959    -0.000017825840    12.000000000000
         C            0.028815999528    -1.388913052041     0.000006074160    12.000000000000
         C            0.036632499528     2.396670947959    -0.000007825840    12.000000000000
         C           -2.268544500472    -0.658701052041    -0.000013825840    12.000000000000
         C           -1.337051500472    -1.692972052041    -0.000001825840    12.000000000000
         C            2.759437499528    -0.721110052041     0.000018174160    12.000000000000
         H           -2.546292500472     1.480773947959    -0.000029825840     1.007825032230
         H            0.744290499528    -2.232646052041     0.000016174160     1.007825032230
         H           -0.801914500472     3.098107947959    -0.000102825840     1.007825032230
         H            0.657862499528     2.593266947959     0.878962174160     1.007825032230
         H            0.658021499528     2.593213947959    -0.878875825840     1.007825032230
         H           -3.333202500472    -0.877427052041    -0.000020825840     1.007825032230
         H           -1.667281500472    -2.729127052041     0.000000174160     1.007825032230
         H            2.678051499528    -1.348381052041    -0.894430825840     1.007825032230
         H            2.678047499528    -1.348384052041     0.894465174160     1.007825032230
         H            3.720627499528    -0.207750052041     0.000022174160     1.007825032230

  Basis Set: AUG-CC-PVTZ
    Blend: AUG-CC-PVTZ
  Basis Set: (AUG-CC-PVTZ AUX)
    Blend: AUG-CC-PVTZ-JKFIT
	 Reference Energy          =    -383.7525059253447921 [Eh]
	 Singles Energy            =      -0.0000000000000000 [Eh]
	 Same-Spin Energy          =      -0.4108587350303505 [Eh]
	 Opposite-Spin Energy      =      -1.3181034120164012 [Eh]
	 Correlation Energy        =      -1.7289621470467518 [Eh]
	 Total Energy              =    -385.4814680723915217 [Eh]

	 ================> DF-SCS-MP2 Energies <==================
	-----------------------------------------------------------
	 SCS Same-Spin Scale       =       0.3333333333333333 [-]
	 SCS Opposite-Spin Scale   =       1.2000000000000000 [-]
	 SCS Same-Spin Energy      =      -0.1369529116767835 [Eh]
	 SCS Opposite-Spin Energy  =      -1.5817240944196815 [Eh]
	 SCS Correlation Energy    =      -1.7186770060964651 [Eh]
	 SCS Total Energy          =    -385.4711829314412626 [Eh]
	-----------------------------------------------------------

  Dipole Moment: [D]
     X:     0.9567      Y:    -0.7467      Z:     0.0000     Total:     1.2136

*** Psi4 exiting successfully. Buy a developer a beer!
