                               Psi4 1.4a3.dev225

  ==> Input File <==

--------------------------------------------------------------------------
#psi4
#
memory 32 gb

molecule  {
0 1
  O        1.7572910     0.3059760     0.0000180
  C       -0.4850880     0.9739040    -0.0000120
  C        0.4405670    -0.0879150     0.0000040
  C       -1.8443600     0.6614770    -0.0000180
  C        0.0124250    -1.4183170     0.0000060
  C        0.0151430     2.3911510    -0.0000080
  C       -2.2836609    -0.6452636    -0.0000141
  C       -1.3585410    -1.6984920    -0.0000020
  C        2.7379480    -0.7266300     0.0000180
  H       -2.5677820     1.4752540    -0.0000300
  H        0.7228010    -2.2381660     0.0000160
  H       -0.8234040     3.0925880    -0.0001030
  H        0.6363730     2.5877470     0.8789620
  H        0.6365320     2.5876940    -0.8788760
  H       -3.3546920    -0.8829470    -0.0000210
  H       -1.6887710    -2.7346470     0.0000000
  H        2.6565620    -1.3539010    -0.8944310
  H        2.6565580    -1.3539040     0.8944650
  H        3.6991380    -0.2132700     0.0000220
units angstrom
no_reorient  #important for SAPT in psi4, default
symmetry c1  #important for SAPT in psi4, default
}

set PROPERTIES_ORIGIN ["COM"]
properties('MP2/aug-cc-pvtz', properties = ['dipole'])
--------------------------------------------------------------------------

    Molecular point group: c1
  Charge       = 0
  Multiplicity = 1
  Basis Set: AUG-CC-PVTZ
    Blend: AUG-CC-PVTZ
  Basis Set: (AUG-CC-PVTZ AUX)
    Blend: AUG-CC-PVTZ-JKFIT

    Orbital Energies [Eh]
    ---------------------

    Doubly Occupied:

       1A    -20.583653     2A    -11.294541     3A    -11.284190
       4A    -11.235814     5A    -11.233508     6A    -11.230801
       7A    -11.229747     8A    -11.224335     9A    -11.215884
      10A     -1.403679    11A     -1.146400    12A     -1.043776
      13A     -1.011162    14A     -0.948805    15A     -0.920218
      16A     -0.812302    17A     -0.796922    18A     -0.709191
      19A     -0.667218    20A     -0.653372    21A     -0.644503
      22A     -0.614302    23A     -0.581694    24A     -0.568383
      25A     -0.563921    26A     -0.537410    27A     -0.522571
      28A     -0.508910    29A     -0.493887    30A     -0.476423
      31A     -0.464926    32A     -0.332765    33A     -0.304108

  @DF-RHF Final Energy:  -383.75244208616851

   => Energetics <=

    Nuclear Repulsion Energy =            430.3156384693589871
    One-Electron Energy =               -1373.6175143233767812
    Two-Electron Energy =                 559.5494337678492229
    Total Energy =                       -383.7524420861685712
  Basis Set: (AUG-CC-PVTZ AUX)
    Blend: AUG-CC-PVTZ-RI
    Molecular point group: c1

    Geometry (in Angstrom), charge = 0, multiplicity = 1:

       Center              X                  Y                   Z               Mass
    ------------   -----------------  -----------------  -----------------  -----------------
         O            1.777652821713     0.311980241128     0.000018174160    15.994914619570
         C           -0.464726178287     0.979908241128    -0.000011825840    12.000000000000
         C            0.460928821713    -0.081910758872     0.000004174160    12.000000000000
         C           -1.823998178287     0.667481241128    -0.000017825840    12.000000000000
         C            0.032786821713    -1.412312758872     0.000006174160    12.000000000000
         C            0.035504821713     2.397155241128    -0.000007825840    12.000000000000
         C           -2.263299078287    -0.639259358872    -0.000013925840    12.000000000000
         C           -1.338179178287    -1.692487758872    -0.000001825840    12.000000000000
         C            2.758309821713    -0.720625758872     0.000018174160    12.000000000000
         H           -2.547420178287     1.481258241128    -0.000029825840     1.007825032230
         H            0.743162821713    -2.232161758872     0.000016174160     1.007825032230
         H           -0.803042178287     3.098592241128    -0.000102825840     1.007825032230
         H            0.656734821713     2.593751241128     0.878962174160     1.007825032230
         H            0.656893821713     2.593698241128    -0.878875825840     1.007825032230
         H           -3.334330178287    -0.876942758872    -0.000020825840     1.007825032230
         H           -1.668409178287    -2.728642758872     0.000000174160     1.007825032230
         H            2.676923821713    -1.347896758872    -0.894430825840     1.007825032230
         H            2.676919821713    -1.347899758872     0.894465174160     1.007825032230
         H            3.719499821713    -0.207265758872     0.000022174160     1.007825032230

  Basis Set: AUG-CC-PVTZ
    Blend: AUG-CC-PVTZ
  Basis Set: (AUG-CC-PVTZ AUX)
    Blend: AUG-CC-PVTZ-JKFIT
	 Reference Energy          =    -383.7524420861685144 [Eh]
	 Singles Energy            =      -0.0000000000000000 [Eh]
	 Same-Spin Energy          =      -0.4109645793082414 [Eh]
	 Opposite-Spin Energy      =      -1.3182333879041126 [Eh]
	 Correlation Energy        =      -1.7291979672123539 [Eh]
	 Total Energy              =    -385.4816400533808860 [Eh]

	 ================> DF-SCS-MP2 Energies <==================
	-----------------------------------------------------------
	 SCS Same-Spin Scale       =       0.3333333333333333 [-]
	 SCS Opposite-Spin Scale   =       1.2000000000000000 [-]
	 SCS Same-Spin Energy      =      -0.1369881931027471 [Eh]
	 SCS Opposite-Spin Energy  =      -1.5818800654849350 [Eh]
	 SCS Correlation Energy    =      -1.7188682585876820 [Eh]
	 SCS Total Energy          =    -385.4713103447562048 [Eh]
	-----------------------------------------------------------

  Dipole Moment: [D]
     X:     0.9806      Y:    -0.7482      Z:     0.0000     Total:     1.2335

*** Psi4 exiting successfully. Buy a developer a beer!
