                               Psi4 1.4a3.dev225

  ==> Input File <==

--------------------------------------------------------------------------
#psi4
#
memory 32 gb

molecule  {
0 1
  O        1.7572910     0.3059760     0.0000180
  C       -0.4850880     0.9739040    -0.0000120
  C        0.4405670    -0.0879150     0.0000040
  C       -1.8443600     0.6614770    -0.0000180
  C        0.0124250    -1.4183170     0.0000060
  C        0.0151430     2.3911510    -0.0000080
  C       -2.2900340    -0.6642210    -0.0000140
  C       -1.3585410    -1.6984920    -0.0000020
  C        2.7379480    -0.7266300     0.0000180
  H       -2.5677820     1.4752540    -0.0000300
  H        0.7228010    -2.2381660     0.0000160
  H       -0.8234040     3.0925880    -0.0001030
  H        0.6363730     2.5877470     0.8789620
  H        0.6365320     2.5876940    -0.8788760
  H       -3.3546920    -0.8829470    -0.0000210
  H       -1.6735881    -2.6870079    -0.0000001
  H        2.6565620    -1.3539010    -0.8944310
  H        2.6565580    -1.3539040     0.8944650
  H        3.6991380    -0.2132700     0.0000220
units angstrom
no_reorient  #important for SAPT in psi4, default
symmetry c1  #important for SAPT in psi4, default
}

set PROPERTIES_ORIGIN ["COM"]
properties('MP2/aug-cc-pvtz', properties = ['dipole'])
--------------------------------------------------------------------------

    Molecular point group: c1
  Charge       = 0
  Multiplicity = 1
  Basis Set: AUG-CC-PVTZ
    Blend: AUG-CC-PVTZ
  Basis Set: (AUG-CC-PVTZ AUX)
    Blend: AUG-CC-PVTZ-JKFIT

    Orbital Energies [Eh]
    ---------------------

    Doubly Occupied:

       1A    -20.583771     2A    -11.294784     3A    -11.284143
       4A    -11.233756     5A    -11.231499     6A    -11.230233
       7A    -11.228498     8A    -11.224002     9A    -11.215919
      10A     -1.403747    11A     -1.145395    12A     -1.045634
      13A     -1.008887    14A     -0.948322    15A     -0.922712
      16A     -0.812832    17A     -0.798865    18A     -0.712530
      19A     -0.666922    20A     -0.653326    21A     -0.646092
      22A     -0.615229    23A     -0.583579    24A     -0.568256
      25A     -0.565663    26A     -0.538681    27A     -0.521999
      28A     -0.508714    29A     -0.496295    30A     -0.476645
      31A     -0.464018    32A     -0.330886    33A     -0.304996

  @DF-RHF Final Energy:  -383.75224150752473

   => Energetics <=

    Nuclear Repulsion Energy =            430.3674000225165628
    One-Electron Energy =               -1373.7056265497526510
    Two-Electron Energy =                 559.5859850197113019
    Total Energy =                       -383.7522415075247864
  Basis Set: (AUG-CC-PVTZ AUX)
    Blend: AUG-CC-PVTZ-RI
    Molecular point group: c1

    Geometry (in Angstrom), charge = 0, multiplicity = 1:

       Center              X                  Y                   Z               Mass
    ------------   -----------------  -----------------  -----------------  -----------------
         O            1.778153959644     0.313450481722     0.000018165155    15.994914619570
         C           -0.464225040356     0.981378481722    -0.000011834845    12.000000000000
         C            0.461429959644    -0.080440518278     0.000004165155    12.000000000000
         C           -1.823497040356     0.668951481722    -0.000017834845    12.000000000000
         C            0.033287959644    -1.410842518278     0.000006165155    12.000000000000
         C            0.036005959644     2.398625481722    -0.000007834845    12.000000000000
         C           -2.269171040356    -0.656746518278    -0.000013834845    12.000000000000
         C           -1.337678040356    -1.691017518278    -0.000001834845    12.000000000000
         C            2.758810959644    -0.719155518278     0.000018165155    12.000000000000
         H           -2.546919040356     1.482728481722    -0.000029834845     1.007825032230
         H            0.743663959644    -2.230691518278     0.000016165155     1.007825032230
         H           -0.802541040356     3.100062481722    -0.000102834845     1.007825032230
         H            0.657235959644     2.595221481722     0.878962165155     1.007825032230
         H            0.657394959644     2.595168481722    -0.878875834845     1.007825032230
         H           -3.333829040356    -0.875472518278    -0.000020834845     1.007825032230
         H           -1.652725140356    -2.679533418278     0.000000065155     1.007825032230
         H            2.677424959644    -1.346426518278    -0.894430834845     1.007825032230
         H            2.677420959644    -1.346429518278     0.894465165155     1.007825032230
         H            3.720000959644    -0.205795518278     0.000022165155     1.007825032230

  Basis Set: AUG-CC-PVTZ
    Blend: AUG-CC-PVTZ
  Basis Set: (AUG-CC-PVTZ AUX)
    Blend: AUG-CC-PVTZ-JKFIT
	 Reference Energy          =    -383.7522415075247295 [Eh]
	 Singles Energy            =      -0.0000000000000000 [Eh]
	 Same-Spin Energy          =      -0.4107900260146176 [Eh]
	 Opposite-Spin Energy      =      -1.3178936291075685 [Eh]
	 Correlation Energy        =      -1.7286836551221860 [Eh]
	 Total Energy              =    -385.4809251626469404 [Eh]

	 ================> DF-SCS-MP2 Energies <==================
	-----------------------------------------------------------
	 SCS Same-Spin Scale       =       0.3333333333333333 [-]
	 SCS Opposite-Spin Scale   =       1.2000000000000000 [-]
	 SCS Same-Spin Energy      =      -0.1369300086715392 [Eh]
	 SCS Opposite-Spin Energy  =      -1.5814723549290821 [Eh]
	 SCS Correlation Energy    =      -1.7184023636006214 [Eh]
	 SCS Total Energy          =    -385.4706438711253327 [Eh]
	-----------------------------------------------------------

  Dipole Moment: [D]
     X:     0.9731      Y:    -0.7549      Z:     0.0000     Total:     1.2316

*** Psi4 exiting successfully. Buy a developer a beer!
