                               Psi4 1.4a3.dev225

  ==> Input File <==

--------------------------------------------------------------------------
#psi4
#
memory 32 gb

molecule  {
0 1
  O        1.7572910     0.3059760     0.0000180
  C       -0.4850880     0.9739040    -0.0000120
  C        0.4405670    -0.0879150     0.0000040
  C       -1.8443600     0.6614770    -0.0000180
  C        0.0124250    -1.4183170     0.0000060
  C        0.0151430     2.3911510    -0.0000080
  C       -2.2900340    -0.6642210    -0.0000140
  C       -1.3585410    -1.6984920    -0.0000020
  C        2.7035164    -0.6903744     0.0000180
  H       -2.5677820     1.4752540    -0.0000300
  H        0.7228010    -2.2381660     0.0000160
  H       -0.8234040     3.0925880    -0.0001030
  H        0.6363730     2.5877470     0.8789620
  H        0.6365320     2.5876940    -0.8788760
  H       -3.3546920    -0.8829470    -0.0000210
  H       -1.6887710    -2.7346470     0.0000000
  H        2.6565620    -1.3539010    -0.8944310
  H        2.6565580    -1.3539040     0.8944650
  H        3.6991380    -0.2132700     0.0000220
units angstrom
no_reorient  #important for SAPT in psi4, default
symmetry c1  #important for SAPT in psi4, default
}

set PROPERTIES_ORIGIN ["COM"]
properties('MP2/aug-cc-pvtz', properties = ['dipole'])
--------------------------------------------------------------------------

    Molecular point group: c1
  Charge       = 0
  Multiplicity = 1
  Basis Set: AUG-CC-PVTZ
    Blend: AUG-CC-PVTZ
  Basis Set: (AUG-CC-PVTZ AUX)
    Blend: AUG-CC-PVTZ-JKFIT

    Orbital Energies [Eh]
    ---------------------

    Doubly Occupied:

       1A    -20.587724     2A    -11.297071     3A    -11.284333
       4A    -11.235943     5A    -11.235869     6A    -11.233095
       7A    -11.232141     8A    -11.226253     9A    -11.217521
      10A     -1.421233    11A     -1.148000    12A     -1.046653
      13A     -1.012380    14A     -0.946262    15A     -0.920975
      16A     -0.813018    17A     -0.799768    18A     -0.714882
      19A     -0.672607    20A     -0.657593    21A     -0.649748
      22A     -0.613207    23A     -0.587229    24A     -0.568276
      25A     -0.564972    26A     -0.540393    27A     -0.516321
      28A     -0.503030    29A     -0.497445    30A     -0.476242
      31A     -0.462289    32A     -0.332475    33A     -0.307542

  @DF-RHF Final Energy:  -383.75160303176642

   => Energetics <=

    Nuclear Repulsion Energy =            431.0718898997553197
    One-Electron Energy =               -1375.0020173145305762
    Two-Electron Energy =                 560.1785243830088348
    Total Energy =                       -383.7516030317664217
  Basis Set: (AUG-CC-PVTZ AUX)
    Blend: AUG-CC-PVTZ-RI
    Molecular point group: c1

    Geometry (in Angstrom), charge = 0, multiplicity = 1:

       Center              X                  Y                   Z               Mass
    ------------   -----------------  -----------------  -----------------  -----------------
         O            1.781663993212     0.310279798610     0.000018164330    15.994914619570
         C           -0.460715006788     0.978207798610    -0.000011835670    12.000000000000
         C            0.464939993212    -0.083611201390     0.000004164330    12.000000000000
         C           -1.819987006788     0.665780798610    -0.000017835670    12.000000000000
         C            0.036797993212    -1.414013201390     0.000006164330    12.000000000000
         C            0.039515993212     2.395454798610    -0.000007835670    12.000000000000
         C           -2.265661006788    -0.659917201390    -0.000013835670    12.000000000000
         C           -1.334168006788    -1.694188201390    -0.000001835670    12.000000000000
         C            2.727889393212    -0.686070601390     0.000018164330    12.000000000000
         H           -2.543409006788     1.479557798610    -0.000029835670     1.007825032230
         H            0.747173993212    -2.233862201390     0.000016164330     1.007825032230
         H           -0.799031006788     3.096891798610    -0.000102835670     1.007825032230
         H            0.660745993212     2.592050798610     0.878962164330     1.007825032230
         H            0.660904993212     2.591997798610    -0.878875835670     1.007825032230
         H           -3.330319006788    -0.878643201390    -0.000020835670     1.007825032230
         H           -1.664398006788    -2.730343201390     0.000000164330     1.007825032230
         H            2.680934993212    -1.349597201390    -0.894430835670     1.007825032230
         H            2.680930993212    -1.349600201390     0.894465164330     1.007825032230
         H            3.723510993212    -0.208966201390     0.000022164330     1.007825032230

  Basis Set: AUG-CC-PVTZ
    Blend: AUG-CC-PVTZ
  Basis Set: (AUG-CC-PVTZ AUX)
    Blend: AUG-CC-PVTZ-JKFIT
	 Reference Energy          =    -383.7516030317664217 [Eh]
	 Singles Energy            =      -0.0000000000000000 [Eh]
	 Same-Spin Energy          =      -0.4109097207662986 [Eh]
	 Opposite-Spin Energy      =      -1.3176125064247304 [Eh]
	 Correlation Energy        =      -1.7285222271910290 [Eh]
	 Total Energy              =    -385.4801252589574574 [Eh]

	 ================> DF-SCS-MP2 Energies <==================
	-----------------------------------------------------------
	 SCS Same-Spin Scale       =       0.3333333333333333 [-]
	 SCS Opposite-Spin Scale   =       1.2000000000000000 [-]
	 SCS Same-Spin Energy      =      -0.1369699069220995 [Eh]
	 SCS Opposite-Spin Energy  =      -1.5811350077096764 [Eh]
	 SCS Correlation Energy    =      -1.7181049146317759 [Eh]
	 SCS Total Energy          =    -385.4697079463982163 [Eh]
	-----------------------------------------------------------

  Dipole Moment: [D]
     X:     0.7654      Y:    -0.6221      Z:     0.0000     Total:     0.9863

*** Psi4 exiting successfully. Buy a developer a beer!
