                               Psi4 1.4a3.dev225

  ==> Input File <==

--------------------------------------------------------------------------
#psi4
#
memory 32 gb

molecule  {
0 1
  O        1.7572910     0.3059760     0.0000180
  C       -0.4850880     0.9739040    -0.0000120
  C        0.4405670    -0.0879150     0.0000040
  C       -1.8443600     0.6614770    -0.0000180
  C        0.0124250    -1.4183170     0.0000060
  C        0.0151430     2.3911510    -0.0000080
  C       -2.2900340    -0.6642210    -0.0000140
  C       -1.3585410    -1.6984920    -0.0000020
  C        2.7723796    -0.7628856     0.0000180
  H       -2.5677820     1.4752540    -0.0000300
  H        0.7228010    -2.2381660     0.0000160
  H       -0.8234040     3.0925880    -0.0001030
  H        0.6363730     2.5877470     0.8789620
  H        0.6365320     2.5876940    -0.8788760
  H       -3.3546920    -0.8829470    -0.0000210
  H       -1.6887710    -2.7346470     0.0000000
  H        2.6565620    -1.3539010    -0.8944310
  H        2.6565580    -1.3539040     0.8944650
  H        3.6991380    -0.2132700     0.0000220
units angstrom
no_reorient  #important for SAPT in psi4, default
symmetry c1  #important for SAPT in psi4, default
}

set PROPERTIES_ORIGIN ["COM"]
properties('MP2/aug-cc-pvtz', properties = ['dipole'])
--------------------------------------------------------------------------

    Molecular point group: c1
  Charge       = 0
  Multiplicity = 1
  Basis Set: AUG-CC-PVTZ
    Blend: AUG-CC-PVTZ
  Basis Set: (AUG-CC-PVTZ AUX)
    Blend: AUG-CC-PVTZ-JKFIT

    Orbital Energies [Eh]
    ---------------------

    Doubly Occupied:

       1A    -20.580186     2A    -11.293197     3A    -11.285235
       4A    -11.233707     5A    -11.232091     6A    -11.230539
       7A    -11.228688     8A    -11.222811     9A    -11.214653
      10A     -1.388975    11A     -1.142930    12A     -1.042885
      13A     -1.006448    14A     -0.951443    15A     -0.920674
      16A     -0.811948    17A     -0.794269    18A     -0.703831
      19A     -0.662314    20A     -0.651728    21A     -0.642606
      22A     -0.614410    23A     -0.575943    24A     -0.569113
      25A     -0.562437    26A     -0.537427    27A     -0.525029
      28A     -0.514059    29A     -0.495164    30A     -0.473323
      31A     -0.464598    32A     -0.329892    33A     -0.302995

  @DF-RHF Final Energy:  -383.75007183828666

   => Energetics <=

    Nuclear Repulsion Energy =            429.1758420334852531
    One-Electron Energy =               -1371.4407327593121408
    Two-Electron Energy =                 558.5148188875402866
    Total Energy =                       -383.7500718382866580
  Basis Set: (AUG-CC-PVTZ AUX)
    Blend: AUG-CC-PVTZ-RI
    Molecular point group: c1

    Geometry (in Angstrom), charge = 0, multiplicity = 1:

       Center              X                  Y                   Z               Mass
    ------------   -----------------  -----------------  -----------------  -----------------
         O            1.774894623380     0.317407773054     0.000018164330    15.994914619570
         C           -0.467484376620     0.985335773054    -0.000011835670    12.000000000000
         C            0.458170623380    -0.076483226946     0.000004164330    12.000000000000
         C           -1.826756376620     0.672908773054    -0.000017835670    12.000000000000
         C            0.030028623380    -1.406885226946     0.000006164330    12.000000000000
         C            0.032746623380     2.402582773054    -0.000007835670    12.000000000000
         C           -2.272430376620    -0.652789226946    -0.000013835670    12.000000000000
         C           -1.340937376620    -1.687060226946    -0.000001835670    12.000000000000
         C            2.789983223380    -0.751453826946     0.000018164330    12.000000000000
         H           -2.550178376620     1.486685773054    -0.000029835670     1.007825032230
         H            0.740404623380    -2.226734226946     0.000016164330     1.007825032230
         H           -0.805800376620     3.104019773054    -0.000102835670     1.007825032230
         H            0.653976623380     2.599178773054     0.878962164330     1.007825032230
         H            0.654135623380     2.599125773054    -0.878875835670     1.007825032230
         H           -3.337088376620    -0.871515226946    -0.000020835670     1.007825032230
         H           -1.671167376620    -2.723215226946     0.000000164330     1.007825032230
         H            2.674165623380    -1.342469226946    -0.894430835670     1.007825032230
         H            2.674161623380    -1.342472226946     0.894465164330     1.007825032230
         H            3.716741623380    -0.201838226946     0.000022164330     1.007825032230

  Basis Set: AUG-CC-PVTZ
    Blend: AUG-CC-PVTZ
  Basis Set: (AUG-CC-PVTZ AUX)
    Blend: AUG-CC-PVTZ-JKFIT
	 Reference Energy          =    -383.7500718382866580 [Eh]
	 Singles Energy            =      -0.0000000000000000 [Eh]
	 Same-Spin Energy          =      -0.4109617439913480 [Eh]
	 Opposite-Spin Energy      =      -1.3190058812699141 [Eh]
	 Correlation Energy        =      -1.7299676252612621 [Eh]
	 Total Energy              =    -385.4800394635479392 [Eh]

	 ================> DF-SCS-MP2 Energies <==================
	-----------------------------------------------------------
	 SCS Same-Spin Scale       =       0.3333333333333333 [-]
	 SCS Opposite-Spin Scale   =       1.2000000000000000 [-]
	 SCS Same-Spin Energy      =      -0.1369872479971160 [Eh]
	 SCS Opposite-Spin Energy  =      -1.5828070575238968 [Eh]
	 SCS Correlation Energy    =      -1.7197943055210128 [Eh]
	 SCS Total Energy          =    -385.4698661438076783 [Eh]
	-----------------------------------------------------------

  Dipole Moment: [D]
     X:     1.1764      Y:    -0.8389      Z:     0.0000     Total:     1.4449

*** Psi4 exiting successfully. Buy a developer a beer!
