                               Psi4 1.4a3.dev225

  ==> Input File <==

--------------------------------------------------------------------------
#psi4
#
memory 32 gb

molecule  {
0 1
  O        1.7572910     0.3059760     0.0000180
  C       -0.4850880     0.9739040    -0.0000120
  C        0.4405670    -0.0879150     0.0000040
  C       -1.8443600     0.6614770    -0.0000180
  C        0.0124250    -1.4183170     0.0000060
  C        0.0151430     2.3911510    -0.0000080
  C       -2.2900340    -0.6642210    -0.0000140
  C       -1.3534425    -1.7223760    -0.0000018
  C        2.7379480    -0.7266300     0.0000180
  H       -2.5677820     1.4752540    -0.0000300
  H        0.7228010    -2.2381660     0.0000160
  H       -0.8234040     3.0925880    -0.0001030
  H        0.6363730     2.5877470     0.8789620
  H        0.6365320     2.5876940    -0.8788760
  H       -3.3546920    -0.8829470    -0.0000210
  H       -1.6887710    -2.7346470     0.0000000
  H        2.6565620    -1.3539010    -0.8944310
  H        2.6565580    -1.3539040     0.8944650
  H        3.6991380    -0.2132700     0.0000220
units angstrom
no_reorient  #important for SAPT in psi4, default
symmetry c1  #important for SAPT in psi4, default
}

set PROPERTIES_ORIGIN ["COM"]
properties('MP2/aug-cc-pvtz', properties = ['dipole'])
--------------------------------------------------------------------------

    Molecular point group: c1
  Charge       = 0
  Multiplicity = 1
  Basis Set: AUG-CC-PVTZ
    Blend: AUG-CC-PVTZ
  Basis Set: (AUG-CC-PVTZ AUX)
    Blend: AUG-CC-PVTZ-JKFIT

    Orbital Energies [Eh]
    ---------------------

    Doubly Occupied:

       1A    -20.583993     2A    -11.295007     3A    -11.284167
       4A    -11.235493     5A    -11.234169     6A    -11.231848
       7A    -11.230957     8A    -11.226885     9A    -11.216124
      10A     -1.403908    11A     -1.143524    12A     -1.044047
      13A     -1.008263    14A     -0.948339    15A     -0.921022
      16A     -0.811667    17A     -0.798255    18A     -0.710453
      19A     -0.666375    20A     -0.653450    21A     -0.645072
      22A     -0.614305    23A     -0.582162    24A     -0.568365
      25A     -0.565925    26A     -0.537533    27A     -0.522141
      28A     -0.508568    29A     -0.495174    30A     -0.476564
      31A     -0.462739    32A     -0.331953    33A     -0.303215

  @DF-RHF Final Energy:  -383.75190721522949

   => Energetics <=

    Nuclear Repulsion Energy =            429.7328054795075900
    One-Electron Energy =               -1372.4461003768160481
    Two-Electron Energy =                 558.9613876820790210
    Total Energy =                       -383.7519072152294939
  Basis Set: (AUG-CC-PVTZ AUX)
    Blend: AUG-CC-PVTZ-RI
    Molecular point group: c1

    Geometry (in Angstrom), charge = 0, multiplicity = 1:

       Center              X                  Y                   Z               Mass
    ------------   -----------------  -----------------  -----------------  -----------------
         O            1.777778117063     0.316191623706     0.000018144669    15.994914619570
         C           -0.464600882937     0.984119623706    -0.000011855331    12.000000000000
         C            0.461054117063    -0.077699376294     0.000004144669    12.000000000000
         C           -1.823872882937     0.671692623706    -0.000017855331    12.000000000000
         C            0.032912117063    -1.408101376294     0.000006144669    12.000000000000
         C            0.035630117063     2.401366623706    -0.000007855331    12.000000000000
         C           -2.269546882937    -0.654005376294    -0.000013855331    12.000000000000
         C           -1.332955382937    -1.712160376294    -0.000001655331    12.000000000000
         C            2.758435117063    -0.716414376294     0.000018144669    12.000000000000
         H           -2.547294882937     1.485469623706    -0.000029855331     1.007825032230
         H            0.743288117063    -2.227950376294     0.000016144669     1.007825032230
         H           -0.802916882937     3.102803623706    -0.000102855331     1.007825032230
         H            0.656860117063     2.597962623706     0.878962144669     1.007825032230
         H            0.657019117063     2.597909623706    -0.878875855331     1.007825032230
         H           -3.334204882937    -0.872731376294    -0.000020855331     1.007825032230
         H           -1.668283882937    -2.724431376294     0.000000144669     1.007825032230
         H            2.677049117063    -1.343685376294    -0.894430855331     1.007825032230
         H            2.677045117063    -1.343688376294     0.894465144669     1.007825032230
         H            3.719625117063    -0.203054376294     0.000022144669     1.007825032230

  Basis Set: AUG-CC-PVTZ
    Blend: AUG-CC-PVTZ
  Basis Set: (AUG-CC-PVTZ AUX)
    Blend: AUG-CC-PVTZ-JKFIT
	 Reference Energy          =    -383.7519072152294939 [Eh]
	 Singles Energy            =      -0.0000000000000000 [Eh]
	 Same-Spin Energy          =      -0.4109298986176323 [Eh]
	 Opposite-Spin Energy      =      -1.3184094075324206 [Eh]
	 Correlation Energy        =      -1.7293393061500530 [Eh]
	 Total Energy              =    -385.4812465213795463 [Eh]

	 ================> DF-SCS-MP2 Energies <==================
	-----------------------------------------------------------
	 SCS Same-Spin Scale       =       0.3333333333333333 [-]
	 SCS Opposite-Spin Scale   =       1.2000000000000000 [-]
	 SCS Same-Spin Energy      =      -0.1369766328725441 [Eh]
	 SCS Opposite-Spin Energy  =      -1.5820912890389047 [Eh]
	 SCS Correlation Energy    =      -1.7190679219114489 [Eh]
	 SCS Total Energy          =    -385.4709751371409538 [Eh]
	-----------------------------------------------------------

  Dipole Moment: [D]
     X:     0.9808      Y:    -0.7454      Z:     0.0000     Total:     1.2319

*** Psi4 exiting successfully. Buy a developer a beer!
