                               Psi4 1.4a3.dev225

  ==> Input File <==

--------------------------------------------------------------------------
#psi4
#
memory 32 gb

molecule  {
0 1
  O        1.7572910     0.3059760     0.0000180
  C       -0.4850880     0.9739040    -0.0000120
  C        0.4712509    -0.1788055     0.0000035
  C       -1.8443600     0.6614770    -0.0000180
  C        0.0124250    -1.4183170     0.0000060
  C        0.0151430     2.3911510    -0.0000080
  C       -2.2900340    -0.6642210    -0.0000140
  C       -1.3585410    -1.6984920    -0.0000020
  C        2.7379480    -0.7266300     0.0000180
  H       -2.5677820     1.4752540    -0.0000300
  H        0.7228010    -2.2381660     0.0000160
  H       -0.8234040     3.0925880    -0.0001030
  H        0.6363730     2.5877470     0.8789620
  H        0.6365320     2.5876940    -0.8788760
  H       -3.3546920    -0.8829470    -0.0000210
  H       -1.6887710    -2.7346470     0.0000000
  H        2.6565620    -1.3539010    -0.8944310
  H        2.6565580    -1.3539040     0.8944650
  H        3.6991380    -0.2132700     0.0000220
units angstrom
no_reorient  #important for SAPT in psi4, default
symmetry c1  #important for SAPT in psi4, default
}

set PROPERTIES_ORIGIN ["COM"]
properties('MP2/aug-cc-pvtz', properties = ['dipole'])
--------------------------------------------------------------------------

    Molecular point group: c1
  Charge       = 0
  Multiplicity = 1
  Basis Set: AUG-CC-PVTZ
    Blend: AUG-CC-PVTZ
  Basis Set: (AUG-CC-PVTZ AUX)
    Blend: AUG-CC-PVTZ-JKFIT

    Orbital Energies [Eh]
    ---------------------

    Doubly Occupied:

       1A    -20.588540     2A    -11.293931     3A    -11.283259
       4A    -11.242707     5A    -11.233858     6A    -11.228389
       7A    -11.225058     8A    -11.221564     9A    -11.217149
      10A     -1.408132    11A     -1.143920    12A     -1.041436
      13A     -1.015716    14A     -0.949342    15A     -0.921501
      16A     -0.803728    17A     -0.798570    18A     -0.712448
      19A     -0.666047    20A     -0.655911    21A     -0.645665
      22A     -0.615947    23A     -0.574314    24A     -0.566594
      25A     -0.563192    26A     -0.541165    27A     -0.524252
      28A     -0.511239    29A     -0.493513    30A     -0.471390
      31A     -0.465062    32A     -0.339460    33A     -0.299476

  @DF-RHF Final Energy:  -383.74087909289364

   => Energetics <=

    Nuclear Repulsion Energy =            429.9247315526075681
    One-Electron Energy =               -1372.8062718126050186
    Two-Electron Energy =                 559.1406611671038718
    Total Energy =                       -383.7408790928935787
  Basis Set: (AUG-CC-PVTZ AUX)
    Blend: AUG-CC-PVTZ-RI
    Molecular point group: c1

    Geometry (in Angstrom), charge = 0, multiplicity = 1:

       Center              X                  Y                   Z               Mass
    ------------   -----------------  -----------------  -----------------  -----------------
         O            1.775263028672     0.322778476765     0.000018213480    15.994914619570
         C           -0.467115971328     0.990706476765    -0.000011786520    12.000000000000
         C            0.489222928672    -0.162003023235     0.000003713480    12.000000000000
         C           -1.826387971328     0.678279476765    -0.000017786520    12.000000000000
         C            0.030397028672    -1.401514523235     0.000006213480    12.000000000000
         C            0.033115028672     2.407953476765    -0.000007786520    12.000000000000
         C           -2.272061971328    -0.647418523235    -0.000013786520    12.000000000000
         C           -1.340568971328    -1.681689523235    -0.000001786520    12.000000000000
         C            2.755920028672    -0.709827523235     0.000018213480    12.000000000000
         H           -2.549809971328     1.492056476765    -0.000029786520     1.007825032230
         H            0.740773028672    -2.221363523235     0.000016213480     1.007825032230
         H           -0.805431971328     3.109390476765    -0.000102786520     1.007825032230
         H            0.654345028672     2.604549476765     0.878962213480     1.007825032230
         H            0.654504028672     2.604496476765    -0.878875786520     1.007825032230
         H           -3.336719971328    -0.866144523235    -0.000020786520     1.007825032230
         H           -1.670798971328    -2.717844523235     0.000000213480     1.007825032230
         H            2.674534028672    -1.337098523235    -0.894430786520     1.007825032230
         H            2.674530028672    -1.337101523235     0.894465213480     1.007825032230
         H            3.717110028672    -0.196467523235     0.000022213480     1.007825032230

  Basis Set: AUG-CC-PVTZ
    Blend: AUG-CC-PVTZ
  Basis Set: (AUG-CC-PVTZ AUX)
    Blend: AUG-CC-PVTZ-JKFIT
	 Reference Energy          =    -383.7408790928936355 [Eh]
	 Singles Energy            =      -0.0000000000000000 [Eh]
	 Same-Spin Energy          =      -0.4105181667041031 [Eh]
	 Opposite-Spin Energy      =      -1.3190839861837194 [Eh]
	 Correlation Energy        =      -1.7296021528878225 [Eh]
	 Total Energy              =    -385.4704812457814569 [Eh]

	 ================> DF-SCS-MP2 Energies <==================
	-----------------------------------------------------------
	 SCS Same-Spin Scale       =       0.3333333333333333 [-]
	 SCS Opposite-Spin Scale   =       1.2000000000000000 [-]
	 SCS Same-Spin Energy      =      -0.1368393889013677 [Eh]
	 SCS Opposite-Spin Energy  =      -1.5829007834204631 [Eh]
	 SCS Correlation Energy    =      -1.7197401723218309 [Eh]
	 SCS Total Energy          =    -385.4606192652154846 [Eh]
	-----------------------------------------------------------

  Dipole Moment: [D]
     X:     1.0234      Y:    -0.7292      Z:     0.0000     Total:     1.2567

*** Psi4 exiting successfully. Buy a developer a beer!
