                               Psi4 1.4a3.dev225

  ==> Input File <==

--------------------------------------------------------------------------
#psi4
#
memory 32 gb

molecule  {
0 1
  O        1.7572910     0.3059760     0.0000180
  C       -0.4850880     0.9739040    -0.0000120
  C        0.4405670    -0.0879150     0.0000040
  C       -1.8443600     0.6614770    -0.0000180
  C        0.0124250    -1.4183170     0.0000060
  C        0.0151430     2.3911510    -0.0000080
  C       -2.4261657    -0.6103731    -0.0000156
  C       -1.3585410    -1.6984920    -0.0000020
  C        2.7379480    -0.7266300     0.0000180
  H       -2.5677820     1.4752540    -0.0000300
  H        0.7228010    -2.2381660     0.0000160
  H       -0.8234040     3.0925880    -0.0001030
  H        0.6363730     2.5877470     0.8789620
  H        0.6365320     2.5876940    -0.8788760
  H       -3.3546920    -0.8829470    -0.0000210
  H       -1.6887710    -2.7346470     0.0000000
  H        2.6565620    -1.3539010    -0.8944310
  H        2.6565580    -1.3539040     0.8944650
  H        3.6991380    -0.2132700     0.0000220
units angstrom
no_reorient  #important for SAPT in psi4, default
symmetry c1  #important for SAPT in psi4, default
}

set PROPERTIES_ORIGIN ["COM"]
properties('MP2/aug-cc-pvtz', properties = ['dipole'])
--------------------------------------------------------------------------

    Molecular point group: c1
  Charge       = 0
  Multiplicity = 1
  Basis Set: AUG-CC-PVTZ
    Blend: AUG-CC-PVTZ
  Basis Set: (AUG-CC-PVTZ AUX)
    Blend: AUG-CC-PVTZ-JKFIT

    Orbital Energies [Eh]
    ---------------------

    Doubly Occupied:

       1A    -20.586143     2A    -11.298225     3A    -11.285666
       4A    -11.249714     5A    -11.235115     6A    -11.233108
       7A    -11.232181     8A    -11.228501     9A    -11.215757
      10A     -1.405911    11A     -1.136602    12A     -1.037130
      13A     -1.012691    14A     -0.951000    15A     -0.914552
      16A     -0.813337    17A     -0.806029    18A     -0.706719
      19A     -0.672854    20A     -0.662248    21A     -0.654853
      22A     -0.610228    23A     -0.576786    24A     -0.567797
      25A     -0.567592    26A     -0.537128    27A     -0.526640
      28A     -0.508214    29A     -0.503048    30A     -0.461202
      31A     -0.456643    32A     -0.335992    33A     -0.295688

  @DF-RHF Final Energy:  -383.72317901034796

   => Energetics <=

    Nuclear Repulsion Energy =            427.8864514579062757
    One-Electron Energy =               -1368.6486724621636313
    Two-Electron Energy =                 557.0390419939093363
    Total Energy =                       -383.7231790103479625
  Basis Set: (AUG-CC-PVTZ AUX)
    Blend: AUG-CC-PVTZ-RI
    Molecular point group: c1

    Geometry (in Angstrom), charge = 0, multiplicity = 1:

       Center              X                  Y                   Z               Mass
    ------------   -----------------  -----------------  -----------------  -----------------
         O            1.791661286233     0.308550445561     0.000018321612    15.994914619570
         C           -0.450717713767     0.976478445561    -0.000011678388    12.000000000000
         C            0.474937286233    -0.085340554439     0.000004321612    12.000000000000
         C           -1.809989713767     0.664051445561    -0.000017678388    12.000000000000
         C            0.046795286233    -1.415742554439     0.000006321612    12.000000000000
         C            0.049513286233     2.393725445561    -0.000007678388    12.000000000000
         C           -2.391795413767    -0.607798654439    -0.000015278388    12.000000000000
         C           -1.324170713767    -1.695917554439    -0.000001678388    12.000000000000
         C            2.772318286233    -0.724055554439     0.000018321612    12.000000000000
         H           -2.533411713767     1.477828445561    -0.000029678388     1.007825032230
         H            0.757171286233    -2.235591554439     0.000016321612     1.007825032230
         H           -0.789033713767     3.095162445561    -0.000102678388     1.007825032230
         H            0.670743286233     2.590321445561     0.878962321612     1.007825032230
         H            0.670902286233     2.590268445561    -0.878875678388     1.007825032230
         H           -3.320321713767    -0.880372554439    -0.000020678388     1.007825032230
         H           -1.654400713767    -2.732072554439     0.000000321612     1.007825032230
         H            2.690932286233    -1.351326554439    -0.894430678388     1.007825032230
         H            2.690928286233    -1.351329554439     0.894465321612     1.007825032230
         H            3.733508286233    -0.210695554439     0.000022321612     1.007825032230

  Basis Set: AUG-CC-PVTZ
    Blend: AUG-CC-PVTZ
  Basis Set: (AUG-CC-PVTZ AUX)
    Blend: AUG-CC-PVTZ-JKFIT
	 Reference Energy          =    -383.7231790103479625 [Eh]
	 Singles Energy            =      -0.0000000000000000 [Eh]
	 Same-Spin Energy          =      -0.4112523212338356 [Eh]
	 Opposite-Spin Energy      =      -1.3206217519846546 [Eh]
	 Correlation Energy        =      -1.7318740732184903 [Eh]
	 Total Energy              =    -385.4550530835664404 [Eh]

	 ================> DF-SCS-MP2 Energies <==================
	-----------------------------------------------------------
	 SCS Same-Spin Scale       =       0.3333333333333333 [-]
	 SCS Opposite-Spin Scale   =       1.2000000000000000 [-]
	 SCS Same-Spin Energy      =      -0.1370841070779452 [Eh]
	 SCS Opposite-Spin Energy  =      -1.5847461023815854 [Eh]
	 SCS Correlation Energy    =      -1.7218302094595306 [Eh]
	 SCS Total Energy          =    -385.4450092198075026 [Eh]
	-----------------------------------------------------------

  Dipole Moment: [D]
     X:     1.0450      Y:    -0.7746      Z:     0.0000     Total:     1.3007

*** Psi4 exiting successfully. Buy a developer a beer!
