                               Psi4 1.4a3.dev225

  ==> Input File <==

--------------------------------------------------------------------------
#psi4
#
memory 32 gb

molecule  {
0 1
  O        1.7572910     0.3059760     0.0000180
  C       -0.4850880     0.9739040    -0.0000120
  C        0.4405670    -0.0879150     0.0000040
  C       -1.8443600     0.6614770    -0.0000180
  C        0.0124250    -1.4183170     0.0000060
  C        0.0151430     2.3911510    -0.0000080
  C       -2.2900340    -0.6642210    -0.0000140
  C       -1.3674838    -1.6504753    -0.0000024
  C        2.7379480    -0.7266300     0.0000180
  H       -2.5677820     1.4752540    -0.0000300
  H        0.7228010    -2.2381660     0.0000160
  H       -0.8234040     3.0925880    -0.0001030
  H        0.6363730     2.5877470     0.8789620
  H        0.6365320     2.5876940    -0.8788760
  H       -3.3546920    -0.8829470    -0.0000210
  H       -1.6887710    -2.7346470     0.0000000
  H        2.6565620    -1.3539010    -0.8944310
  H        2.6565580    -1.3539040     0.8944650
  H        3.6991380    -0.2132700     0.0000220
units angstrom
no_reorient  #important for SAPT in psi4, default
symmetry c1  #important for SAPT in psi4, default
}

set PROPERTIES_ORIGIN ["COM"]
properties('MP2/aug-cc-pvtz', properties = ['dipole'])
--------------------------------------------------------------------------

    Molecular point group: c1
  Charge       = 0
  Multiplicity = 1
  Basis Set: AUG-CC-PVTZ
    Blend: AUG-CC-PVTZ
  Basis Set: (AUG-CC-PVTZ AUX)
    Blend: AUG-CC-PVTZ-JKFIT

    Orbital Energies [Eh]
    ---------------------

    Doubly Occupied:

       1A    -20.584034     2A    -11.295366     3A    -11.284478
       4A    -11.233570     5A    -11.233410     6A    -11.231858
       7A    -11.229454     8A    -11.219561     9A    -11.215948
      10A     -1.404085    11A     -1.149576    12A     -1.046320
      13A     -1.011179    14A     -0.948747    15A     -0.921196
      16A     -0.814808    17A     -0.794210    18A     -0.706204
      19A     -0.668614    20A     -0.653614    21A     -0.648451
      22A     -0.612565    23A     -0.581332    24A     -0.568554
      25A     -0.555990    26A     -0.541548    27A     -0.521359
      28A     -0.509798    29A     -0.499504    30A     -0.470499
      31A     -0.467672    32A     -0.329704    33A     -0.309427

  @DF-RHF Final Energy:  -383.75037602666151

   => Energetics <=

    Nuclear Repulsion Energy =            430.8761532329289139
    One-Electron Energy =               -1374.7277924268828428
    Two-Electron Energy =                 560.1012631672924726
    Total Energy =                       -383.7503760266614563
  Basis Set: (AUG-CC-PVTZ AUX)
    Blend: AUG-CC-PVTZ-RI
    Molecular point group: c1

    Geometry (in Angstrom), charge = 0, multiplicity = 1:

       Center              X                  Y                   Z               Mass
    ------------   -----------------  -----------------  -----------------  -----------------
         O            1.779158400765     0.309123662451     0.000018203650    15.994914619570
         C           -0.463220599235     0.977051662451    -0.000011796350    12.000000000000
         C            0.462434400765    -0.084767337549     0.000004203650    12.000000000000
         C           -1.822492599235     0.664624662451    -0.000017796350    12.000000000000
         C            0.034292400765    -1.415169337549     0.000006203650    12.000000000000
         C            0.037010400765     2.394298662451    -0.000007796350    12.000000000000
         C           -2.268166599235    -0.661073337549    -0.000013796350    12.000000000000
         C           -1.345616399235    -1.647327637549    -0.000002196350    12.000000000000
         C            2.759815400765    -0.723482337549     0.000018203650    12.000000000000
         H           -2.545914599235     1.478401662451    -0.000029796350     1.007825032230
         H            0.744668400765    -2.235018337549     0.000016203650     1.007825032230
         H           -0.801536599235     3.095735662451    -0.000102796350     1.007825032230
         H            0.658240400765     2.590894662451     0.878962203650     1.007825032230
         H            0.658399400765     2.590841662451    -0.878875796350     1.007825032230
         H           -3.332824599235    -0.879799337549    -0.000020796350     1.007825032230
         H           -1.666903599235    -2.731499337549     0.000000203650     1.007825032230
         H            2.678429400765    -1.350753337549    -0.894430796350     1.007825032230
         H            2.678425400765    -1.350756337549     0.894465203650     1.007825032230
         H            3.721005400765    -0.210122337549     0.000022203650     1.007825032230

  Basis Set: AUG-CC-PVTZ
    Blend: AUG-CC-PVTZ
  Basis Set: (AUG-CC-PVTZ AUX)
    Blend: AUG-CC-PVTZ-JKFIT
	 Reference Energy          =    -383.7503760266615132 [Eh]
	 Singles Energy            =      -0.0000000000000000 [Eh]
	 Same-Spin Energy          =      -0.4107937769852730 [Eh]
	 Opposite-Spin Energy      =      -1.3180034309976427 [Eh]
	 Correlation Energy        =      -1.7287972079829157 [Eh]
	 Total Energy              =    -385.4791732346444064 [Eh]

	 ================> DF-SCS-MP2 Energies <==================
	-----------------------------------------------------------
	 SCS Same-Spin Scale       =       0.3333333333333333 [-]
	 SCS Opposite-Spin Scale   =       1.2000000000000000 [-]
	 SCS Same-Spin Energy      =      -0.1369312589950910 [Eh]
	 SCS Opposite-Spin Energy  =      -1.5816041171971713 [Eh]
	 SCS Correlation Energy    =      -1.7185353761922624 [Eh]
	 SCS Total Energy          =    -385.4689114028537915 [Eh]
	-----------------------------------------------------------

  Dipole Moment: [D]
     X:     0.9865      Y:    -0.7100      Z:     0.0000     Total:     1.2154

*** Psi4 exiting successfully. Buy a developer a beer!
