                               Psi4 1.4a3.dev225

  ==> Input File <==

--------------------------------------------------------------------------
#psi4
#
memory 32 gb

molecule  {
0 1
  O        1.7572910     0.3059760     0.0000180
  C       -0.4850880     0.9739040    -0.0000120
  C        0.4405670    -0.0879150     0.0000040
  C       -1.8443600     0.6614770    -0.0000180
  C        0.0124250    -1.4183170     0.0000060
  C        0.0151430     2.3911510    -0.0000080
  C       -2.2900340    -0.6642210    -0.0000140
  C       -1.3585410    -1.6984920    -0.0000020
  C        2.7379480    -0.7266300     0.0000180
  H       -2.5677820     1.4752540    -0.0000300
  H        0.7228010    -2.2381660     0.0000160
  H       -0.8234040     3.0925880    -0.0001030
  H        0.6363730     2.5877470     0.8789620
  H        0.6365320     2.5876940    -0.8788760
  H       -3.3546920    -0.8829470    -0.0000210
  H       -1.6948442    -2.7537026     0.0000000
  H        2.6565620    -1.3539010    -0.8944310
  H        2.6565580    -1.3539040     0.8944650
  H        3.6991380    -0.2132700     0.0000220
units angstrom
no_reorient  #important for SAPT in psi4, default
symmetry c1  #important for SAPT in psi4, default
}

set PROPERTIES_ORIGIN ["COM"]
properties('MP2/aug-cc-pvtz', properties = ['dipole'])
--------------------------------------------------------------------------

    Molecular point group: c1
  Charge       = 0
  Multiplicity = 1
  Basis Set: AUG-CC-PVTZ
    Blend: AUG-CC-PVTZ
  Basis Set: (AUG-CC-PVTZ AUX)
    Blend: AUG-CC-PVTZ-JKFIT

    Orbital Energies [Eh]
    ---------------------

    Doubly Occupied:

       1A    -20.584092     2A    -11.295237     3A    -11.284316
       4A    -11.237080     5A    -11.234017     6A    -11.231956
       7A    -11.230581     8A    -11.224675     9A    -11.216104
      10A     -1.404043    11A     -1.145386    12A     -1.044373
      13A     -1.009334    14A     -0.948463    15A     -0.920464
      16A     -0.812575    17A     -0.796208    18A     -0.707673
      19A     -0.666977    20A     -0.653565    21A     -0.646231
      22A     -0.612889    23A     -0.580219    24A     -0.568465
      25A     -0.562162    26A     -0.538978    27A     -0.521913
      28A     -0.509002    29A     -0.496638    30A     -0.474752
      31A     -0.464418    32A     -0.331263    33A     -0.305339

  @DF-RHF Final Energy:  -383.75237582156797

   => Energetics <=

    Nuclear Repulsion Energy =            430.0033606869175742
    One-Electron Energy =               -1372.9926988200716096
    Two-Electron Energy =                 559.2369623115860122
    Total Energy =                       -383.7523758215679663
  Basis Set: (AUG-CC-PVTZ AUX)
    Blend: AUG-CC-PVTZ-RI
    Molecular point group: c1

    Geometry (in Angstrom), charge = 0, multiplicity = 1:

       Center              X                  Y                   Z               Mass
    ------------   -----------------  -----------------  -----------------  -----------------
         O            1.778329448087     0.314001107146     0.000018164330    15.994914619570
         C           -0.464049551913     0.981929107146    -0.000011835670    12.000000000000
         C            0.461605448087    -0.079889892854     0.000004164330    12.000000000000
         C           -1.823321551913     0.669502107146    -0.000017835670    12.000000000000
         C            0.033463448087    -1.410291892854     0.000006164330    12.000000000000
         C            0.036181448087     2.399176107146    -0.000007835670    12.000000000000
         C           -2.268995551913    -0.656195892854    -0.000013835670    12.000000000000
         C           -1.337502551913    -1.690466892854    -0.000001835670    12.000000000000
         C            2.758986448087    -0.718604892854     0.000018164330    12.000000000000
         H           -2.546743551913     1.483279107146    -0.000029835670     1.007825032230
         H            0.743839448087    -2.230140892854     0.000016164330     1.007825032230
         H           -0.802365551913     3.100613107146    -0.000102835670     1.007825032230
         H            0.657411448087     2.595772107146     0.878962164330     1.007825032230
         H            0.657570448087     2.595719107146    -0.878875835670     1.007825032230
         H           -3.333653551913    -0.874921892854    -0.000020835670     1.007825032230
         H           -1.673805751913    -2.745677492854     0.000000164330     1.007825032230
         H            2.677600448087    -1.345875892854    -0.894430835670     1.007825032230
         H            2.677596448087    -1.345878892854     0.894465164330     1.007825032230
         H            3.720176448087    -0.205244892854     0.000022164330     1.007825032230

  Basis Set: AUG-CC-PVTZ
    Blend: AUG-CC-PVTZ
  Basis Set: (AUG-CC-PVTZ AUX)
    Blend: AUG-CC-PVTZ-JKFIT
	 Reference Energy          =    -383.7523758215679663 [Eh]
	 Singles Energy            =      -0.0000000000000000 [Eh]
	 Same-Spin Energy          =      -0.4109024238712070 [Eh]
	 Opposite-Spin Energy      =      -1.3183403042985633 [Eh]
	 Correlation Energy        =      -1.7292427281697704 [Eh]
	 Total Energy              =    -385.4816185497377319 [Eh]

	 ================> DF-SCS-MP2 Energies <==================
	-----------------------------------------------------------
	 SCS Same-Spin Scale       =       0.3333333333333333 [-]
	 SCS Opposite-Spin Scale   =       1.2000000000000000 [-]
	 SCS Same-Spin Energy      =      -0.1369674746237357 [Eh]
	 SCS Opposite-Spin Energy  =      -1.5820083651582759 [Eh]
	 SCS Correlation Energy    =      -1.7189758397820116 [Eh]
	 SCS Total Energy          =    -385.4713516613499564 [Eh]
	-----------------------------------------------------------

  Dipole Moment: [D]
     X:     0.9853      Y:    -0.7281      Z:     0.0000     Total:     1.2251

*** Psi4 exiting successfully. Buy a developer a beer!
