                               Psi4 1.4a3.dev225

  ==> Input File <==

--------------------------------------------------------------------------
#psi4
#
memory 32 gb

molecule  {
0 1
  O        1.7572910     0.3059760     0.0000180
  C       -0.4850880     0.9739040    -0.0000120
  C        0.4405670    -0.0879150     0.0000040
  C       -1.8443600     0.6614770    -0.0000180
  C        0.0124250    -1.4183170     0.0000060
  C        0.0151430     2.3911510    -0.0000080
  C       -2.2900340    -0.6642210    -0.0000140
  C       -1.3585410    -1.6984920    -0.0000020
  C        2.7379480    -0.7266300     0.0000180
  H       -2.5677820     1.4752540    -0.0000300
  H        0.7228010    -2.2381660     0.0000160
  H       -0.8234040     3.0925880    -0.0001030
  H        0.6363730     2.5877470     0.8789620
  H        0.6365320     2.5876940    -0.8788760
  H       -3.3546920    -0.8829470    -0.0000210
  H       -1.6826978    -2.7155914    -0.0000000
  H        2.6565620    -1.3539010    -0.8944310
  H        2.6565580    -1.3539040     0.8944650
  H        3.6991380    -0.2132700     0.0000220
units angstrom
no_reorient  #important for SAPT in psi4, default
symmetry c1  #important for SAPT in psi4, default
}

set PROPERTIES_ORIGIN ["COM"]
properties('MP2/aug-cc-pvtz', properties = ['dipole'])
--------------------------------------------------------------------------

    Molecular point group: c1
  Charge       = 0
  Multiplicity = 1
  Basis Set: AUG-CC-PVTZ
    Blend: AUG-CC-PVTZ
  Basis Set: (AUG-CC-PVTZ AUX)
    Blend: AUG-CC-PVTZ-JKFIT

    Orbital Energies [Eh]
    ---------------------

    Doubly Occupied:

       1A    -20.583901     2A    -11.294968     3A    -11.284213
       4A    -11.233856     5A    -11.232470     6A    -11.231682
       7A    -11.230100     8A    -11.224285     9A    -11.215991
      10A     -1.403867    11A     -1.145362    12A     -1.045028
      13A     -1.009068    14A     -0.948370    15A     -0.921662
      16A     -0.812665    17A     -0.797646    18A     -0.710347
      19A     -0.666932    20A     -0.653422    21A     -0.646143
      22A     -0.614124    23A     -0.582028    24A     -0.568338
      25A     -0.564418    26A     -0.538801    27A     -0.521968
      28A     -0.508829    29A     -0.496431    30A     -0.475896
      31A     -0.464178    32A     -0.331035    33A     -0.305132

  @DF-RHF Final Energy:  -383.75315033287433

   => Energetics <=

    Nuclear Repulsion Energy =            430.2075835894577267
    One-Electron Energy =               -1373.3951607811968643
    Two-Electron Energy =                 559.4344268588648674
    Total Energy =                       -383.7531503328742701
  Basis Set: (AUG-CC-PVTZ AUX)
    Blend: AUG-CC-PVTZ-RI
    Molecular point group: c1

    Geometry (in Angstrom), charge = 0, multiplicity = 1:

       Center              X                  Y                   Z               Mass
    ------------   -----------------  -----------------  -----------------  -----------------
         O            1.778229168505     0.313686464518     0.000018164330    15.994914619570
         C           -0.464149831495     0.981614464518    -0.000011835670    12.000000000000
         C            0.461505168505    -0.080204535482     0.000004164330    12.000000000000
         C           -1.823421831495     0.669187464518    -0.000017835670    12.000000000000
         C            0.033363168505    -1.410606535482     0.000006164330    12.000000000000
         C            0.036081168505     2.398861464518    -0.000007835670    12.000000000000
         C           -2.269095831495    -0.656510535482    -0.000013835670    12.000000000000
         C           -1.337602831495    -1.690781535482    -0.000001835670    12.000000000000
         C            2.758886168505    -0.718919535482     0.000018164330    12.000000000000
         H           -2.546843831495     1.482964464518    -0.000029835670     1.007825032230
         H            0.743739168505    -2.230455535482     0.000016164330     1.007825032230
         H           -0.802465831495     3.100298464518    -0.000102835670     1.007825032230
         H            0.657311168505     2.595457464518     0.878962164330     1.007825032230
         H            0.657470168505     2.595404464518    -0.878875835670     1.007825032230
         H           -3.333753831495    -0.875236535482    -0.000020835670     1.007825032230
         H           -1.661759631495    -2.707880935482     0.000000164330     1.007825032230
         H            2.677500168505    -1.346190535482    -0.894430835670     1.007825032230
         H            2.677496168505    -1.346193535482     0.894465164330     1.007825032230
         H            3.720076168505    -0.205559535482     0.000022164330     1.007825032230

  Basis Set: AUG-CC-PVTZ
    Blend: AUG-CC-PVTZ
  Basis Set: (AUG-CC-PVTZ AUX)
    Blend: AUG-CC-PVTZ-JKFIT
	 Reference Energy          =    -383.7531503328743270 [Eh]
	 Singles Energy            =      -0.0000000000000000 [Eh]
	 Same-Spin Energy          =      -0.4108331376624688 [Eh]
	 Opposite-Spin Energy      =      -1.3180557405721074 [Eh]
	 Correlation Energy        =      -1.7288888782345762 [Eh]
	 Total Energy              =    -385.4820392111088836 [Eh]

	 ================> DF-SCS-MP2 Energies <==================
	-----------------------------------------------------------
	 SCS Same-Spin Scale       =       0.3333333333333333 [-]
	 SCS Opposite-Spin Scale   =       1.2000000000000000 [-]
	 SCS Same-Spin Energy      =      -0.1369443792208229 [Eh]
	 SCS Opposite-Spin Energy  =      -1.5816668886865288 [Eh]
	 SCS Correlation Energy    =      -1.7186112679073517 [Eh]
	 SCS Total Energy          =    -385.4717616007816900 [Eh]
	-----------------------------------------------------------

  Dipole Moment: [D]
     X:     0.9779      Y:    -0.7445      Z:     0.0000     Total:     1.2291

*** Psi4 exiting successfully. Buy a developer a beer!
