                               Psi4 1.4a3.dev225

  ==> Input File <==

--------------------------------------------------------------------------
#psi4
#
memory 32 gb

molecule  {
0 1
  O        1.7572910     0.3059760     0.0000180
  C       -0.4850880     0.9739040    -0.0000120
  C        0.4405670    -0.0879150     0.0000040
  C       -1.8443600     0.6614770    -0.0000180
  C        0.0213678    -1.4663337     0.0000063
  C        0.0151430     2.3911510    -0.0000080
  C       -2.2900340    -0.6642210    -0.0000140
  C       -1.3585410    -1.6984920    -0.0000020
  C        2.7379480    -0.7266300     0.0000180
  H       -2.5677820     1.4752540    -0.0000300
  H        0.7228010    -2.2381660     0.0000160
  H       -0.8234040     3.0925880    -0.0001030
  H        0.6363730     2.5877470     0.8789620
  H        0.6365320     2.5876940    -0.8788760
  H       -3.3546920    -0.8829470    -0.0000210
  H       -1.6887710    -2.7346470     0.0000000
  H        2.6565620    -1.3539010    -0.8944310
  H        2.6565580    -1.3539040     0.8944650
  H        3.6991380    -0.2132700     0.0000220
units angstrom
no_reorient  #important for SAPT in psi4, default
symmetry c1  #important for SAPT in psi4, default
}

set PROPERTIES_ORIGIN ["COM"]
properties('MP2/aug-cc-pvtz', properties = ['dipole'])
--------------------------------------------------------------------------

    Molecular point group: c1
  Charge       = 0
  Multiplicity = 1
  Basis Set: AUG-CC-PVTZ
    Blend: AUG-CC-PVTZ
  Basis Set: (AUG-CC-PVTZ AUX)
    Blend: AUG-CC-PVTZ-JKFIT

    Orbital Energies [Eh]
    ---------------------

    Doubly Occupied:

       1A    -20.584678     2A    -11.300319     3A    -11.284978
       4A    -11.235542     5A    -11.233870     6A    -11.232564
       7A    -11.231712     8A    -11.224042     9A    -11.216072
      10A     -1.404220    11A     -1.142066    12A     -1.045143
      13A     -1.006233    14A     -0.949572    15A     -0.918978
      16A     -0.816265    17A     -0.794642    18A     -0.707049
      19A     -0.667950    20A     -0.653492    21A     -0.650295
      22A     -0.614453    23A     -0.582295    24A     -0.568116
      25A     -0.564044    26A     -0.539519    27A     -0.521854
      28A     -0.507412    29A     -0.500382    30A     -0.472462
      31A     -0.463825    32A     -0.330913    33A     -0.302464

  @DF-RHF Final Energy:  -383.74928545513467

   => Energetics <=

    Nuclear Repulsion Energy =            429.2788275749322224
    One-Electron Energy =               -1371.5213823104754738
    Two-Electron Energy =                 558.4932692804086400
    Total Energy =                       -383.7492854551346682
  Basis Set: (AUG-CC-PVTZ AUX)
    Blend: AUG-CC-PVTZ-RI
    Molecular point group: c1

    Geometry (in Angstrom), charge = 0, multiplicity = 1:

       Center              X                  Y                   Z               Mass
    ------------   -----------------  -----------------  -----------------  -----------------
         O            1.777400215827     0.318563909213     0.000018134839    15.994914619570
         C           -0.464978784173     0.986491909213    -0.000011865161    12.000000000000
         C            0.460676215827    -0.075327090787     0.000004134839    12.000000000000
         C           -1.824250784173     0.674064909213    -0.000017865161    12.000000000000
         C            0.041477015827    -1.453745790787     0.000006434839    12.000000000000
         C            0.035252215827     2.403738909213    -0.000007865161    12.000000000000
         C           -2.269924784173    -0.651633090787    -0.000013865161    12.000000000000
         C           -1.338431784173    -1.685904090787    -0.000001865161    12.000000000000
         C            2.758057215827    -0.714042090787     0.000018134839    12.000000000000
         H           -2.547672784173     1.487841909213    -0.000029865161     1.007825032230
         H            0.742910215827    -2.225578090787     0.000016134839     1.007825032230
         H           -0.803294784173     3.105175909213    -0.000102865161     1.007825032230
         H            0.656482215827     2.600334909213     0.878962134839     1.007825032230
         H            0.656641215827     2.600281909213    -0.878875865161     1.007825032230
         H           -3.334582784173    -0.870359090787    -0.000020865161     1.007825032230
         H           -1.668661784173    -2.722059090787     0.000000134839     1.007825032230
         H            2.676671215827    -1.341313090787    -0.894430865161     1.007825032230
         H            2.676667215827    -1.341316090787     0.894465134839     1.007825032230
         H            3.719247215827    -0.200682090787     0.000022134839     1.007825032230

  Basis Set: AUG-CC-PVTZ
    Blend: AUG-CC-PVTZ
  Basis Set: (AUG-CC-PVTZ AUX)
    Blend: AUG-CC-PVTZ-JKFIT
	 Reference Energy          =    -383.7492854551346682 [Eh]
	 Singles Energy            =      -0.0000000000000000 [Eh]
	 Same-Spin Energy          =      -0.4109271361374769 [Eh]
	 Opposite-Spin Energy      =      -1.3185904165410038 [Eh]
	 Correlation Energy        =      -1.7295175526784807 [Eh]
	 Total Energy              =    -385.4788030078131555 [Eh]

	 ================> DF-SCS-MP2 Energies <==================
	-----------------------------------------------------------
	 SCS Same-Spin Scale       =       0.3333333333333333 [-]
	 SCS Opposite-Spin Scale   =       1.2000000000000000 [-]
	 SCS Same-Spin Energy      =      -0.1369757120458256 [Eh]
	 SCS Opposite-Spin Energy  =      -1.5823084998492045 [Eh]
	 SCS Correlation Energy    =      -1.7192842118950302 [Eh]
	 SCS Total Energy          =    -385.4685696670297261 [Eh]
	-----------------------------------------------------------

  Dipole Moment: [D]
     X:     1.0251      Y:    -0.7132      Z:     0.0000     Total:     1.2488

*** Psi4 exiting successfully. Buy a developer a beer!
