                               Psi4 1.4a3.dev225

  ==> Input File <==

--------------------------------------------------------------------------
#psi4
#
memory 32 gb

molecule  {
0 1
  O        1.7572910     0.3059760     0.0000180
  C       -0.4850880     0.9739040    -0.0000120
  C        0.4405670    -0.0879150     0.0000040
  C       -1.8443600     0.6614770    -0.0000180
  C        0.0124250    -1.4183170     0.0000060
  C        0.0151430     2.3911510    -0.0000080
  C       -2.2900340    -0.6642210    -0.0000140
  C       -1.3585410    -1.6984920    -0.0000020
  C        2.7379480    -0.7266300     0.0000180
  H       -2.5677820     1.4752540    -0.0000300
  H        0.7228010    -2.2381660     0.0000160
  H       -0.8234040     3.0925880    -0.0001030
  H        0.6363730     2.5877470     0.8789620
  H        0.6365320     2.5876940    -0.8788760
  H       -3.3546920    -0.8829470    -0.0000210
  H       -1.6887710    -2.7346470     0.0000000
  H        2.6565620    -1.3539010    -0.8944310
  H        2.6565580    -1.3539040     0.8944650
  H        3.6991380    -0.2132700     0.0000220
units angstrom
no_reorient  #important for SAPT in psi4, default
symmetry c1  #important for SAPT in psi4, default
}

set PROPERTIES_ORIGIN ["COM"]
properties('MP2/aug-cc-pvtz', properties = ['dipole'])
--------------------------------------------------------------------------

    Molecular point group: c1
  Charge       = 0
  Multiplicity = 1
  Basis Set: AUG-CC-PVTZ
    Blend: AUG-CC-PVTZ
  Basis Set: (AUG-CC-PVTZ AUX)
    Blend: AUG-CC-PVTZ-JKFIT

    Orbital Energies [Eh]
    ---------------------

    Doubly Occupied:

       1A    -20.583994     2A    -11.295099     3A    -11.284263
       4A    -11.234762     5A    -11.233932     6A    -11.231816
       7A    -11.230360     8A    -11.224476     9A    -11.216045
      10A     -1.403952    11A     -1.145365    12A     -1.044680
      13A     -1.009198    14A     -0.948413    15A     -0.921036
      16A     -0.812604    17A     -0.796899    18A     -0.708975
      19A     -0.666950    20A     -0.653491    21A     -0.646184
      22A     -0.613473    23A     -0.581076    24A     -0.568399
      25A     -0.563379    26A     -0.538887    27A     -0.521943
      28A     -0.508913    29A     -0.496531    30A     -0.475346
      31A     -0.464294    32A     -0.331145    33A     -0.305232

  @DF-RHF Final Energy:  -383.75302104936014

   => Energetics <=

    Nuclear Repulsion Energy =            430.1042550393988790
    One-Electron Energy =               -1373.1923325178502182
    Two-Electron Energy =                 559.3350564290913098
    Total Energy =                       -383.7530210493600862
  Basis Set: (AUG-CC-PVTZ AUX)
    Blend: AUG-CC-PVTZ-RI
    Molecular point group: c1

    Geometry (in Angstrom), charge = 0, multiplicity = 1:

       Center              X                  Y                   Z               Mass
    ------------   -----------------  -----------------  -----------------  -----------------
         O            1.778279308296     0.313843785832     0.000018164330    15.994914619570
         C           -0.464099691704     0.981771785832    -0.000011835670    12.000000000000
         C            0.461555308296    -0.080047214168     0.000004164330    12.000000000000
         C           -1.823371691704     0.669344785832    -0.000017835670    12.000000000000
         C            0.033413308296    -1.410449214168     0.000006164330    12.000000000000
         C            0.036131308296     2.399018785832    -0.000007835670    12.000000000000
         C           -2.269045691704    -0.656353214168    -0.000013835670    12.000000000000
         C           -1.337552691704    -1.690624214168    -0.000001835670    12.000000000000
         C            2.758936308296    -0.718762214168     0.000018164330    12.000000000000
         H           -2.546793691704     1.483121785832    -0.000029835670     1.007825032230
         H            0.743789308296    -2.230298214168     0.000016164330     1.007825032230
         H           -0.802415691704     3.100455785832    -0.000102835670     1.007825032230
         H            0.657361308296     2.595614785832     0.878962164330     1.007825032230
         H            0.657520308296     2.595561785832    -0.878875835670     1.007825032230
         H           -3.333703691704    -0.875079214168    -0.000020835670     1.007825032230
         H           -1.667782691704    -2.726779214168     0.000000164330     1.007825032230
         H            2.677550308296    -1.346033214168    -0.894430835670     1.007825032230
         H            2.677546308296    -1.346036214168     0.894465164330     1.007825032230
         H            3.720126308296    -0.205402214168     0.000022164330     1.007825032230

  Basis Set: AUG-CC-PVTZ
    Blend: AUG-CC-PVTZ
  Basis Set: (AUG-CC-PVTZ AUX)
    Blend: AUG-CC-PVTZ-JKFIT
	 Reference Energy          =    -383.7530210493601430 [Eh]
	 Singles Energy            =      -0.0000000000000000 [Eh]
	 Same-Spin Energy          =      -0.4108662277273038 [Eh]
	 Opposite-Spin Energy      =      -1.3181886208957843 [Eh]
	 Correlation Energy        =      -1.7290548486230881 [Eh]
	 Total Energy              =    -385.4820758979832362 [Eh]

	 ================> DF-SCS-MP2 Energies <==================
	-----------------------------------------------------------
	 SCS Same-Spin Scale       =       0.3333333333333333 [-]
	 SCS Opposite-Spin Scale   =       1.2000000000000000 [-]
	 SCS Same-Spin Energy      =      -0.1369554092424346 [Eh]
	 SCS Opposite-Spin Energy  =      -1.5818263450749410 [Eh]
	 SCS Correlation Energy    =      -1.7187817543173756 [Eh]
	 SCS Total Energy          =    -385.4718028036775195 [Eh]
	-----------------------------------------------------------

  Dipole Moment: [D]
     X:     0.9815      Y:    -0.7366      Z:     0.0000     Total:     1.2272

*** Psi4 exiting successfully. Buy a developer a beer!
