                               Psi4 1.4a3.dev225

  ==> Input File <==

--------------------------------------------------------------------------
#psi4
#
memory 32 gb

molecule  {
0 1
  O        1.7572910     0.3059760     0.0000180
  C       -0.4850880     0.9739040    -0.0000120
  C        0.4405670    -0.0879150     0.0000040
  C       -1.8443600     0.6614770    -0.0000180
  C        0.0124250    -1.4183170     0.0000060
  C        0.0151430     2.3911510    -0.0000080
  C       -2.2900340    -0.6642210    -0.0000140
  C       -1.3585410    -1.6984920    -0.0000020
  C        2.8756744    -0.8716522     0.0000180
  H       -2.5677820     1.4752540    -0.0000300
  H        0.7228010    -2.2381660     0.0000160
  H       -0.8234040     3.0925880    -0.0001030
  H        0.6363730     2.5877470     0.8789620
  H        0.6365320     2.5876940    -0.8788760
  H       -3.3546920    -0.8829470    -0.0000210
  H       -1.6887710    -2.7346470     0.0000000
  H        2.6565620    -1.3539010    -0.8944310
  H        2.6565580    -1.3539040     0.8944650
  H        3.6991380    -0.2132700     0.0000220
units angstrom
no_reorient  #important for SAPT in psi4, default
symmetry c1  #important for SAPT in psi4, default
}

set PROPERTIES_ORIGIN ["COM"]
properties('MP2/aug-cc-pvtz', properties = ['dipole'])
--------------------------------------------------------------------------

    Molecular point group: c1
  Charge       = 0
  Multiplicity = 1
  Basis Set: AUG-CC-PVTZ
    Blend: AUG-CC-PVTZ
  Basis Set: (AUG-CC-PVTZ AUX)
    Blend: AUG-CC-PVTZ-JKFIT

    Orbital Energies [Eh]
    ---------------------

    Doubly Occupied:

       1A    -20.567672     2A    -11.294254     3A    -11.287609
       4A    -11.230650     5A    -11.227677     6A    -11.226055
       7A    -11.224015     8A    -11.218185     9A    -11.210709
      10A     -1.354248    11A     -1.136441    12A     -1.038132
      13A     -1.000609    14A     -0.962358    15A     -0.917976
      16A     -0.809094    17A     -0.787494    18A     -0.692848
      19A     -0.658684    20A     -0.653168    21A     -0.634308
      22A     -0.619522    23A     -0.571426    24A     -0.569135
      25A     -0.561522    26A     -0.533328    27A     -0.520240
      28A     -0.514949    29A     -0.490233    30A     -0.461986
      31A     -0.461371    32A     -0.326331    33A     -0.296512

  @DF-RHF Final Energy:  -383.72349207503510

   => Energetics <=

    Nuclear Repulsion Energy =            426.5647860686134436
    One-Electron Energy =               -1366.4590774371192765
    Two-Electron Energy =                 556.1707992934707363
    Total Energy =                       -383.7234920750350966
  Basis Set: (AUG-CC-PVTZ AUX)
    Blend: AUG-CC-PVTZ-RI
    Molecular point group: c1

    Geometry (in Angstrom), charge = 0, multiplicity = 1:

       Center              X                  Y                   Z               Mass
    ------------   -----------------  -----------------  -----------------  -----------------
         O            1.764740568633     0.328099715060     0.000018164330    15.994914619570
         C           -0.477638431367     0.996027715060    -0.000011835670    12.000000000000
         C            0.448016568633    -0.065791284940     0.000004164330    12.000000000000
         C           -1.836910431367     0.683600715060    -0.000017835670    12.000000000000
         C            0.019874568633    -1.396193284940     0.000006164330    12.000000000000
         C            0.022592568633     2.413274715060    -0.000007835670    12.000000000000
         C           -2.282584431367    -0.642097284940    -0.000013835670    12.000000000000
         C           -1.351091431367    -1.676368284940    -0.000001835670    12.000000000000
         C            2.883123968633    -0.849528484940     0.000018164330    12.000000000000
         H           -2.560332431367     1.497377715060    -0.000029835670     1.007825032230
         H            0.730250568633    -2.216042284940     0.000016164330     1.007825032230
         H           -0.815954431367     3.114711715060    -0.000102835670     1.007825032230
         H            0.643822568633     2.609870715060     0.878962164330     1.007825032230
         H            0.643981568633     2.609817715060    -0.878875835670     1.007825032230
         H           -3.347242431367    -0.860823284940    -0.000020835670     1.007825032230
         H           -1.681321431367    -2.712523284940     0.000000164330     1.007825032230
         H            2.664011568633    -1.331777284940    -0.894430835670     1.007825032230
         H            2.664007568633    -1.331780284940     0.894465164330     1.007825032230
         H            3.706587568633    -0.191146284940     0.000022164330     1.007825032230

  Basis Set: AUG-CC-PVTZ
    Blend: AUG-CC-PVTZ
  Basis Set: (AUG-CC-PVTZ AUX)
    Blend: AUG-CC-PVTZ-JKFIT
	 Reference Energy          =    -383.7234920750350966 [Eh]
	 Singles Energy            =      -0.0000000000000000 [Eh]
	 Same-Spin Energy          =      -0.4119207640599064 [Eh]
	 Opposite-Spin Energy      =      -1.3225805671065176 [Eh]
	 Correlation Energy        =      -1.7345013311664239 [Eh]
	 Total Energy              =    -385.4579934062015241 [Eh]

	 ================> DF-SCS-MP2 Energies <==================
	-----------------------------------------------------------
	 SCS Same-Spin Scale       =       0.3333333333333333 [-]
	 SCS Opposite-Spin Scale   =       1.2000000000000000 [-]
	 SCS Same-Spin Energy      =      -0.1373069213533021 [Eh]
	 SCS Opposite-Spin Energy  =      -1.5870966805278210 [Eh]
	 SCS Correlation Energy    =      -1.7244036018811231 [Eh]
	 SCS Total Energy          =    -385.4478956769162323 [Eh]
	-----------------------------------------------------------

  Dipole Moment: [D]
     X:     1.6450      Y:    -1.0805      Z:     0.0000     Total:     1.9681

*** Psi4 exiting successfully. Buy a developer a beer!
