                               Psi4 1.4a3.dev225

  ==> Input File <==

--------------------------------------------------------------------------
#psi4
#
memory 32 gb

molecule  {
0 1
  O        1.7572910     0.3059760     0.0000180
  C       -0.4850880     0.9739040    -0.0000120
  C        0.4405670    -0.0879150     0.0000040
  C       -1.8443600     0.6614770    -0.0000180
  C        0.0124250    -1.4183170     0.0000060
  C        0.0151430     2.3911510    -0.0000080
  C       -2.3360287    -0.6478596    -0.0000145
  C       -1.3585410    -1.6984920    -0.0000020
  C        2.7379480    -0.7266300     0.0000180
  H       -2.5677820     1.4752540    -0.0000300
  H        0.7228010    -2.2381660     0.0000160
  H       -0.8234040     3.0925880    -0.0001030
  H        0.6363730     2.5877470     0.8789620
  H        0.6365320     2.5876940    -0.8788760
  H       -3.3546920    -0.8829470    -0.0000210
  H       -1.6887710    -2.7346470     0.0000000
  H        2.6565620    -1.3539010    -0.8944310
  H        2.6565580    -1.3539040     0.8944650
  H        3.6991380    -0.2132700     0.0000220
units angstrom
no_reorient  #important for SAPT in psi4, default
symmetry c1  #important for SAPT in psi4, default
}

set PROPERTIES_ORIGIN ["COM"]
properties('MP2/aug-cc-pvtz', properties = ['dipole'])
--------------------------------------------------------------------------

    Molecular point group: c1
  Charge       = 0
  Multiplicity = 1
  Basis Set: AUG-CC-PVTZ
    Blend: AUG-CC-PVTZ
  Basis Set: (AUG-CC-PVTZ AUX)
    Blend: AUG-CC-PVTZ-JKFIT

    Orbital Energies [Eh]
    ---------------------

    Doubly Occupied:

       1A    -20.584621     2A    -11.296031     3A    -11.284683
       4A    -11.240066     5A    -11.233569     6A    -11.232244
       7A    -11.231249     8A    -11.225681     9A    -11.215912
      10A     -1.404524    11A     -1.141885    12A     -1.041658
      13A     -1.010337    14A     -0.949211    15A     -0.918439
      16A     -0.810622    17A     -0.801521    18A     -0.708045
      19A     -0.665300    20A     -0.654272    21A     -0.653880
      22A     -0.612339    23A     -0.578991    24A     -0.568125
      25A     -0.564194    26A     -0.537070    27A     -0.525066
      28A     -0.508480    29A     -0.500309    30A     -0.472445
      31A     -0.461404    32A     -0.332447    33A     -0.301898

  @DF-RHF Final Energy:  -383.74929896790718

   => Energetics <=

    Nuclear Repulsion Energy =            429.3258745525041604
    One-Electron Energy =               -1371.6173145906477657
    Two-Electron Energy =                 558.5421410702364255
    Total Energy =                       -383.7492989679071798
  Basis Set: (AUG-CC-PVTZ AUX)
    Blend: AUG-CC-PVTZ-RI
    Molecular point group: c1

    Geometry (in Angstrom), charge = 0, multiplicity = 1:

       Center              X                  Y                   Z               Mass
    ------------   -----------------  -----------------  -----------------  -----------------
         O            1.782800665633     0.312235432349     0.000018213480    15.994914619570
         C           -0.459578334367     0.980163432349    -0.000011786520    12.000000000000
         C            0.466076665633    -0.081655567651     0.000004213480    12.000000000000
         C           -1.818850334367     0.667736432349    -0.000017786520    12.000000000000
         C            0.037934665633    -1.412057567651     0.000006213480    12.000000000000
         C            0.040652665633     2.397410432349    -0.000007786520    12.000000000000
         C           -2.310519034367    -0.641600167651    -0.000014286520    12.000000000000
         C           -1.333031334367    -1.692232567651    -0.000001786520    12.000000000000
         C            2.763457665633    -0.720370567651     0.000018213480    12.000000000000
         H           -2.542272334367     1.481513432349    -0.000029786520     1.007825032230
         H            0.748310665633    -2.231906567651     0.000016213480     1.007825032230
         H           -0.797894334367     3.098847432349    -0.000102786520     1.007825032230
         H            0.661882665633     2.594006432349     0.878962213480     1.007825032230
         H            0.662041665633     2.593953432349    -0.878875786520     1.007825032230
         H           -3.329182334367    -0.876687567651    -0.000020786520     1.007825032230
         H           -1.663261334367    -2.728387567651     0.000000213480     1.007825032230
         H            2.682071665633    -1.347641567651    -0.894430786520     1.007825032230
         H            2.682067665633    -1.347644567651     0.894465213480     1.007825032230
         H            3.724647665633    -0.207010567651     0.000022213480     1.007825032230

  Basis Set: AUG-CC-PVTZ
    Blend: AUG-CC-PVTZ
  Basis Set: (AUG-CC-PVTZ AUX)
    Blend: AUG-CC-PVTZ-JKFIT
	 Reference Energy          =    -383.7492989679071798 [Eh]
	 Singles Energy            =      -0.0000000000000000 [Eh]
	 Same-Spin Energy          =      -0.4109385004111147 [Eh]
	 Opposite-Spin Energy      =      -1.3186742622277339 [Eh]
	 Correlation Energy        =      -1.7296127626388487 [Eh]
	 Total Energy              =    -385.4789117305460309 [Eh]

	 ================> DF-SCS-MP2 Energies <==================
	-----------------------------------------------------------
	 SCS Same-Spin Scale       =       0.3333333333333333 [-]
	 SCS Opposite-Spin Scale   =       1.2000000000000000 [-]
	 SCS Same-Spin Energy      =      -0.1369795001370382 [Eh]
	 SCS Opposite-Spin Energy  =      -1.5824091146732806 [Eh]
	 SCS Correlation Energy    =      -1.7193886148103188 [Eh]
	 SCS Total Energy          =    -385.4686875827175072 [Eh]
	-----------------------------------------------------------

  Dipole Moment: [D]
     X:     0.9935      Y:    -0.7528      Z:     0.0000     Total:     1.2465

*** Psi4 exiting successfully. Buy a developer a beer!
