                               Psi4 1.4a3.dev225

  ==> Input File <==

--------------------------------------------------------------------------
#psi4
#
memory 32 gb

molecule  {
0 1
  O        1.7572910     0.3059760     0.0000180
  C       -0.4850880     0.9739040    -0.0000120
  C        0.4405670    -0.0879150     0.0000040
  C       -1.8443600     0.6614770    -0.0000180
  C        0.0124250    -1.4183170     0.0000060
  C        0.0151430     2.3911510    -0.0000080
  C       -2.1490194    -0.7035443    -0.0000124
  C       -1.3585410    -1.6984920    -0.0000020
  C        2.7379480    -0.7266300     0.0000180
  H       -2.5677820     1.4752540    -0.0000300
  H        0.7228010    -2.2381660     0.0000160
  H       -0.8234040     3.0925880    -0.0001030
  H        0.6363730     2.5877470     0.8789620
  H        0.6365320     2.5876940    -0.8788760
  H       -3.3546920    -0.8829470    -0.0000210
  H       -1.6887710    -2.7346470     0.0000000
  H        2.6565620    -1.3539010    -0.8944310
  H        2.6565580    -1.3539040     0.8944650
  H        3.6991380    -0.2132700     0.0000220
units angstrom
no_reorient  #important for SAPT in psi4, default
symmetry c1  #important for SAPT in psi4, default
}

set PROPERTIES_ORIGIN ["COM"]
properties('MP2/aug-cc-pvtz', properties = ['dipole'])
--------------------------------------------------------------------------

    Molecular point group: c1
  Charge       = 0
  Multiplicity = 1
  Basis Set: AUG-CC-PVTZ
    Blend: AUG-CC-PVTZ
  Basis Set: (AUG-CC-PVTZ AUX)
    Blend: AUG-CC-PVTZ-JKFIT

    Orbital Energies [Eh]
    ---------------------

    Doubly Occupied:

       1A    -20.582820     2A    -11.293143     3A    -11.283464
       4A    -11.236249     5A    -11.232202     6A    -11.228927
       7A    -11.222378     8A    -11.217795     9A    -11.216758
      10A     -1.402909    11A     -1.160116    12A     -1.056601
      13A     -1.006160    14A     -0.946563    15A     -0.930834
      16A     -0.819345    17A     -0.784938    18A     -0.713014
      19A     -0.672513    20A     -0.652912    21A     -0.629382
      22A     -0.617401    23A     -0.591771    24A     -0.569866
      25A     -0.565028    26A     -0.541529    27A     -0.517345
      28A     -0.512421    29A     -0.487237    30A     -0.474842
      31A     -0.457460    32A     -0.331191    33A     -0.314062

  @DF-RHF Final Energy:  -383.72491691136281

   => Energetics <=

    Nuclear Repulsion Energy =            432.6687190103949092
    One-Electron Energy =               -1378.2489221190958233
    Two-Electron Energy =                 561.8552861973381596
    Total Energy =                       -383.7249169113628113
  Basis Set: (AUG-CC-PVTZ AUX)
    Blend: AUG-CC-PVTZ-RI
    Molecular point group: c1

    Geometry (in Angstrom), charge = 0, multiplicity = 1:

       Center              X                  Y                   Z               Mass
    ------------   -----------------  -----------------  -----------------  -----------------
         O            1.764417332973     0.317709333188     0.000018007047    15.994914619570
         C           -0.477961667027     0.985637333188    -0.000011992953    12.000000000000
         C            0.447693332973    -0.076181666812     0.000004007047    12.000000000000
         C           -1.837233667027     0.673210333188    -0.000017992953    12.000000000000
         C            0.019551332973    -1.406583666812     0.000006007047    12.000000000000
         C            0.022269332973     2.402884333188    -0.000007992953    12.000000000000
         C           -2.141893067027    -0.691810966812    -0.000012392953    12.000000000000
         C           -1.351414667027    -1.686758666812    -0.000001992953    12.000000000000
         C            2.745074332973    -0.714896666812     0.000018007047    12.000000000000
         H           -2.560655667027     1.486987333188    -0.000029992953     1.007825032230
         H            0.729927332973    -2.226432666812     0.000016007047     1.007825032230
         H           -0.816277667027     3.104321333188    -0.000102992953     1.007825032230
         H            0.643499332973     2.599480333188     0.878962007047     1.007825032230
         H            0.643658332973     2.599427333188    -0.878875992953     1.007825032230
         H           -3.347565667027    -0.871213666812    -0.000020992953     1.007825032230
         H           -1.681644667027    -2.722913666812     0.000000007047     1.007825032230
         H            2.663688332973    -1.342167666812    -0.894430992953     1.007825032230
         H            2.663684332973    -1.342170666812     0.894465007047     1.007825032230
         H            3.706264332973    -0.201536666812     0.000022007047     1.007825032230

  Basis Set: AUG-CC-PVTZ
    Blend: AUG-CC-PVTZ
  Basis Set: (AUG-CC-PVTZ AUX)
    Blend: AUG-CC-PVTZ-JKFIT
	 Reference Energy          =    -383.7249169113628113 [Eh]
	 Singles Energy            =      -0.0000000000000000 [Eh]
	 Same-Spin Energy          =      -0.4110320689957157 [Eh]
	 Opposite-Spin Energy      =      -1.3186841975435393 [Eh]
	 Correlation Energy        =      -1.7297162665392549 [Eh]
	 Total Energy              =    -385.4546331779020534 [Eh]

	 ================> DF-SCS-MP2 Energies <==================
	-----------------------------------------------------------
	 SCS Same-Spin Scale       =       0.3333333333333333 [-]
	 SCS Opposite-Spin Scale   =       1.2000000000000000 [-]
	 SCS Same-Spin Energy      =      -0.1370106896652385 [Eh]
	 SCS Opposite-Spin Energy  =      -1.5824210370522471 [Eh]
	 SCS Correlation Energy    =      -1.7194317267174857 [Eh]
	 SCS Total Energy          =    -385.4443486380802710 [Eh]
	-----------------------------------------------------------

  Dipole Moment: [D]
     X:     1.0316      Y:    -0.6700      Z:     0.0000     Total:     1.2301

*** Psi4 exiting successfully. Buy a developer a beer!
