                               Psi4 1.4a3.dev225

  ==> Input File <==

--------------------------------------------------------------------------
#psi4
#
memory 32 gb

molecule  {
0 1
  O        1.7572910     0.3059760     0.0000180
  C       -0.4850880     0.9739040    -0.0000120
  C        0.4889530    -0.2233924     0.0000033
  C       -1.8443600     0.6614770    -0.0000180
  C        0.0124250    -1.4183170     0.0000060
  C        0.0151430     2.3911510    -0.0000080
  C       -2.2900340    -0.6642210    -0.0000140
  C       -1.3585410    -1.6984920    -0.0000020
  C        2.7379480    -0.7266300     0.0000180
  H       -2.5677820     1.4752540    -0.0000300
  H        0.7228010    -2.2381660     0.0000160
  H       -0.8234040     3.0925880    -0.0001030
  H        0.6363730     2.5877470     0.8789620
  H        0.6365320     2.5876940    -0.8788760
  H       -3.3546920    -0.8829470    -0.0000210
  H       -1.6887710    -2.7346470     0.0000000
  H        2.6565620    -1.3539010    -0.8944310
  H        2.6565580    -1.3539040     0.8944650
  H        3.6991380    -0.2132700     0.0000220
units angstrom
no_reorient  #important for SAPT in psi4, default
symmetry c1  #important for SAPT in psi4, default
}

set PROPERTIES_ORIGIN ["COM"]
properties('MP2/aug-cc-pvtz', properties = ['dipole'])
--------------------------------------------------------------------------

    Molecular point group: c1
  Charge       = 0
  Multiplicity = 1
  Basis Set: AUG-CC-PVTZ
    Blend: AUG-CC-PVTZ
  Basis Set: (AUG-CC-PVTZ AUX)
    Blend: AUG-CC-PVTZ-JKFIT

    Orbital Energies [Eh]
    ---------------------

    Doubly Occupied:

       1A    -20.590829     2A    -11.292775     3A    -11.282992
       4A    -11.245984     5A    -11.233301     6A    -11.226735
       7A    -11.225449     8A    -11.217515     9A    -11.217174
      10A     -1.410236    11A     -1.144181    12A     -1.042207
      13A     -1.017447    14A     -0.949686    15A     -0.921867
      16A     -0.806027    17A     -0.792285    18A     -0.714283
      19A     -0.665982    20A     -0.657427    21A     -0.645922
      22A     -0.616341    23A     -0.571519    24A     -0.565800
      25A     -0.563024    26A     -0.542123    27A     -0.525336
      28A     -0.512706    29A     -0.495145    30A     -0.465527
      31A     -0.462229    32A     -0.344908    33A     -0.296631

  @DF-RHF Final Energy:  -383.72635555178385

   => Energetics <=

    Nuclear Repulsion Energy =            429.8601348464936791
    One-Electron Energy =               -1372.6497975533084173
    Two-Electron Energy =                 559.0633071550308841
    Total Energy =                       -383.7263555517838540
  Basis Set: (AUG-CC-PVTZ AUX)
    Blend: AUG-CC-PVTZ-RI
    Molecular point group: c1

    Geometry (in Angstrom), charge = 0, multiplicity = 1:

       Center              X                  Y                   Z               Mass
    ------------   -----------------  -----------------  -----------------  -----------------
         O            1.773522882096     0.327161444965     0.000018233141    15.994914619570
         C           -0.468856117904     0.995089444965    -0.000011766859    12.000000000000
         C            0.505184882096    -0.202206955035     0.000003533141    12.000000000000
         C           -1.828128117904     0.682662444965    -0.000017766859    12.000000000000
         C            0.028656882096    -1.397131555035     0.000006233141    12.000000000000
         C            0.031374882096     2.412336444965    -0.000007766859    12.000000000000
         C           -2.273802117904    -0.643035555035    -0.000013766859    12.000000000000
         C           -1.342309117904    -1.677306555035    -0.000001766859    12.000000000000
         C            2.754179882096    -0.705444555035     0.000018233141    12.000000000000
         H           -2.551550117904     1.496439444965    -0.000029766859     1.007825032230
         H            0.739032882096    -2.216980555035     0.000016233141     1.007825032230
         H           -0.807172117904     3.113773444965    -0.000102766859     1.007825032230
         H            0.652604882096     2.608932444965     0.878962233141     1.007825032230
         H            0.652763882096     2.608879444965    -0.878875766859     1.007825032230
         H           -3.338460117904    -0.861761555035    -0.000020766859     1.007825032230
         H           -1.672539117904    -2.713461555035     0.000000233141     1.007825032230
         H            2.672793882096    -1.332715555035    -0.894430766859     1.007825032230
         H            2.672789882096    -1.332718555035     0.894465233141     1.007825032230
         H            3.715369882096    -0.192084555035     0.000022233141     1.007825032230

  Basis Set: AUG-CC-PVTZ
    Blend: AUG-CC-PVTZ
  Basis Set: (AUG-CC-PVTZ AUX)
    Blend: AUG-CC-PVTZ-JKFIT
	 Reference Energy          =    -383.7263555517838540 [Eh]
	 Singles Energy            =      -0.0000000000000000 [Eh]
	 Same-Spin Energy          =      -0.4102685128901629 [Eh]
	 Opposite-Spin Energy      =      -1.3198345038016528 [Eh]
	 Correlation Energy        =      -1.7301030166918157 [Eh]
	 Total Energy              =    -385.4564585684756821 [Eh]

	 ================> DF-SCS-MP2 Energies <==================
	-----------------------------------------------------------
	 SCS Same-Spin Scale       =       0.3333333333333333 [-]
	 SCS Opposite-Spin Scale   =       1.2000000000000000 [-]
	 SCS Same-Spin Energy      =      -0.1367561709633876 [Eh]
	 SCS Opposite-Spin Energy  =      -1.5838014045619833 [Eh]
	 SCS Correlation Energy    =      -1.7205575755253708 [Eh]
	 SCS Total Energy          =    -385.4469131273092444 [Eh]
	-----------------------------------------------------------

  Dipole Moment: [D]
     X:     1.0458      Y:    -0.7341      Z:     0.0000     Total:     1.2777

*** Psi4 exiting successfully. Buy a developer a beer!
