                               Psi4 1.4a3.dev225

  ==> Input File <==

--------------------------------------------------------------------------
#psi4
#
memory 32 gb

molecule  {
0 1
  O        1.7572910     0.3059760     0.0000180
  C       -0.4850880     0.9739040    -0.0000120
  C        0.4405670    -0.0879150     0.0000040
  C       -1.8443600     0.6614770    -0.0000180
  C        0.0124250    -1.4183170     0.0000060
  C        0.0151430     2.3911510    -0.0000080
  C       -2.2900340    -0.6642210    -0.0000140
  C       -1.3585410    -1.6984920    -0.0000020
  C        2.7379480    -0.7266300     0.0000180
  H       -2.5677820     1.4752540    -0.0000300
  H        0.7228010    -2.2381660     0.0000160
  H       -0.8234040     3.0925880    -0.0001030
  H        0.6363730     2.5877470     0.8789620
  H        0.6365320     2.5876940    -0.8788760
  H       -3.3546920    -0.8829470    -0.0000210
  H       -1.6887710    -2.7346470     0.0000000
  H        2.6417038    -1.4684182    -1.0577253
  H        2.6565580    -1.3539040     0.8944650
  H        3.6991380    -0.2132700     0.0000220
units angstrom
no_reorient  #important for SAPT in psi4, default
symmetry c1  #important for SAPT in psi4, default
}

set PROPERTIES_ORIGIN ["COM"]
properties('MP2/aug-cc-pvtz', properties = ['dipole'])
--------------------------------------------------------------------------

    Molecular point group: c1
  Charge       = 0
  Multiplicity = 1
  Basis Set: AUG-CC-PVTZ
    Blend: AUG-CC-PVTZ
  Basis Set: (AUG-CC-PVTZ AUX)
    Blend: AUG-CC-PVTZ-JKFIT

    Orbital Energies [Eh]
    ---------------------

    Doubly Occupied:

       1A    -20.588874     2A    -11.306750     3A    -11.295767
       4A    -11.234869     5A    -11.234845     6A    -11.232216
       7A    -11.230691     8A    -11.225160     9A    -11.216829
      10A     -1.406923    11A     -1.145907    12A     -1.044920
      13A     -1.008909    14A     -0.941510    15A     -0.918356
      16A     -0.811205    17A     -0.796129    18A     -0.707219
      19A     -0.668433    20A     -0.649365    21A     -0.638366
      22A     -0.612758    23A     -0.582843    24A     -0.566504
      25A     -0.562900    26A     -0.539589    27A     -0.521636
      28A     -0.497628    29A     -0.495975    30A     -0.474990
      31A     -0.458419    32A     -0.331426    33A     -0.306235

  @DF-RHF Final Energy:  -383.73269375878766

   => Energetics <=

    Nuclear Repulsion Energy =            429.3438055750209514
    One-Electron Energy =               -1371.6447009729545243
    Two-Electron Energy =                 558.5682016391458546
    Total Energy =                       -383.7326937587877183
  Basis Set: (AUG-CC-PVTZ AUX)
    Blend: AUG-CC-PVTZ-RI
    Molecular point group: c1

    Geometry (in Angstrom), charge = 0, multiplicity = 1:

       Center              X                  Y                   Z               Mass
    ------------   -----------------  -----------------  -----------------  -----------------
         O            1.778401976254     0.314789229500     0.001366307333    15.994914619570
         C           -0.463977023746     0.982717229500     0.001336307333    12.000000000000
         C            0.461677976254    -0.079101770500     0.001352307333    12.000000000000
         C           -1.823249023746     0.670290229500     0.001330307333    12.000000000000
         C            0.033535976254    -1.409503770500     0.001354307333    12.000000000000
         C            0.036253976254     2.399964229500     0.001340307333    12.000000000000
         C           -2.268923023746    -0.655407770500     0.001334307333    12.000000000000
         C           -1.337430023746    -1.689678770500     0.001346307333    12.000000000000
         C            2.759058976254    -0.717816770500     0.001366307333    12.000000000000
         H           -2.546671023746     1.484067229500     0.001318307333     1.007825032230
         H            0.743911976254    -2.229352770500     0.001364307333     1.007825032230
         H           -0.802293023746     3.101401229500     0.001245307333     1.007825032230
         H            0.657483976254     2.596560229500     0.880310307333     1.007825032230
         H            0.657642976254     2.596507229500    -0.877527692667     1.007825032230
         H           -3.333581023746    -0.874133770500     0.001327307333     1.007825032230
         H           -1.667660023746    -2.725833770500     0.001348307333     1.007825032230
         H            2.662814776254    -1.459604970500    -1.056376992667     1.007825032230
         H            2.677668976254    -1.345090770500     0.895813307333     1.007825032230
         H            3.720248976254    -0.204456770500     0.001370307333     1.007825032230

  Basis Set: AUG-CC-PVTZ
    Blend: AUG-CC-PVTZ
  Basis Set: (AUG-CC-PVTZ AUX)
    Blend: AUG-CC-PVTZ-JKFIT
	 Reference Energy          =    -383.7326937587876614 [Eh]
	 Singles Energy            =      -0.0000000000000000 [Eh]
	 Same-Spin Energy          =      -0.4112091447504679 [Eh]
	 Opposite-Spin Energy      =      -1.3201366114844926 [Eh]
	 Correlation Energy        =      -1.7313457562349606 [Eh]
	 Total Energy              =    -385.4640395150226482 [Eh]

	 ================> DF-SCS-MP2 Energies <==================
	-----------------------------------------------------------
	 SCS Same-Spin Scale       =       0.3333333333333333 [-]
	 SCS Opposite-Spin Scale   =       1.2000000000000000 [-]
	 SCS Same-Spin Energy      =      -0.1370697149168226 [Eh]
	 SCS Opposite-Spin Energy  =      -1.5841639337813911 [Eh]
	 SCS Correlation Energy    =      -1.7212336486982136 [Eh]
	 SCS Total Energy          =    -385.4539274074858781 [Eh]
	-----------------------------------------------------------

  Dipole Moment: [D]
     X:     0.8856      Y:    -0.6256      Z:     0.1227     Total:     1.0912

*** Psi4 exiting successfully. Buy a developer a beer!
