                               Psi4 1.4a3.dev225

  ==> Input File <==

--------------------------------------------------------------------------
#psi4
#
memory 32 gb

molecule  {
0 1
  O        1.7572910     0.3059760     0.0000180
  C       -0.4850880     0.9739040    -0.0000120
  C        0.4405670    -0.0879150     0.0000040
  C       -1.8443600     0.6614770    -0.0000180
  C        0.0124250    -1.4183170     0.0000060
  C        0.0151430     2.3911510    -0.0000080
  C       -2.2900340    -0.6642210    -0.0000140
  C       -1.3217444    -1.8402621    -0.0000009
  C        2.7379480    -0.7266300     0.0000180
  H       -2.5677820     1.4752540    -0.0000300
  H        0.7228010    -2.2381660     0.0000160
  H       -0.8234040     3.0925880    -0.0001030
  H        0.6363730     2.5877470     0.8789620
  H        0.6365320     2.5876940    -0.8788760
  H       -3.3546920    -0.8829470    -0.0000210
  H       -1.6887710    -2.7346470     0.0000000
  H        2.6565620    -1.3539010    -0.8944310
  H        2.6565580    -1.3539040     0.8944650
  H        3.6991380    -0.2132700     0.0000220
units angstrom
no_reorient  #important for SAPT in psi4, default
symmetry c1  #important for SAPT in psi4, default
}

set PROPERTIES_ORIGIN ["COM"]
properties('MP2/aug-cc-pvtz', properties = ['dipole'])
--------------------------------------------------------------------------

    Molecular point group: c1
  Charge       = 0
  Multiplicity = 1
  Basis Set: AUG-CC-PVTZ
    Blend: AUG-CC-PVTZ
  Basis Set: (AUG-CC-PVTZ AUX)
    Blend: AUG-CC-PVTZ-JKFIT

    Orbital Energies [Eh]
    ---------------------

    Doubly Occupied:

       1A    -20.584138     2A    -11.294877     3A    -11.283785
       4A    -11.239667     5A    -11.238174     6A    -11.235787
       7A    -11.235318     8A    -11.232011     9A    -11.216771
      10A     -1.403857    11A     -1.136545    12A     -1.042557
      13A     -1.004263    14A     -0.948850    15A     -0.922030
      16A     -0.813086    17A     -0.801196    18A     -0.718719
      19A     -0.667697    20A     -0.653397    21A     -0.639705
      22A     -0.622124    23A     -0.593184    24A     -0.568532
      25A     -0.567710    26A     -0.531434    27A     -0.522677
      28A     -0.507523    29A     -0.494047    30A     -0.467789
      31A     -0.456283    32A     -0.336705    33A     -0.294120

  @DF-RHF Final Energy:  -383.72259503777406

   => Energetics <=

    Nuclear Repulsion Energy =            428.0223908198706226
    One-Electron Energy =               -1368.9408513261917051
    Two-Electron Energy =                 557.1958654685470265
    Total Energy =                       -383.7225950377739991
  Basis Set: (AUG-CC-PVTZ AUX)
    Blend: AUG-CC-PVTZ-RI
    Molecular point group: c1

    Geometry (in Angstrom), charge = 0, multiplicity = 1:

       Center              X                  Y                   Z               Mass
    ------------   -----------------  -----------------  -----------------  -----------------
         O            1.774662139853     0.327780028092     0.000018056198    15.994914619570
         C           -0.467716860147     0.995708028092    -0.000011943802    12.000000000000
         C            0.457938139853    -0.066110971908     0.000004056198    12.000000000000
         C           -1.826988860147     0.683281028092    -0.000017943802    12.000000000000
         C            0.029796139853    -1.396512971908     0.000006056198    12.000000000000
         C            0.032514139853     2.412955028092    -0.000007943802    12.000000000000
         C           -2.272662860147    -0.642416971908    -0.000013943802    12.000000000000
         C           -1.304373260147    -1.818458071908    -0.000000843802    12.000000000000
         C            2.755319139853    -0.704825971908     0.000018056198    12.000000000000
         H           -2.550410860147     1.497058028092    -0.000029943802     1.007825032230
         H            0.740172139853    -2.216361971908     0.000016056198     1.007825032230
         H           -0.806032860147     3.114392028092    -0.000102943802     1.007825032230
         H            0.653744139853     2.609551028092     0.878962056198     1.007825032230
         H            0.653903139853     2.609498028092    -0.878875943802     1.007825032230
         H           -3.337320860147    -0.861142971908    -0.000020943802     1.007825032230
         H           -1.671399860147    -2.712842971908     0.000000056198     1.007825032230
         H            2.673933139853    -1.332096971908    -0.894430943802     1.007825032230
         H            2.673929139853    -1.332099971908     0.894465056198     1.007825032230
         H            3.716509139853    -0.191465971908     0.000022056198     1.007825032230

  Basis Set: AUG-CC-PVTZ
    Blend: AUG-CC-PVTZ
  Basis Set: (AUG-CC-PVTZ AUX)
    Blend: AUG-CC-PVTZ-JKFIT
	 Reference Energy          =    -383.7225950377740560 [Eh]
	 Singles Energy            =      -0.0000000000000000 [Eh]
	 Same-Spin Energy          =      -0.4115079627961792 [Eh]
	 Opposite-Spin Energy      =      -1.3208189659409935 [Eh]
	 Correlation Energy        =      -1.7323269287371725 [Eh]
	 Total Energy              =    -385.4549219665112219 [Eh]

	 ================> DF-SCS-MP2 Energies <==================
	-----------------------------------------------------------
	 SCS Same-Spin Scale       =       0.3333333333333333 [-]
	 SCS Opposite-Spin Scale   =       1.2000000000000000 [-]
	 SCS Same-Spin Energy      =      -0.1371693209320597 [Eh]
	 SCS Opposite-Spin Energy  =      -1.5849827591291921 [Eh]
	 SCS Correlation Energy    =      -1.7221520800612518 [Eh]
	 SCS Total Energy          =    -385.4447471178353339 [Eh]
	-----------------------------------------------------------

  Dipole Moment: [D]
     X:     0.9944      Y:    -0.7545      Z:     0.0000     Total:     1.2482

*** Psi4 exiting successfully. Buy a developer a beer!
