                               Psi4 1.4a3.dev225

  ==> Input File <==

--------------------------------------------------------------------------
#psi4
#
memory 32 gb

molecule  {
0 1
  O        1.7572910     0.3059760     0.0000180
  C       -0.4850880     0.9739040    -0.0000120
  C        0.4405670    -0.0879150     0.0000040
  C       -1.8443600     0.6614770    -0.0000180
  C        0.0124250    -1.4183170     0.0000060
  C        0.0151430     2.3911510    -0.0000080
  C       -2.3218996    -0.7590081    -0.0000137
  C       -1.3585410    -1.6984920    -0.0000020
  C        2.7379480    -0.7266300     0.0000180
  H       -2.5677820     1.4752540    -0.0000300
  H        0.7228010    -2.2381660     0.0000160
  H       -0.8234040     3.0925880    -0.0001030
  H        0.6363730     2.5877470     0.8789620
  H        0.6365320     2.5876940    -0.8788760
  H       -3.3546920    -0.8829470    -0.0000210
  H       -1.6887710    -2.7346470     0.0000000
  H        2.6565620    -1.3539010    -0.8944310
  H        2.6565580    -1.3539040     0.8944650
  H        3.6991380    -0.2132700     0.0000220
units angstrom
no_reorient  #important for SAPT in psi4, default
symmetry c1  #important for SAPT in psi4, default
}

set PROPERTIES_ORIGIN ["COM"]
properties('MP2/aug-cc-pvtz', properties = ['dipole'])
--------------------------------------------------------------------------

    Molecular point group: c1
  Charge       = 0
  Multiplicity = 1
  Basis Set: AUG-CC-PVTZ
    Blend: AUG-CC-PVTZ
  Basis Set: (AUG-CC-PVTZ AUX)
    Blend: AUG-CC-PVTZ-JKFIT

    Orbital Energies [Eh]
    ---------------------

    Doubly Occupied:

       1A    -20.585762     2A    -11.297931     3A    -11.284661
       4A    -11.240974     5A    -11.235098     6A    -11.229986
       7A    -11.228227     8A    -11.224737     9A    -11.216725
      10A     -1.405369    11A     -1.141503    12A     -1.049356
      13A     -1.001985    14A     -0.947232    15A     -0.923556
      16A     -0.815252    17A     -0.795889    18A     -0.707833
      19A     -0.669545    20A     -0.654123    21A     -0.652286
      22A     -0.609326    23A     -0.579660    24A     -0.568502
      25A     -0.560887    26A     -0.548787    27A     -0.516694
      28A     -0.509101    29A     -0.505475    30A     -0.464926
      31A     -0.462291    32A     -0.327826    33A     -0.308086

  @DF-RHF Final Energy:  -383.74218110802497

   => Energetics <=

    Nuclear Repulsion Energy =            429.1162694254875305
    One-Electron Energy =               -1371.1777199624280001
    Two-Electron Energy =                 558.3192694289155042
    Total Energy =                       -383.7421811080249654
  Basis Set: (AUG-CC-PVTZ AUX)
    Blend: AUG-CC-PVTZ-RI
    Molecular point group: c1

    Geometry (in Angstrom), charge = 0, multiplicity = 1:

       Center              X                  Y                   Z               Mass
    ------------   -----------------  -----------------  -----------------  -----------------
         O            1.781411751042     0.323161519181     0.000018134839    15.994914619570
         C           -0.460967248958     0.991089519181    -0.000011865161    12.000000000000
         C            0.464687751042    -0.070729480819     0.000004134839    12.000000000000
         C           -1.820239248958     0.678662519181    -0.000017865161    12.000000000000
         C            0.036545751042    -1.401131480819     0.000006134839    12.000000000000
         C            0.039263751042     2.408336519181    -0.000007865161    12.000000000000
         C           -2.297778848958    -0.741822580819    -0.000013565161    12.000000000000
         C           -1.334420248958    -1.681306480819    -0.000001865161    12.000000000000
         C            2.762068751042    -0.709444480819     0.000018134839    12.000000000000
         H           -2.543661248958     1.492439519181    -0.000029865161     1.007825032230
         H            0.746921751042    -2.220980480819     0.000016134839     1.007825032230
         H           -0.799283248958     3.109773519181    -0.000102865161     1.007825032230
         H            0.660493751042     2.604932519181     0.878962134839     1.007825032230
         H            0.660652751042     2.604879519181    -0.878875865161     1.007825032230
         H           -3.330571248958    -0.865761480819    -0.000020865161     1.007825032230
         H           -1.664650248958    -2.717461480819     0.000000134839     1.007825032230
         H            2.680682751042    -1.336715480819    -0.894430865161     1.007825032230
         H            2.680678751042    -1.336718480819     0.894465134839     1.007825032230
         H            3.723258751042    -0.196084480819     0.000022134839     1.007825032230

  Basis Set: AUG-CC-PVTZ
    Blend: AUG-CC-PVTZ
  Basis Set: (AUG-CC-PVTZ AUX)
    Blend: AUG-CC-PVTZ-JKFIT
	 Reference Energy          =    -383.7421811080249654 [Eh]
	 Singles Energy            =      -0.0000000000000000 [Eh]
	 Same-Spin Energy          =      -0.4102533100532323 [Eh]
	 Opposite-Spin Energy      =      -1.3186323254605261 [Eh]
	 Correlation Energy        =      -1.7288856355137585 [Eh]
	 Total Energy              =    -385.4710667435386995 [Eh]

	 ================> DF-SCS-MP2 Energies <==================
	-----------------------------------------------------------
	 SCS Same-Spin Scale       =       0.3333333333333333 [-]
	 SCS Opposite-Spin Scale   =       1.2000000000000000 [-]
	 SCS Same-Spin Energy      =      -0.1367511033510774 [Eh]
	 SCS Opposite-Spin Energy  =      -1.5823587905526313 [Eh]
	 SCS Correlation Energy    =      -1.7191098939037088 [Eh]
	 SCS Total Energy          =    -385.4612910019286574 [Eh]
	-----------------------------------------------------------

  Dipole Moment: [D]
     X:     0.9907      Y:    -0.6814      Z:     0.0000     Total:     1.2024

*** Psi4 exiting successfully. Buy a developer a beer!
