                               Psi4 1.4a3.dev225

  ==> Input File <==

--------------------------------------------------------------------------
#psi4
#
memory 32 gb

molecule  {
0 1
  O        1.7572910     0.3059760     0.0000180
  C       -0.4850880     0.9739040    -0.0000120
  C        0.4405670    -0.0879150     0.0000040
  C       -1.8443600     0.6614770    -0.0000180
  C        0.0124250    -1.4183170     0.0000060
  C        0.0151430     2.3911510    -0.0000080
  C       -2.2263029    -0.4746469    -0.0000146
  C       -1.3585410    -1.6984920    -0.0000020
  C        2.7379480    -0.7266300     0.0000180
  H       -2.5677820     1.4752540    -0.0000300
  H        0.7228010    -2.2381660     0.0000160
  H       -0.8234040     3.0925880    -0.0001030
  H        0.6363730     2.5877470     0.8789620
  H        0.6365320     2.5876940    -0.8788760
  H       -3.3546920    -0.8829470    -0.0000210
  H       -1.6887710    -2.7346470     0.0000000
  H        2.6565620    -1.3539010    -0.8944310
  H        2.6565580    -1.3539040     0.8944650
  H        3.6991380    -0.2132700     0.0000220
units angstrom
no_reorient  #important for SAPT in psi4, default
symmetry c1  #important for SAPT in psi4, default
}

set PROPERTIES_ORIGIN ["COM"]
properties('MP2/aug-cc-pvtz', properties = ['dipole'])
--------------------------------------------------------------------------

    Molecular point group: c1
  Charge       = 0
  Multiplicity = 1
  Basis Set: AUG-CC-PVTZ
    Blend: AUG-CC-PVTZ
  Basis Set: (AUG-CC-PVTZ AUX)
    Blend: AUG-CC-PVTZ-JKFIT

    Orbital Energies [Eh]
    ---------------------

    Doubly Occupied:

       1A    -20.581059     2A    -11.290060     3A    -11.283713
       4A    -11.245007     5A    -11.234833     6A    -11.230555
       7A    -11.221222     8A    -11.214454     9A    -11.204672
      10A     -1.401596    11A     -1.162180    12A     -1.038691
      13A     -1.033389    14A     -0.952345    15A     -0.910371
      16A     -0.815894    17A     -0.789846    18A     -0.711102
      19A     -0.671569    20A     -0.652541    21A     -0.632336
      22A     -0.620188    23A     -0.589141    24A     -0.568963
      25A     -0.567969    26A     -0.535207    27A     -0.520370
      28A     -0.510288    29A     -0.485257    30A     -0.475499
      31A     -0.448627    32A     -0.354951    33A     -0.292880

  @DF-RHF Final Energy:  -383.68954242696680

   => Energetics <=

    Nuclear Repulsion Energy =            432.5184984303131728
    One-Electron Energy =               -1377.9225317117943632
    Two-Electron Energy =                 561.7144908545143380
    Total Energy =                       -383.6895424269667956
  Basis Set: (AUG-CC-PVTZ AUX)
    Blend: AUG-CC-PVTZ-RI
    Molecular point group: c1

    Geometry (in Angstrom), charge = 0, multiplicity = 1:

       Center              X                  Y                   Z               Mass
    ------------   -----------------  -----------------  -----------------  -----------------
         O            1.772014432634     0.295208328964     0.000018223311    15.994914619570
         C           -0.470364567366     0.963136328964    -0.000011776689    12.000000000000
         C            0.455290432634    -0.098682671036     0.000004223311    12.000000000000
         C           -1.829636567366     0.650709328964    -0.000017776689    12.000000000000
         C            0.027148432634    -1.429084671036     0.000006223311    12.000000000000
         C            0.029866432634     2.380383328964    -0.000007776689    12.000000000000
         C           -2.211579467366    -0.485414571036    -0.000014376689    12.000000000000
         C           -1.343817567366    -1.709259671036    -0.000001776689    12.000000000000
         C            2.752671432634    -0.737397671036     0.000018223311    12.000000000000
         H           -2.553058567366     1.464486328964    -0.000029776689     1.007825032230
         H            0.737524432634    -2.248933671036     0.000016223311     1.007825032230
         H           -0.808680567366     3.081820328964    -0.000102776689     1.007825032230
         H            0.651096432634     2.576979328964     0.878962223311     1.007825032230
         H            0.651255432634     2.576926328964    -0.878875776689     1.007825032230
         H           -3.339968567366    -0.893714671036    -0.000020776689     1.007825032230
         H           -1.674047567366    -2.745414671036     0.000000223311     1.007825032230
         H            2.671285432634    -1.364668671036    -0.894430776689     1.007825032230
         H            2.671281432634    -1.364671671036     0.894465223311     1.007825032230
         H            3.713861432634    -0.224037671036     0.000022223311     1.007825032230

  Basis Set: AUG-CC-PVTZ
    Blend: AUG-CC-PVTZ
  Basis Set: (AUG-CC-PVTZ AUX)
    Blend: AUG-CC-PVTZ-JKFIT
	 Reference Energy          =    -383.6895424269667956 [Eh]
	 Singles Energy            =      -0.0000000000000000 [Eh]
	 Same-Spin Energy          =      -0.4112394319773910 [Eh]
	 Opposite-Spin Energy      =      -1.3203770561198229 [Eh]
	 Correlation Energy        =      -1.7316164880972140 [Eh]
	 Total Energy              =    -385.4211589150639838 [Eh]

	 ================> DF-SCS-MP2 Energies <==================
	-----------------------------------------------------------
	 SCS Same-Spin Scale       =       0.3333333333333333 [-]
	 SCS Opposite-Spin Scale   =       1.2000000000000000 [-]
	 SCS Same-Spin Energy      =      -0.1370798106591303 [Eh]
	 SCS Opposite-Spin Energy  =      -1.5844524673437874 [Eh]
	 SCS Correlation Energy    =      -1.7215322780029176 [Eh]
	 SCS Total Energy          =    -385.4110747049697352 [Eh]
	-----------------------------------------------------------

  Dipole Moment: [D]
     X:     0.9996      Y:    -0.8459      Z:     0.0000     Total:     1.3095

*** Psi4 exiting successfully. Buy a developer a beer!
