                               Psi4 1.4a3.dev225

  ==> Input File <==

--------------------------------------------------------------------------
#psi4
#
memory 32 gb

molecule  {
0 1
  O        1.7572910     0.3059760     0.0000180
  C       -0.4850880     0.9739040    -0.0000120
  C        0.4405670    -0.0879150     0.0000040
  C       -1.8443600     0.6614770    -0.0000180
  C        0.0124250    -1.4183170     0.0000060
  C        0.0151430     2.3911510    -0.0000080
  C       -2.2900340    -0.6642210    -0.0000140
  C       -1.3585410    -1.6984920    -0.0000020
  C        2.7379480    -0.7266300     0.0000180
  H       -2.5677820     1.4752540    -0.0000300
  H        0.7228010    -2.2381660     0.0000160
  H       -0.8234040     3.0925880    -0.0001030
  H        0.6363730     2.5877470     0.8789620
  H        0.6365320     2.5876940    -0.8788760
  H       -3.3546920    -0.8829470    -0.0000210
  H       -1.7495026    -2.9252032     0.0000004
  H        2.6565620    -1.3539010    -0.8944310
  H        2.6565580    -1.3539040     0.8944650
  H        3.6991380    -0.2132700     0.0000220
units angstrom
no_reorient  #important for SAPT in psi4, default
symmetry c1  #important for SAPT in psi4, default
}

set PROPERTIES_ORIGIN ["COM"]
properties('MP2/aug-cc-pvtz', properties = ['dipole'])
--------------------------------------------------------------------------

    Molecular point group: c1
  Charge       = 0
  Multiplicity = 1
  Basis Set: AUG-CC-PVTZ
    Blend: AUG-CC-PVTZ
  Basis Set: (AUG-CC-PVTZ AUX)
    Blend: AUG-CC-PVTZ-JKFIT

    Orbital Energies [Eh]
    ---------------------

    Doubly Occupied:

       1A    -20.585189     2A    -11.296790     3A    -11.284944
       4A    -11.256582     5A    -11.235160     6A    -11.233522
       7A    -11.232872     8A    -11.226947     9A    -11.216859
      10A     -1.405076    11A     -1.146299    12A     -1.043090
      13A     -1.010883    14A     -0.949227    15A     -0.917332
      16A     -0.813221    17A     -0.792309    18A     -0.699167
      19A     -0.667632    20A     -0.654417    21A     -0.646952
      22A     -0.610115    23A     -0.576998    24A     -0.569287
      25A     -0.546486    26A     -0.539669    27A     -0.521099
      28A     -0.510051    29A     -0.497908    30A     -0.466527
      31A     -0.465889    32A     -0.332695    33A     -0.306670

  @DF-RHF Final Energy:  -383.73088685633132

   => Energetics <=

    Nuclear Repulsion Energy =            429.1889412917882964
    One-Electron Energy =               -1371.3239311740046560
    Two-Electron Energy =                 558.4041030258850924
    Total Energy =                       -383.7308868563312672
  Basis Set: (AUG-CC-PVTZ AUX)
    Blend: AUG-CC-PVTZ-RI
    Molecular point group: c1

    Geometry (in Angstrom), charge = 0, multiplicity = 1:

       Center              X                  Y                   Z               Mass
    ------------   -----------------  -----------------  -----------------  -----------------
         O            1.778780702904     0.315417000621     0.000018161027    15.994914619570
         C           -0.463598297096     0.983345000621    -0.000011838973    12.000000000000
         C            0.462056702904    -0.078473999379     0.000004161027    12.000000000000
         C           -1.822870297096     0.670918000621    -0.000017838973    12.000000000000
         C            0.033914702904    -1.408875999379     0.000006161027    12.000000000000
         C            0.036632702904     2.400592000621    -0.000007838973    12.000000000000
         C           -2.268544297096    -0.654779999379    -0.000013838973    12.000000000000
         C           -1.337051297096    -1.689050999379    -0.000001838973    12.000000000000
         C            2.759437702904    -0.717188999379     0.000018161027    12.000000000000
         H           -2.546292297096     1.484695000621    -0.000029838973     1.007825032230
         H            0.744290702904    -2.228724999379     0.000016161027     1.007825032230
         H           -0.801914297096     3.102029000621    -0.000102838973     1.007825032230
         H            0.657862702904     2.597188000621     0.878962161027     1.007825032230
         H            0.658021702904     2.597135000621    -0.878875838973     1.007825032230
         H           -3.333202297096    -0.873505999379    -0.000020838973     1.007825032230
         H           -1.728012897096    -2.915762199379     0.000000561027     1.007825032230
         H            2.678051702904    -1.344459999379    -0.894430838973     1.007825032230
         H            2.678047702904    -1.344462999379     0.894465161027     1.007825032230
         H            3.720627702904    -0.203828999379     0.000022161027     1.007825032230

  Basis Set: AUG-CC-PVTZ
    Blend: AUG-CC-PVTZ
  Basis Set: (AUG-CC-PVTZ AUX)
    Blend: AUG-CC-PVTZ-JKFIT
	 Reference Energy          =    -383.7308868563313240 [Eh]
	 Singles Energy            =      -0.0000000000000000 [Eh]
	 Same-Spin Energy          =      -0.4113260711885176 [Eh]
	 Opposite-Spin Energy      =      -1.3203619776379574 [Eh]
	 Correlation Energy        =      -1.7316880488264750 [Eh]
	 Total Energy              =    -385.4625749051577941 [Eh]

	 ================> DF-SCS-MP2 Energies <==================
	-----------------------------------------------------------
	 SCS Same-Spin Scale       =       0.3333333333333333 [-]
	 SCS Opposite-Spin Scale   =       1.2000000000000000 [-]
	 SCS Same-Spin Energy      =      -0.1371086903961725 [Eh]
	 SCS Opposite-Spin Energy  =      -1.5844343731655488 [Eh]
	 SCS Correlation Energy    =      -1.7215430635617213 [Eh]
	 SCS Total Energy          =    -385.4524299198930635 [Eh]
	-----------------------------------------------------------

  Dipole Moment: [D]
     X:     1.0319      Y:    -0.6200      Z:     0.0000     Total:     1.2038

*** Psi4 exiting successfully. Buy a developer a beer!
