                               Psi4 1.4a3.dev225

  ==> Input File <==

--------------------------------------------------------------------------
#psi4
#
memory 32 gb

molecule  {
0 1
  O        1.7572910     0.3059760     0.0000180
  C       -0.4850880     0.9739040    -0.0000120
  C        0.4405670    -0.0879150     0.0000040
  C       -1.8443600     0.6614770    -0.0000180
  C        0.0124250    -1.4183170     0.0000060
  C        0.0151430     2.3911510    -0.0000080
  C       -2.2900340    -0.6642210    -0.0000140
  C       -1.3585410    -1.6984920    -0.0000020
  C        2.7379480    -0.7266300     0.0000180
  H       -2.5677820     1.4752540    -0.0000300
  H        0.7228010    -2.2381660     0.0000160
  H       -0.8234040     3.0925880    -0.0001030
  H        0.6363730     2.5877470     0.8789620
  H        0.6365320     2.5876940    -0.8788760
  H       -3.3546920    -0.8829470    -0.0000210
  H       -1.6887710    -2.7346470     0.0000000
  H        2.5872323    -1.3750141    -0.8700477
  H        2.6565580    -1.3539040     0.8944650
  H        3.6991380    -0.2132700     0.0000220
units angstrom
no_reorient  #important for SAPT in psi4, default
symmetry c1  #important for SAPT in psi4, default
}

set PROPERTIES_ORIGIN ["COM"]
properties('MP2/aug-cc-pvtz', properties = ['dipole'])
--------------------------------------------------------------------------

    Molecular point group: c1
  Charge       = 0
  Multiplicity = 1
  Basis Set: AUG-CC-PVTZ
    Blend: AUG-CC-PVTZ
  Basis Set: (AUG-CC-PVTZ AUX)
    Blend: AUG-CC-PVTZ-JKFIT

    Orbital Energies [Eh]
    ---------------------

    Doubly Occupied:

       1A    -20.583194     2A    -11.295146     3A    -11.284396
       4A    -11.234870     5A    -11.233989     6A    -11.231877
       7A    -11.230516     8A    -11.224555     9A    -11.216033
      10A     -1.403791    11A     -1.145437    12A     -1.044787
      13A     -1.009174    14A     -0.948387    15A     -0.921124
      16A     -0.812244    17A     -0.797220    18A     -0.709659
      19A     -0.667213    20A     -0.652069    21A     -0.646032
      22A     -0.614838    23A     -0.581613    24A     -0.567824
      25A     -0.563778    26A     -0.538930    27A     -0.523909
      28A     -0.506953    29A     -0.496718    30A     -0.475531
      31A     -0.463510    32A     -0.331290    33A     -0.305217

  @DF-RHF Final Energy:  -383.75237604029240

   => Energetics <=

    Nuclear Repulsion Energy =            430.2341311987503900
    One-Electron Energy =               -1373.4493693510548837
    Two-Electron Energy =                 559.4628621120119760
    Total Energy =                       -383.7523760402924609
  Basis Set: (AUG-CC-PVTZ AUX)
    Blend: AUG-CC-PVTZ-RI
    Molecular point group: c1

    Geometry (in Angstrom), charge = 0, multiplicity = 1:

       Center              X                  Y                   Z               Mass
    ------------   -----------------  -----------------  -----------------  -----------------
         O            1.778851688042     0.314018093680    -0.000183141995    15.994914619570
         C           -0.463527311958     0.981946093680    -0.000213141995    12.000000000000
         C            0.462127688042    -0.079872906320    -0.000197141995    12.000000000000
         C           -1.822799311958     0.669519093680    -0.000219141995    12.000000000000
         C            0.033985688042    -1.410274906320    -0.000195141995    12.000000000000
         C            0.036703688042     2.399193093680    -0.000209141995    12.000000000000
         C           -2.268473311958    -0.656178906320    -0.000215141995    12.000000000000
         C           -1.336980311958    -1.690449906320    -0.000203141995    12.000000000000
         C            2.759508688042    -0.718587906320    -0.000183141995    12.000000000000
         H           -2.546221311958     1.483296093680    -0.000231141995     1.007825032230
         H            0.744361688042    -2.230123906320    -0.000185141995     1.007825032230
         H           -0.801843311958     3.100630093680    -0.000304141995     1.007825032230
         H            0.657933688042     2.595789093680     0.878760858005     1.007825032230
         H            0.658092688042     2.595736093680    -0.879077141995     1.007825032230
         H           -3.333131311958    -0.874904906320    -0.000222141995     1.007825032230
         H           -1.667210311958    -2.726604906320    -0.000201141995     1.007825032230
         H            2.608792988042    -1.366972006320    -0.870248841995     1.007825032230
         H            2.678118688042    -1.345861906320     0.894263858005     1.007825032230
         H            3.720698688042    -0.205227906320    -0.000179141995     1.007825032230

  Basis Set: AUG-CC-PVTZ
    Blend: AUG-CC-PVTZ
  Basis Set: (AUG-CC-PVTZ AUX)
    Blend: AUG-CC-PVTZ-JKFIT
	 Reference Energy          =    -383.7523760402924040 [Eh]
	 Singles Energy            =      -0.0000000000000000 [Eh]
	 Same-Spin Energy          =      -0.4109469237150966 [Eh]
	 Opposite-Spin Energy      =      -1.3182927060776390 [Eh]
	 Correlation Energy        =      -1.7292396297927357 [Eh]
	 Total Energy              =    -385.4816156700851479 [Eh]

	 ================> DF-SCS-MP2 Energies <==================
	-----------------------------------------------------------
	 SCS Same-Spin Scale       =       0.3333333333333333 [-]
	 SCS Opposite-Spin Scale   =       1.2000000000000000 [-]
	 SCS Same-Spin Energy      =      -0.1369823079050322 [Eh]
	 SCS Opposite-Spin Energy  =      -1.5819512472931667 [Eh]
	 SCS Correlation Energy    =      -1.7189335551981990 [Eh]
	 SCS Total Energy          =    -385.4713095954905953 [Eh]
	-----------------------------------------------------------

  Dipole Moment: [D]
     X:     0.9664      Y:    -0.7328      Z:     0.0177     Total:     1.2129

*** Psi4 exiting successfully. Buy a developer a beer!
