                               Psi4 1.4a3.dev225

  ==> Input File <==

--------------------------------------------------------------------------
#psi4
#
memory 32 gb

molecule  {
0 1
  O        1.7572910     0.3059760     0.0000180
  C       -0.4850880     0.9739040    -0.0000120
  C        0.4405670    -0.0879150     0.0000040
  C       -1.8443600     0.6614770    -0.0000180
  C        0.0124250    -1.4183170     0.0000060
  C        0.0317848     2.4383002    -0.0000079
  C       -2.2900340    -0.6642210    -0.0000140
  C       -1.3585410    -1.6984920    -0.0000020
  C        2.7379480    -0.7266300     0.0000180
  H       -2.5677820     1.4752540    -0.0000300
  H        0.7228010    -2.2381660     0.0000160
  H       -0.8234040     3.0925880    -0.0001030
  H        0.6363730     2.5877470     0.8789620
  H        0.6365320     2.5876940    -0.8788760
  H       -3.3546920    -0.8829470    -0.0000210
  H       -1.6887710    -2.7346470     0.0000000
  H        2.6565620    -1.3539010    -0.8944310
  H        2.6565580    -1.3539040     0.8944650
  H        3.6991380    -0.2132700     0.0000220
units angstrom
no_reorient  #important for SAPT in psi4, default
symmetry c1  #important for SAPT in psi4, default
}

set PROPERTIES_ORIGIN ["COM"]
properties('MP2/aug-cc-pvtz', properties = ['dipole'])
--------------------------------------------------------------------------

    Molecular point group: c1
  Charge       = 0
  Multiplicity = 1
  Basis Set: AUG-CC-PVTZ
    Blend: AUG-CC-PVTZ
  Basis Set: (AUG-CC-PVTZ AUX)
    Blend: AUG-CC-PVTZ-JKFIT

    Orbital Energies [Eh]
    ---------------------

    Doubly Occupied:

       1A    -20.583662     2A    -11.294921     3A    -11.284081
       4A    -11.235658     5A    -11.234538     6A    -11.231820
       7A    -11.230137     8A    -11.224308     9A    -11.215241
      10A     -1.403578    11A     -1.143751    12A     -1.039922
      13A     -1.008837    14A     -0.947974    15A     -0.922449
      16A     -0.812156    17A     -0.797192    18A     -0.708522
      19A     -0.666125    20A     -0.653241    21A     -0.644090
      22A     -0.612751    23A     -0.580868    24A     -0.572966
      25A     -0.558384    26A     -0.545460    27A     -0.517466
      28A     -0.511641    29A     -0.499099    30A     -0.470236
      31A     -0.464369    32A     -0.331506    33A     -0.305522

  @DF-RHF Final Energy:  -383.75146990696226

   => Energetics <=

    Nuclear Repulsion Energy =            429.2428776087213578
    One-Electron Energy =               -1371.4837508724854160
    Two-Electron Energy =                 558.4894033568018585
    Total Energy =                       -383.7514699069622566
  Basis Set: (AUG-CC-PVTZ AUX)
    Blend: AUG-CC-PVTZ-RI
    Molecular point group: c1

    Geometry (in Angstrom), charge = 0, multiplicity = 1:

       Center              X                  Y                   Z               Mass
    ------------   -----------------  -----------------  -----------------  -----------------
         O            1.776643391015     0.309208939179     0.000018154499    15.994914619570
         C           -0.465735608985     0.977136939179    -0.000011845501    12.000000000000
         C            0.459919391015    -0.084682060821     0.000004154499    12.000000000000
         C           -1.825007608985     0.664709939179    -0.000017845501    12.000000000000
         C            0.031777391015    -1.415084060821     0.000006154499    12.000000000000
         C            0.051137191015     2.441533139179    -0.000007745501    12.000000000000
         C           -2.270681608985    -0.660988060821    -0.000013845501    12.000000000000
         C           -1.339188608985    -1.695259060821    -0.000001845501    12.000000000000
         C            2.757300391015    -0.723397060821     0.000018154499    12.000000000000
         H           -2.548429608985     1.478486939179    -0.000029845501     1.007825032230
         H            0.742153391015    -2.234933060821     0.000016154499     1.007825032230
         H           -0.804051608985     3.095820939179    -0.000102845501     1.007825032230
         H            0.655725391015     2.590979939179     0.878962154499     1.007825032230
         H            0.655884391015     2.590926939179    -0.878875845501     1.007825032230
         H           -3.335339608985    -0.879714060821    -0.000020845501     1.007825032230
         H           -1.669418608985    -2.731414060821     0.000000154499     1.007825032230
         H            2.675914391015    -1.350668060821    -0.894430845501     1.007825032230
         H            2.675910391015    -1.350671060821     0.894465154499     1.007825032230
         H            3.718490391015    -0.210037060821     0.000022154499     1.007825032230

  Basis Set: AUG-CC-PVTZ
    Blend: AUG-CC-PVTZ
  Basis Set: (AUG-CC-PVTZ AUX)
    Blend: AUG-CC-PVTZ-JKFIT
	 Reference Energy          =    -383.7514699069622566 [Eh]
	 Singles Energy            =      -0.0000000000000000 [Eh]
	 Same-Spin Energy          =      -0.4105072335494727 [Eh]
	 Opposite-Spin Energy      =      -1.3179380702548165 [Eh]
	 Correlation Energy        =      -1.7284453038042891 [Eh]
	 Total Energy              =    -385.4799152107665350 [Eh]

	 ================> DF-SCS-MP2 Energies <==================
	-----------------------------------------------------------
	 SCS Same-Spin Scale       =       0.3333333333333333 [-]
	 SCS Opposite-Spin Scale   =       1.2000000000000000 [-]
	 SCS Same-Spin Energy      =      -0.1368357445164909 [Eh]
	 SCS Opposite-Spin Energy  =      -1.5815256843057797 [Eh]
	 SCS Correlation Energy    =      -1.7183614288222706 [Eh]
	 SCS Total Energy          =    -385.4698313357845336 [Eh]
	-----------------------------------------------------------

  Dipole Moment: [D]
     X:     0.9711      Y:    -0.7353      Z:     0.0000     Total:     1.2181

*** Psi4 exiting successfully. Buy a developer a beer!
