                               Psi4 1.4a3.dev225

  ==> Input File <==

--------------------------------------------------------------------------
#psi4
#
memory 32 gb

molecule  {
0 1
  O        1.7572910     0.3059760     0.0000180
  C       -0.4850880     0.9739040    -0.0000120
  C        0.4405670    -0.0879150     0.0000040
  C       -1.8443600     0.6614770    -0.0000180
  C        0.0124250    -1.4183170     0.0000060
  C        0.0151430     2.3911510    -0.0000080
  C       -2.2900340    -0.6642210    -0.0000140
  C       -1.3585410    -1.6984920    -0.0000020
  C        2.7379480    -0.7266300     0.0000180
  H       -2.5677820     1.4752540    -0.0000300
  H        0.7228010    -2.2381660     0.0000160
  H       -0.8234040     3.0925880    -0.0001030
  H        0.6363730     2.5877470     0.8789620
  H        0.6365320     2.5876940    -0.8788760
  H       -3.3546920    -0.8829470    -0.0000210
  H       -1.6887710    -2.7346470     0.0000000
  H        2.6639911    -1.2966424    -0.8127838
  H        2.6565580    -1.3539040     0.8944650
  H        3.6991380    -0.2132700     0.0000220
units angstrom
no_reorient  #important for SAPT in psi4, default
symmetry c1  #important for SAPT in psi4, default
}

set PROPERTIES_ORIGIN ["COM"]
properties('MP2/aug-cc-pvtz', properties = ['dipole'])
--------------------------------------------------------------------------

    Molecular point group: c1
  Charge       = 0
  Multiplicity = 1
  Basis Set: AUG-CC-PVTZ
    Blend: AUG-CC-PVTZ
  Basis Set: (AUG-CC-PVTZ AUX)
    Blend: AUG-CC-PVTZ-JKFIT

    Orbital Energies [Eh]
    ---------------------

    Doubly Occupied:

       1A    -20.582268     2A    -11.294926     3A    -11.272055
       4A    -11.234773     5A    -11.233630     6A    -11.231700
       7A    -11.230303     8A    -11.224253     9A    -11.215778
      10A     -1.403129    11A     -1.145277    12A     -1.044924
      13A     -1.010277    14A     -0.956084    15A     -0.922428
      16A     -0.814320    17A     -0.797568    18A     -0.711659
      19A     -0.666507    20A     -0.661591    21A     -0.646414
      22A     -0.613726    23A     -0.580569    24A     -0.570146
      25A     -0.563378    26A     -0.538659    27A     -0.524564
      28A     -0.512265    29A     -0.496266    30A     -0.475556
      31A     -0.465203    32A     -0.331076    33A     -0.304886

  @DF-RHF Final Energy:  -383.74732088839630

   => Energetics <=

    Nuclear Repulsion Energy =            430.5552119478339819
    One-Electron Energy =               -1374.0527523324631147
    Two-Electron Energy =                 559.7502194962328304
    Total Energy =                       -383.7473208883963025
  Basis Set: (AUG-CC-PVTZ AUX)
    Blend: AUG-CC-PVTZ-RI
    Molecular point group: c1

    Geometry (in Angstrom), charge = 0, multiplicity = 1:

       Center              X                  Y                   Z               Mass
    ------------   -----------------  -----------------  -----------------  -----------------
         O            1.778217974317     0.313371063998    -0.000655907585    15.994914619570
         C           -0.464161025683     0.981299063998    -0.000685907585    12.000000000000
         C            0.461493974317    -0.080519936002    -0.000669907585    12.000000000000
         C           -1.823433025683     0.668872063998    -0.000691907585    12.000000000000
         C            0.033351974317    -1.410921936002    -0.000667907585    12.000000000000
         C            0.036069974317     2.398546063998    -0.000681907585    12.000000000000
         C           -2.269107025683    -0.656825936002    -0.000687907585    12.000000000000
         C           -1.337614025683    -1.691096936002    -0.000675907585    12.000000000000
         C            2.758874974317    -0.719234936002    -0.000655907585    12.000000000000
         H           -2.546855025683     1.482649063998    -0.000703907585     1.007825032230
         H            0.743727974317    -2.230770936002    -0.000657907585     1.007825032230
         H           -0.802477025683     3.099983063998    -0.000776907585     1.007825032230
         H            0.657299974317     2.595142063998     0.878288092415     1.007825032230
         H            0.657458974317     2.595089063998    -0.879549907585     1.007825032230
         H           -3.333765025683    -0.875551936002    -0.000694907585     1.007825032230
         H           -1.667844025683    -2.727251936002    -0.000673907585     1.007825032230
         H            2.684918074317    -1.289247336002    -0.813457707585     1.007825032230
         H            2.677484974317    -1.346508936002     0.893791092415     1.007825032230
         H            3.720064974317    -0.205874936002    -0.000651907585     1.007825032230

  Basis Set: AUG-CC-PVTZ
    Blend: AUG-CC-PVTZ
  Basis Set: (AUG-CC-PVTZ AUX)
    Blend: AUG-CC-PVTZ-JKFIT
	 Reference Energy          =    -383.7473208883963025 [Eh]
	 Singles Energy            =      -0.0000000000000000 [Eh]
	 Same-Spin Energy          =      -0.4107631679609309 [Eh]
	 Opposite-Spin Energy      =      -1.3175987917014595 [Eh]
	 Correlation Energy        =      -1.7283619596623905 [Eh]
	 Total Energy              =    -385.4756828480586819 [Eh]

	 ================> DF-SCS-MP2 Energies <==================
	-----------------------------------------------------------
	 SCS Same-Spin Scale       =       0.3333333333333333 [-]
	 SCS Opposite-Spin Scale   =       1.2000000000000000 [-]
	 SCS Same-Spin Energy      =      -0.1369210559869770 [Eh]
	 SCS Opposite-Spin Energy  =      -1.5811185500417515 [Eh]
	 SCS Correlation Energy    =      -1.7180396060287284 [Eh]
	 SCS Total Energy          =    -385.4653604944250560 [Eh]
	-----------------------------------------------------------

  Dipole Moment: [D]
     X:     1.0147      Y:    -0.7745      Z:    -0.0394     Total:     1.2771

*** Psi4 exiting successfully. Buy a developer a beer!
