                               Psi4 1.4a3.dev225

  ==> Input File <==

--------------------------------------------------------------------------
#psi4
#
memory 32 gb

molecule  {
0 1
  O        1.7572910     0.3059760     0.0000180
  C       -0.4850880     0.9739040    -0.0000120
  C        0.4884696    -0.0735852     0.0000045
  C       -1.8443600     0.6614770    -0.0000180
  C        0.0124250    -1.4183170     0.0000060
  C        0.0151430     2.3911510    -0.0000080
  C       -2.2900340    -0.6642210    -0.0000140
  C       -1.3585410    -1.6984920    -0.0000020
  C        2.7379480    -0.7266300     0.0000180
  H       -2.5677820     1.4752540    -0.0000300
  H        0.7228010    -2.2381660     0.0000160
  H       -0.8234040     3.0925880    -0.0001030
  H        0.6363730     2.5877470     0.8789620
  H        0.6365320     2.5876940    -0.8788760
  H       -3.3546920    -0.8829470    -0.0000210
  H       -1.6887710    -2.7346470     0.0000000
  H        2.6565620    -1.3539010    -0.8944310
  H        2.6565580    -1.3539040     0.8944650
  H        3.6991380    -0.2132700     0.0000220
units angstrom
no_reorient  #important for SAPT in psi4, default
symmetry c1  #important for SAPT in psi4, default
}

set PROPERTIES_ORIGIN ["COM"]
properties('MP2/aug-cc-pvtz', properties = ['dipole'])
--------------------------------------------------------------------------

    Molecular point group: c1
  Charge       = 0
  Multiplicity = 1
  Basis Set: AUG-CC-PVTZ
    Blend: AUG-CC-PVTZ
  Basis Set: (AUG-CC-PVTZ AUX)
    Blend: AUG-CC-PVTZ-JKFIT

    Orbital Energies [Eh]
    ---------------------

    Doubly Occupied:

       1A    -20.593092     2A    -11.299500     3A    -11.289931
       4A    -11.233130     5A    -11.232708     6A    -11.230220
       7A    -11.230013     8A    -11.221364     9A    -11.214304
      10A     -1.429238    11A     -1.138638    12A     -1.042475
      13A     -1.007101    14A     -0.955426    15A     -0.918528
      16A     -0.808998    17A     -0.796308    18A     -0.715200
      19A     -0.672029    20A     -0.664217    21A     -0.649287
      22A     -0.610442    23A     -0.582263    24A     -0.567654
      25A     -0.561894    26A     -0.537026    27A     -0.527344
      28A     -0.514550    29A     -0.498284    30A     -0.467341
      31A     -0.464554    32A     -0.328284    33A     -0.297641

  @DF-RHF Final Energy:  -383.75031094022188

   => Energetics <=

    Nuclear Repulsion Energy =            430.1026061808611303
    One-Electron Energy =               -1373.1078672427197489
    Two-Electron Energy =                 559.2549501216367389
    Total Energy =                       -383.7503109402218797
  Basis Set: (AUG-CC-PVTZ AUX)
    Blend: AUG-CC-PVTZ-RI
    Molecular point group: c1

    Geometry (in Angstrom), charge = 0, multiplicity = 1:

       Center              X                  Y                   Z               Mass
    ------------   -----------------  -----------------  -----------------  -----------------
         O            1.773570401139     0.312435142089     0.000018115179    15.994914619570
         C           -0.468808598861     0.980363142089    -0.000011884821    12.000000000000
         C            0.504749001139    -0.067126057911     0.000004615179    12.000000000000
         C           -1.828080598861     0.667936142089    -0.000017884821    12.000000000000
         C            0.028704401139    -1.411857857911     0.000006115179    12.000000000000
         C            0.031422401139     2.397610142089    -0.000007884821    12.000000000000
         C           -2.273754598861    -0.657761857911    -0.000013884821    12.000000000000
         C           -1.342261598861    -1.692032857911    -0.000001884821    12.000000000000
         C            2.754227401139    -0.720170857911     0.000018115179    12.000000000000
         H           -2.551502598861     1.481713142089    -0.000029884821     1.007825032230
         H            0.739080401139    -2.231706857911     0.000016115179     1.007825032230
         H           -0.807124598861     3.099047142089    -0.000102884821     1.007825032230
         H            0.652652401139     2.594206142089     0.878962115179     1.007825032230
         H            0.652811401139     2.594153142089    -0.878875884821     1.007825032230
         H           -3.338412598861    -0.876487857911    -0.000020884821     1.007825032230
         H           -1.672491598861    -2.728187857911     0.000000115179     1.007825032230
         H            2.672841401139    -1.347441857911    -0.894430884821     1.007825032230
         H            2.672837401139    -1.347444857911     0.894465115179     1.007825032230
         H            3.715417401139    -0.206810857911     0.000022115179     1.007825032230

  Basis Set: AUG-CC-PVTZ
    Blend: AUG-CC-PVTZ
  Basis Set: (AUG-CC-PVTZ AUX)
    Blend: AUG-CC-PVTZ-JKFIT
	 Reference Energy          =    -383.7503109402218797 [Eh]
	 Singles Energy            =      -0.0000000000000000 [Eh]
	 Same-Spin Energy          =      -0.4110394179233403 [Eh]
	 Opposite-Spin Energy      =      -1.3180418830353204 [Eh]
	 Correlation Energy        =      -1.7290813009586607 [Eh]
	 Total Energy              =    -385.4793922411805625 [Eh]

	 ================> DF-SCS-MP2 Energies <==================
	-----------------------------------------------------------
	 SCS Same-Spin Scale       =       0.3333333333333333 [-]
	 SCS Opposite-Spin Scale   =       1.2000000000000000 [-]
	 SCS Same-Spin Energy      =      -0.1370131393077801 [Eh]
	 SCS Opposite-Spin Energy  =      -1.5816502596423845 [Eh]
	 SCS Correlation Energy    =      -1.7186633989501645 [Eh]
	 SCS Total Energy          =    -385.4689743391720640 [Eh]
	-----------------------------------------------------------

  Dipole Moment: [D]
     X:     1.3467      Y:    -0.7087      Z:     0.0000     Total:     1.5218

*** Psi4 exiting successfully. Buy a developer a beer!
