                               Psi4 1.4a3.dev225

  ==> Input File <==

--------------------------------------------------------------------------
#psi4
#
memory 32 gb

molecule  {
0 1
  O        1.7572910     0.3059760     0.0000180
  C       -0.4850880     0.9739040    -0.0000120
  C        0.4405670    -0.0879150     0.0000040
  C       -1.8443600     0.6614770    -0.0000180
  C        0.0124250    -1.4183170     0.0000060
  C        0.0151430     2.3911510    -0.0000080
  C       -2.2900340    -0.6642210    -0.0000140
  C       -1.3585410    -1.6984920    -0.0000020
  C        2.7379480    -0.7266300     0.0000180
  H       -2.5677820     1.4752540    -0.0000300
  H        0.7228010    -2.2381660     0.0000160
  H       -0.8234040     3.0925880    -0.0001030
  H        0.6363730     2.5877470     0.8789620
  H        0.6365320     2.5876940    -0.8788760
  H       -3.3546920    -0.8829470    -0.0000210
  H       -1.6887710    -2.7346470     0.0000000
  H        2.6491329    -1.4111596    -0.9760782
  H        2.6565580    -1.3539040     0.8944650
  H        3.6991380    -0.2132700     0.0000220
units angstrom
no_reorient  #important for SAPT in psi4, default
symmetry c1  #important for SAPT in psi4, default
}

set PROPERTIES_ORIGIN ["COM"]
properties('MP2/aug-cc-pvtz', properties = ['dipole'])
--------------------------------------------------------------------------

    Molecular point group: c1
  Charge       = 0
  Multiplicity = 1
  Basis Set: AUG-CC-PVTZ
    Blend: AUG-CC-PVTZ
  Basis Set: (AUG-CC-PVTZ AUX)
    Blend: AUG-CC-PVTZ-JKFIT

    Orbital Energies [Eh]
    ---------------------

    Doubly Occupied:

       1A    -20.586199     2A    -11.295896     3A    -11.295376
       4A    -11.234789     5A    -11.234334     6A    -11.231986
       7A    -11.230484     8A    -11.224776     9A    -11.216394
      10A     -1.405224    11A     -1.145576    12A     -1.044705
      13A     -1.008838    14A     -0.943847    15A     -0.919563
      16A     -0.811616    17A     -0.796388    18A     -0.707613
      19A     -0.667588    20A     -0.649428    21A     -0.643208
      22A     -0.613154    23A     -0.581840    24A     -0.567095
      25A     -0.563250    26A     -0.539195    27A     -0.521144
      28A     -0.503007    29A     -0.496870    30A     -0.475139
      31A     -0.462395    32A     -0.331258    33A     -0.305681

  @DF-RHF Final Energy:  -383.74630901452110

   => Energetics <=

    Nuclear Repulsion Energy =            429.7041448973091065
    One-Electron Energy =               -1372.3931905464319243
    Two-Electron Energy =                 558.9427366346017152
    Total Energy =                       -383.7463090145211027
  Basis Set: (AUG-CC-PVTZ AUX)
    Blend: AUG-CC-PVTZ-RI
    Molecular point group: c1

    Geometry (in Angstrom), charge = 0, multiplicity = 1:

       Center              X                  Y                   Z               Mass
    ------------   -----------------  -----------------  -----------------  -----------------
         O            1.778340642275     0.314316507666     0.000692236244    15.994914619570
         C           -0.464038357725     0.982244507666     0.000662236244    12.000000000000
         C            0.461616642275    -0.079574492334     0.000678236244    12.000000000000
         C           -1.823310357725     0.669817507666     0.000656236244    12.000000000000
         C            0.033474642275    -1.409976492334     0.000680236244    12.000000000000
         C            0.036192642275     2.399491507666     0.000666236244    12.000000000000
         C           -2.268984357725    -0.655880492334     0.000660236244    12.000000000000
         C           -1.337491357725    -1.690151492334     0.000672236244    12.000000000000
         C            2.758997642275    -0.718289492334     0.000692236244    12.000000000000
         H           -2.546732357725     1.483594507666     0.000644236244     1.007825032230
         H            0.743850642275    -2.229825492334     0.000690236244     1.007825032230
         H           -0.802354357725     3.100928507666     0.000571236244     1.007825032230
         H            0.657422642275     2.596087507666     0.879636236244     1.007825032230
         H            0.657581642275     2.596034507666    -0.878201763756     1.007825032230
         H           -3.333642357725    -0.874606492334     0.000653236244     1.007825032230
         H           -1.667721357725    -2.726306492334     0.000674236244     1.007825032230
         H            2.670182542275    -1.402819092334    -0.975403963756     1.007825032230
         H            2.677607642275    -1.345563492334     0.895139236244     1.007825032230
         H            3.720187642275    -0.204929492334     0.000696236244     1.007825032230

  Basis Set: AUG-CC-PVTZ
    Blend: AUG-CC-PVTZ
  Basis Set: (AUG-CC-PVTZ AUX)
    Blend: AUG-CC-PVTZ-JKFIT
	 Reference Energy          =    -383.7463090145211027 [Eh]
	 Singles Energy            =      -0.0000000000000000 [Eh]
	 Same-Spin Energy          =      -0.4110245839483675 [Eh]
	 Opposite-Spin Energy      =      -1.3190590027388458 [Eh]
	 Correlation Energy        =      -1.7300835866872133 [Eh]
	 Total Energy              =    -385.4763926012083175 [Eh]

	 ================> DF-SCS-MP2 Energies <==================
	-----------------------------------------------------------
	 SCS Same-Spin Scale       =       0.3333333333333333 [-]
	 SCS Opposite-Spin Scale   =       1.2000000000000000 [-]
	 SCS Same-Spin Energy      =      -0.1370081946494558 [Eh]
	 SCS Opposite-Spin Energy  =      -1.5828708032866150 [Eh]
	 SCS Correlation Energy    =      -1.7198789979360709 [Eh]
	 SCS Total Energy          =    -385.4661880124571667 [Eh]
	-----------------------------------------------------------

  Dipole Moment: [D]
     X:     0.9386      Y:    -0.6870      Z:     0.0543     Total:     1.1644

*** Psi4 exiting successfully. Buy a developer a beer!
