                               Psi4 1.4a3.dev225

  ==> Input File <==

--------------------------------------------------------------------------
#psi4
#
memory 32 gb

molecule  {
0 1
  O        1.7572910     0.3059760     0.0000180
  C       -0.4850880     0.9739040    -0.0000120
  C        0.4405670    -0.0879150     0.0000040
  C       -1.8443600     0.6614770    -0.0000180
  C        0.0124250    -1.4183170     0.0000060
  C        0.0151430     2.3911510    -0.0000080
  C       -2.2900340    -0.6642210    -0.0000140
  C       -1.3585410    -1.6984920    -0.0000020
  C        2.7379480    -0.7266300     0.0000180
  H       -2.5677820     1.4752540    -0.0000300
  H        0.7228010    -2.2381660     0.0000160
  H       -0.8234040     3.0925880    -0.0001030
  H        0.6363730     2.5877470     0.8789620
  H        0.6365320     2.5876940    -0.8788760
  H       -3.3546920    -0.8829470    -0.0000210
  H       -1.6887710    -2.7346470     0.0000000
  H        2.6565620    -1.3539010    -0.8944310
  H        2.6565580    -1.3539040     0.8944650
  H        3.7873456    -0.1661594     0.0000224
units angstrom
no_reorient  #important for SAPT in psi4, default
symmetry c1  #important for SAPT in psi4, default
}

set PROPERTIES_ORIGIN ["COM"]
properties('MP2/aug-cc-pvtz', properties = ['dipole'])
--------------------------------------------------------------------------

    Molecular point group: c1
  Charge       = 0
  Multiplicity = 1
  Basis Set: AUG-CC-PVTZ
    Blend: AUG-CC-PVTZ
  Basis Set: (AUG-CC-PVTZ AUX)
    Blend: AUG-CC-PVTZ-JKFIT

    Orbital Energies [Eh]
    ---------------------

    Doubly Occupied:

       1A    -20.585191     2A    -11.295921     3A    -11.295888
       4A    -11.235286     5A    -11.234509     6A    -11.232319
       7A    -11.231049     8A    -11.224989     9A    -11.216350
      10A     -1.404823    11A     -1.145798    12A     -1.044943
      13A     -1.008460    14A     -0.943396    15A     -0.920137
      16A     -0.811342    17A     -0.797496    18A     -0.709502
      19A     -0.664523    20A     -0.654747    21A     -0.646789
      22A     -0.610221    23A     -0.576448    24A     -0.568870
      25A     -0.561719    26A     -0.539245    27A     -0.514787
      28A     -0.509771    29A     -0.495729    30A     -0.474715
      31A     -0.465006    32A     -0.331688    33A     -0.305835

  @DF-RHF Final Energy:  -383.74624013796046

   => Energetics <=

    Nuclear Repulsion Energy =            429.6568057811903145
    One-Electron Energy =               -1372.2911093077718760
    Two-Electron Energy =                 558.8880633886210489
    Total Energy =                       -383.7462401379605126
  Basis Set: (AUG-CC-PVTZ AUX)
    Blend: AUG-CC-PVTZ-RI
    Molecular point group: c1

    Geometry (in Angstrom), charge = 0, multiplicity = 1:

       Center              X                  Y                   Z               Mass
    ------------   -----------------  -----------------  -----------------  -----------------
         O            1.777551074311     0.313454844970     0.000018161027    15.994914619570
         C           -0.464827925689     0.981382844970    -0.000011838973    12.000000000000
         C            0.460827074311    -0.080436155030     0.000004161027    12.000000000000
         C           -1.824099925689     0.668955844970    -0.000017838973    12.000000000000
         C            0.032685074311    -1.410838155030     0.000006161027    12.000000000000
         C            0.035403074311     2.398629844970    -0.000007838973    12.000000000000
         C           -2.269773925689    -0.656742155030    -0.000013838973    12.000000000000
         C           -1.338280925689    -1.691013155030    -0.000001838973    12.000000000000
         C            2.758208074311    -0.719151155030     0.000018161027    12.000000000000
         H           -2.547521925689     1.482732844970    -0.000029838973     1.007825032230
         H            0.743061074311    -2.230687155030     0.000016161027     1.007825032230
         H           -0.803143925689     3.100066844970    -0.000102838973     1.007825032230
         H            0.656633074311     2.595225844970     0.878962161027     1.007825032230
         H            0.656792074311     2.595172844970    -0.878875838973     1.007825032230
         H           -3.334431925689    -0.875468155030    -0.000020838973     1.007825032230
         H           -1.668510925689    -2.727168155030     0.000000161027     1.007825032230
         H            2.676822074311    -1.346422155030    -0.894430838973     1.007825032230
         H            2.676818074311    -1.346425155030     0.894465161027     1.007825032230
         H            3.807605674311    -0.158680555030     0.000022561027     1.007825032230

  Basis Set: AUG-CC-PVTZ
    Blend: AUG-CC-PVTZ
  Basis Set: (AUG-CC-PVTZ AUX)
    Blend: AUG-CC-PVTZ-JKFIT
	 Reference Energy          =    -383.7462401379604557 [Eh]
	 Singles Energy            =      -0.0000000000000000 [Eh]
	 Same-Spin Energy          =      -0.4109101223639222 [Eh]
	 Opposite-Spin Energy      =      -1.3189801368515326 [Eh]
	 Correlation Energy        =      -1.7298902592154548 [Eh]
	 Total Energy              =    -385.4761303971758934 [Eh]

	 ================> DF-SCS-MP2 Energies <==================
	-----------------------------------------------------------
	 SCS Same-Spin Scale       =       0.3333333333333333 [-]
	 SCS Opposite-Spin Scale   =       1.2000000000000000 [-]
	 SCS Same-Spin Energy      =      -0.1369700407879740 [Eh]
	 SCS Opposite-Spin Energy  =      -1.5827761642218390 [Eh]
	 SCS Correlation Energy    =      -1.7197462050098131 [Eh]
	 SCS Total Energy          =    -385.4659863429702682 [Eh]
	-----------------------------------------------------------

  Dipole Moment: [D]
     X:     0.9089      Y:    -0.7376      Z:     0.0000     Total:     1.1706

*** Psi4 exiting successfully. Buy a developer a beer!
