                               Psi4 1.4a3.dev225

  ==> Input File <==

--------------------------------------------------------------------------
#psi4
#
memory 32 gb

molecule  {
0 1
  O        1.7572910     0.3059760     0.0000180
  C       -0.4850880     0.9739040    -0.0000120
  C        0.4405670    -0.0879150     0.0000040
  C       -1.8443600     0.6614770    -0.0000180
  C        0.0124250    -1.4183170     0.0000060
  C       -0.0181406     2.2968525    -0.0000083
  C       -2.2900340    -0.6642210    -0.0000140
  C       -1.3585410    -1.6984920    -0.0000020
  C        2.7379480    -0.7266300     0.0000180
  H       -2.5677820     1.4752540    -0.0000300
  H        0.7228010    -2.2381660     0.0000160
  H       -0.8234040     3.0925880    -0.0001030
  H        0.6363730     2.5877470     0.8789620
  H        0.6365320     2.5876940    -0.8788760
  H       -3.3546920    -0.8829470    -0.0000210
  H       -1.6887710    -2.7346470     0.0000000
  H        2.6565620    -1.3539010    -0.8944310
  H        2.6565580    -1.3539040     0.8944650
  H        3.6991380    -0.2132700     0.0000220
units angstrom
no_reorient  #important for SAPT in psi4, default
symmetry c1  #important for SAPT in psi4, default
}

set PROPERTIES_ORIGIN ["COM"]
properties('MP2/aug-cc-pvtz', properties = ['dipole'])
--------------------------------------------------------------------------

    Molecular point group: c1
  Charge       = 0
  Multiplicity = 1
  Basis Set: AUG-CC-PVTZ
    Blend: AUG-CC-PVTZ
  Basis Set: (AUG-CC-PVTZ AUX)
    Blend: AUG-CC-PVTZ-JKFIT

    Orbital Energies [Eh]
    ---------------------

    Doubly Occupied:

       1A    -20.584774     2A    -11.295609     3A    -11.284659
       4A    -11.235283     5A    -11.232402     6A    -11.230853
       7A    -11.228753     8A    -11.224831     9A    -11.219721
      10A     -1.404815    11A     -1.149995    12A     -1.056473
      13A     -1.010026    14A     -0.949852    15A     -0.918576
      16A     -0.813708    17A     -0.795526    18A     -0.710036
      19A     -0.669070    20A     -0.654092    21A     -0.652327
      22A     -0.615573    23A     -0.583933    24A     -0.575367
      25A     -0.562587    26A     -0.530579    27A     -0.526254
      28A     -0.501872    29A     -0.485230    30A     -0.481487
      31A     -0.463617    32A     -0.329983    33A     -0.303949

  @DF-RHF Final Energy:  -383.74052291463596

   => Energetics <=

    Nuclear Repulsion Energy =            431.9166206628356122
    One-Electron Energy =               -1376.7506663512526757
    Two-Electron Energy =                 561.0935227737811601
    Total Energy =                       -383.7405229146359034
  Basis Set: (AUG-CC-PVTZ AUX)
    Blend: AUG-CC-PVTZ-RI
    Molecular point group: c1

    Geometry (in Angstrom), charge = 0, multiplicity = 1:

       Center              X                  Y                   Z               Mass
    ------------   -----------------  -----------------  -----------------  -----------------
         O            1.781551142857     0.323113488969     0.000018193820    15.994914619570
         C           -0.460827857143     0.991041488969    -0.000011806180    12.000000000000
         C            0.464827142857    -0.070777511031     0.000004193820    12.000000000000
         C           -1.820099857143     0.678614488969    -0.000017806180    12.000000000000
         C            0.036685142857    -1.401179511031     0.000006193820    12.000000000000
         C            0.006119542857     2.313989988969    -0.000008106180    12.000000000000
         C           -2.265773857143    -0.647083511031    -0.000013806180    12.000000000000
         C           -1.334280857143    -1.681354511031    -0.000001806180    12.000000000000
         C            2.762208142857    -0.709492511031     0.000018193820    12.000000000000
         H           -2.543521857143     1.492391488969    -0.000029806180     1.007825032230
         H            0.747061142857    -2.221028511031     0.000016193820     1.007825032230
         H           -0.799143857143     3.109725488969    -0.000102806180     1.007825032230
         H            0.660633142857     2.604884488969     0.878962193820     1.007825032230
         H            0.660792142857     2.604831488969    -0.878875806180     1.007825032230
         H           -3.330431857143    -0.865809511031    -0.000020806180     1.007825032230
         H           -1.664510857143    -2.717509511031     0.000000193820     1.007825032230
         H            2.680822142857    -1.336763511031    -0.894430806180     1.007825032230
         H            2.680818142857    -1.336766511031     0.894465193820     1.007825032230
         H            3.723398142857    -0.196132511031     0.000022193820     1.007825032230

  Basis Set: AUG-CC-PVTZ
    Blend: AUG-CC-PVTZ
  Basis Set: (AUG-CC-PVTZ AUX)
    Blend: AUG-CC-PVTZ-JKFIT
	 Reference Energy          =    -383.7405229146359602 [Eh]
	 Singles Energy            =      -0.0000000000000000 [Eh]
	 Same-Spin Energy          =      -0.4122451445214984 [Eh]
	 Opposite-Spin Energy      =      -1.3197794221274131 [Eh]
	 Correlation Energy        =      -1.7320245666489114 [Eh]
	 Total Energy              =    -385.4725474812848915 [Eh]

	 ================> DF-SCS-MP2 Energies <==================
	-----------------------------------------------------------
	 SCS Same-Spin Scale       =       0.3333333333333333 [-]
	 SCS Opposite-Spin Scale   =       1.2000000000000000 [-]
	 SCS Same-Spin Energy      =      -0.1374150481738328 [Eh]
	 SCS Opposite-Spin Energy  =      -1.5837353065528956 [Eh]
	 SCS Correlation Energy    =      -1.7211503547267284 [Eh]
	 SCS Total Energy          =    -385.4616732693626773 [Eh]
	-----------------------------------------------------------

  Dipole Moment: [D]
     X:     1.0036      Y:    -0.7493      Z:     0.0000     Total:     1.2525

*** Psi4 exiting successfully. Buy a developer a beer!
