                               Psi4 1.4a3.dev225

  ==> Input File <==

--------------------------------------------------------------------------
#psi4
#
memory 32 gb

molecule  {
0 1
  O        1.7572910     0.3059760     0.0000180
  C       -0.4850880     0.9739040    -0.0000120
  C        0.4405670    -0.0879150     0.0000040
  C       -1.8443600     0.6614770    -0.0000180
  C        0.0124250    -1.4183170     0.0000060
  C        0.0151430     2.3911510    -0.0000080
  C       -2.2964071    -0.6831784    -0.0000139
  C       -1.3585410    -1.6984920    -0.0000020
  C        2.7379480    -0.7266300     0.0000180
  H       -2.5677820     1.4752540    -0.0000300
  H        0.7228010    -2.2381660     0.0000160
  H       -0.8234040     3.0925880    -0.0001030
  H        0.6363730     2.5877470     0.8789620
  H        0.6365320     2.5876940    -0.8788760
  H       -3.3546920    -0.8829470    -0.0000210
  H       -1.6887710    -2.7346470     0.0000000
  H        2.6565620    -1.3539010    -0.8944310
  H        2.6565580    -1.3539040     0.8944650
  H        3.6991380    -0.2132700     0.0000220
units angstrom
no_reorient  #important for SAPT in psi4, default
symmetry c1  #important for SAPT in psi4, default
}

set PROPERTIES_ORIGIN ["COM"]
properties('MP2/aug-cc-pvtz', properties = ['dipole'])
--------------------------------------------------------------------------

    Molecular point group: c1
  Charge       = 0
  Multiplicity = 1
  Basis Set: AUG-CC-PVTZ
    Blend: AUG-CC-PVTZ
  Basis Set: (AUG-CC-PVTZ AUX)
    Blend: AUG-CC-PVTZ-JKFIT

    Orbital Energies [Eh]
    ---------------------

    Doubly Occupied:

       1A    -20.584340     2A    -11.295662     3A    -11.284338
       4A    -11.234671     5A    -11.233730     6A    -11.233440
       7A    -11.229925     8A    -11.224567     9A    -11.216200
      10A     -1.404230    11A     -1.144429    12A     -1.045596
      13A     -1.007413    14A     -0.948056    15A     -0.921759
      16A     -0.813015    17A     -0.796771    18A     -0.708754
      19A     -0.666858    20A     -0.653614    21A     -0.647795
      22A     -0.612642    23A     -0.580557    24A     -0.568420
      25A     -0.562833    26A     -0.540633    27A     -0.521106
      28A     -0.508929    29A     -0.498900    30A     -0.473925
      31A     -0.463745    32A     -0.329796    33A     -0.306226

  @DF-RHF Final Energy:  -383.75260802585223

   => Energetics <=

    Nuclear Repulsion Energy =            429.8979891271668521
    One-Electron Energy =               -1372.7754381729002944
    Two-Electron Energy =                 559.1248410198812735
    Total Energy =                       -383.7526080258521688
  Basis Set: (AUG-CC-PVTZ AUX)
    Blend: AUG-CC-PVTZ-RI
    Molecular point group: c1

    Geometry (in Angstrom), charge = 0, multiplicity = 1:

       Center              X                  Y                   Z               Mass
    ------------   -----------------  -----------------  -----------------  -----------------
         O            1.778905794879     0.315707330536     0.000018154499    15.994914619570
         C           -0.463473205121     0.983635330536    -0.000011845501    12.000000000000
         C            0.462181794879    -0.078183669464     0.000004154499    12.000000000000
         C           -1.822745205121     0.671208330536    -0.000017845501    12.000000000000
         C            0.034039794879    -1.408585669464     0.000006154499    12.000000000000
         C            0.036757794879     2.400882330536    -0.000007845501    12.000000000000
         C           -2.274792305121    -0.673447069464    -0.000013745501    12.000000000000
         C           -1.336926205121    -1.688760669464    -0.000001845501    12.000000000000
         C            2.759562794879    -0.716898669464     0.000018154499    12.000000000000
         H           -2.546167205121     1.484985330536    -0.000029845501     1.007825032230
         H            0.744415794879    -2.228434669464     0.000016154499     1.007825032230
         H           -0.801789205121     3.102319330536    -0.000102845501     1.007825032230
         H            0.657987794879     2.597478330536     0.878962154499     1.007825032230
         H            0.658146794879     2.597425330536    -0.878875845501     1.007825032230
         H           -3.333077205121    -0.873215669464    -0.000020845501     1.007825032230
         H           -1.667156205121    -2.724915669464     0.000000154499     1.007825032230
         H            2.678176794879    -1.344169669464    -0.894430845501     1.007825032230
         H            2.678172794879    -1.344172669464     0.894465154499     1.007825032230
         H            3.720752794879    -0.203538669464     0.000022154499     1.007825032230

  Basis Set: AUG-CC-PVTZ
    Blend: AUG-CC-PVTZ
  Basis Set: (AUG-CC-PVTZ AUX)
    Blend: AUG-CC-PVTZ-JKFIT
	 Reference Energy          =    -383.7526080258522256 [Eh]
	 Singles Energy            =      -0.0000000000000000 [Eh]
	 Same-Spin Energy          =      -0.4107563442477162 [Eh]
	 Opposite-Spin Energy      =      -1.3181886800446321 [Eh]
	 Correlation Energy        =      -1.7289450242923483 [Eh]
	 Total Energy              =    -385.4815530501445551 [Eh]

	 ================> DF-SCS-MP2 Energies <==================
	-----------------------------------------------------------
	 SCS Same-Spin Scale       =       0.3333333333333333 [-]
	 SCS Opposite-Spin Scale   =       1.2000000000000000 [-]
	 SCS Same-Spin Energy      =      -0.1369187814159054 [Eh]
	 SCS Opposite-Spin Energy  =      -1.5818264160535584 [Eh]
	 SCS Correlation Energy    =      -1.7187451974694639 [Eh]
	 SCS Total Energy          =    -385.4713532233216711 [Eh]
	-----------------------------------------------------------

  Dipole Moment: [D]
     X:     0.9827      Y:    -0.7252      Z:     0.0000     Total:     1.2213

*** Psi4 exiting successfully. Buy a developer a beer!
