                               Psi4 1.4a3.dev225

  ==> Input File <==

--------------------------------------------------------------------------
#psi4
#
memory 32 gb

molecule  {
0 1
  O        1.7572910     0.3059760     0.0000180
  C       -0.4850880     0.9739040    -0.0000120
  C        0.4405670    -0.0879150     0.0000040
  C       -1.8443600     0.6614770    -0.0000180
  C        0.0124250    -1.4183170     0.0000060
  C        0.0084863     2.3722913    -0.0000081
  C       -2.2900340    -0.6642210    -0.0000140
  C       -1.3585410    -1.6984920    -0.0000020
  C        2.7379480    -0.7266300     0.0000180
  H       -2.5677820     1.4752540    -0.0000300
  H        0.7228010    -2.2381660     0.0000160
  H       -0.8234040     3.0925880    -0.0001030
  H        0.6363730     2.5877470     0.8789620
  H        0.6365320     2.5876940    -0.8788760
  H       -3.3546920    -0.8829470    -0.0000210
  H       -1.6887710    -2.7346470     0.0000000
  H        2.6565620    -1.3539010    -0.8944310
  H        2.6565580    -1.3539040     0.8944650
  H        3.6991380    -0.2132700     0.0000220
units angstrom
no_reorient  #important for SAPT in psi4, default
symmetry c1  #important for SAPT in psi4, default
}

set PROPERTIES_ORIGIN ["COM"]
properties('MP2/aug-cc-pvtz', properties = ['dipole'])
--------------------------------------------------------------------------

    Molecular point group: c1
  Charge       = 0
  Multiplicity = 1
  Basis Set: AUG-CC-PVTZ
    Blend: AUG-CC-PVTZ
  Basis Set: (AUG-CC-PVTZ AUX)
    Blend: AUG-CC-PVTZ-JKFIT

    Orbital Energies [Eh]
    ---------------------

    Doubly Occupied:

       1A    -20.584135     2A    -11.295181     3A    -11.284337
       4A    -11.234856     5A    -11.233217     6A    -11.231732
       7A    -11.230452     8A    -11.224544     9A    -11.216576
      10A     -1.404111    11A     -1.146118    12A     -1.046789
      13A     -1.009350    14A     -0.948641    15A     -0.920493
      16A     -0.812796    17A     -0.796720    18A     -0.709170
      19A     -0.667319    20A     -0.653599    21A     -0.647184
      22A     -0.613817    23A     -0.581331    24A     -0.566853
      25A     -0.565807    26A     -0.536374    27A     -0.523515
      28A     -0.507647    29A     -0.494998    30A     -0.476930
      31A     -0.464224    32A     -0.330960    33A     -0.305061

  @DF-RHF Final Energy:  -383.75232600622417

   => Energetics <=

    Nuclear Repulsion Energy =            430.4563871943284994
    One-Electron Energy =               -1373.8877543604035054
    Two-Electron Energy =                 559.6790411598508399
    Total Energy =                       -383.7523260062241661
  Basis Set: (AUG-CC-PVTZ AUX)
    Blend: AUG-CC-PVTZ-RI
    Molecular point group: c1

    Geometry (in Angstrom), charge = 0, multiplicity = 1:

       Center              X                  Y                   Z               Mass
    ------------   -----------------  -----------------  -----------------  -----------------
         O            1.778933673242     0.315697726460     0.000018174160    15.994914619570
         C           -0.463445326758     0.983625726460    -0.000011825840    12.000000000000
         C            0.462209673242    -0.078193273540     0.000004174160    12.000000000000
         C           -1.822717326758     0.671198726460    -0.000017825840    12.000000000000
         C            0.034067673242    -1.408595273540     0.000006174160    12.000000000000
         C            0.030128973242     2.382013026460    -0.000007925840    12.000000000000
         C           -2.268391326758    -0.654499273540    -0.000013825840    12.000000000000
         C           -1.336898326758    -1.688770273540    -0.000001825840    12.000000000000
         C            2.759590673242    -0.716908273540     0.000018174160    12.000000000000
         H           -2.546139326758     1.484975726460    -0.000029825840     1.007825032230
         H            0.744443673242    -2.228444273540     0.000016174160     1.007825032230
         H           -0.801761326758     3.102309726460    -0.000102825840     1.007825032230
         H            0.658015673242     2.597468726460     0.878962174160     1.007825032230
         H            0.658174673242     2.597415726460    -0.878875825840     1.007825032230
         H           -3.333049326758    -0.873225273540    -0.000020825840     1.007825032230
         H           -1.667128326758    -2.724925273540     0.000000174160     1.007825032230
         H            2.678204673242    -1.344179273540    -0.894430825840     1.007825032230
         H            2.678200673242    -1.344182273540     0.894465174160     1.007825032230
         H            3.720780673242    -0.203548273540     0.000022174160     1.007825032230

  Basis Set: AUG-CC-PVTZ
    Blend: AUG-CC-PVTZ
  Basis Set: (AUG-CC-PVTZ AUX)
    Blend: AUG-CC-PVTZ-JKFIT
	 Reference Energy          =    -383.7523260062241661 [Eh]
	 Singles Energy            =      -0.0000000000000000 [Eh]
	 Same-Spin Energy          =      -0.4110686313458110 [Eh]
	 Opposite-Spin Energy      =      -1.3183857324620729 [Eh]
	 Correlation Energy        =      -1.7294543638078839 [Eh]
	 Total Energy              =    -385.4817803700320269 [Eh]

	 ================> DF-SCS-MP2 Energies <==================
	-----------------------------------------------------------
	 SCS Same-Spin Scale       =       0.3333333333333333 [-]
	 SCS Opposite-Spin Scale   =       1.2000000000000000 [-]
	 SCS Same-Spin Energy      =      -0.1370228771152703 [Eh]
	 SCS Opposite-Spin Energy  =      -1.5820628789544875 [Eh]
	 SCS Correlation Energy    =      -1.7190857560697579 [Eh]
	 SCS Total Energy          =    -385.4714117622939398 [Eh]
	-----------------------------------------------------------

  Dipole Moment: [D]
     X:     0.9857      Y:    -0.7380      Z:     0.0000     Total:     1.2314

*** Psi4 exiting successfully. Buy a developer a beer!
