                               Psi4 1.4a3.dev225

  ==> Input File <==

--------------------------------------------------------------------------
#psi4
#
memory 32 gb

molecule  {
0 1
  O        1.7572910     0.3059760     0.0000180
  C       -0.4850880     0.9739040    -0.0000120
  C        0.4405670    -0.0879150     0.0000040
  C       -1.8443600     0.6614770    -0.0000180
  C        0.0124250    -1.4183170     0.0000060
  C        0.0151430     2.3911510    -0.0000080
  C       -2.2900340    -0.6642210    -0.0000140
  C       -1.3585410    -1.6984920    -0.0000020
  C        2.7379480    -0.7266300     0.0000180
  H       -2.5677820     1.4752540    -0.0000300
  H        0.7228010    -2.2381660     0.0000160
  H       -0.8234040     3.0925880    -0.0001030
  H        0.6363730     2.5877470     0.8789620
  H        0.6365320     2.5876940    -0.8788760
  H       -3.3546920    -0.8829470    -0.0000210
  H       -1.6887710    -2.7346470     0.0000000
  H        2.6565620    -1.3539010    -0.8944310
  H        2.6565580    -1.3539040     0.8944650
  H        3.6109304    -0.2603806     0.0000216
units angstrom
no_reorient  #important for SAPT in psi4, default
symmetry c1  #important for SAPT in psi4, default
}

set PROPERTIES_ORIGIN ["COM"]
properties('MP2/aug-cc-pvtz', properties = ['dipole'])
--------------------------------------------------------------------------

    Molecular point group: c1
  Charge       = 0
  Multiplicity = 1
  Basis Set: AUG-CC-PVTZ
    Blend: AUG-CC-PVTZ
  Basis Set: (AUG-CC-PVTZ AUX)
    Blend: AUG-CC-PVTZ-JKFIT

    Orbital Energies [Eh]
    ---------------------

    Doubly Occupied:

       1A    -20.583105     2A    -11.294487     3A    -11.272100
       4A    -11.234362     5A    -11.233493     6A    -11.231433
       7A    -11.229836     8A    -11.224090     9A    -11.215815
      10A     -1.403459    11A     -1.145141    12A     -1.044748
      13A     -1.011093    14A     -0.956122    15A     -0.921889
      16A     -0.814485    17A     -0.796451    18A     -0.708716
      19A     -0.671162    20A     -0.652625    21A     -0.645753
      22A     -0.618898    23A     -0.586226    24A     -0.568067
      25A     -0.564299    26A     -0.538631    27A     -0.527069
      28A     -0.508331    29A     -0.496768    30A     -0.475557
      31A     -0.463780    32A     -0.330732    33A     -0.304778

  @DF-RHF Final Energy:  -383.74686750746946

   => Energetics <=

    Nuclear Repulsion Energy =            430.6094111984056099
    One-Electron Energy =               -1374.1655574300330045
    Two-Electron Energy =                 559.8092787241579344
    Total Energy =                       -383.7468675074694602
  Basis Set: (AUG-CC-PVTZ AUX)
    Blend: AUG-CC-PVTZ-RI
    Molecular point group: c1

    Geometry (in Angstrom), charge = 0, multiplicity = 1:

       Center              X                  Y                   Z               Mass
    ------------   -----------------  -----------------  -----------------  -----------------
         O            1.779007542280     0.314232726694     0.000018167632    15.994914619570
         C           -0.463371457720     0.982160726694    -0.000011832368    12.000000000000
         C            0.462283542280    -0.079658273306     0.000004167632    12.000000000000
         C           -1.822643457720     0.669733726694    -0.000017832368    12.000000000000
         C            0.034141542280    -1.410060273306     0.000006167632    12.000000000000
         C            0.036859542280     2.399407726694    -0.000007832368    12.000000000000
         C           -2.268317457720    -0.655964273306    -0.000013832368    12.000000000000
         C           -1.336824457720    -1.690235273306    -0.000001832368    12.000000000000
         C            2.759664542280    -0.718373273306     0.000018167632    12.000000000000
         H           -2.546065457720     1.483510726694    -0.000029832368     1.007825032230
         H            0.744517542280    -2.229909273306     0.000016167632     1.007825032230
         H           -0.801687457720     3.100844726694    -0.000102832368     1.007825032230
         H            0.658089542280     2.596003726694     0.878962167632     1.007825032230
         H            0.658248542280     2.595950726694    -0.878875832368     1.007825032230
         H           -3.332975457720    -0.874690273306    -0.000020832368     1.007825032230
         H           -1.667054457720    -2.726390273306     0.000000167632     1.007825032230
         H            2.678278542280    -1.345644273306    -0.894430832368     1.007825032230
         H            2.678274542280    -1.345647273306     0.894465167632     1.007825032230
         H            3.632646942280    -0.252123873306     0.000021767632     1.007825032230

  Basis Set: AUG-CC-PVTZ
    Blend: AUG-CC-PVTZ
  Basis Set: (AUG-CC-PVTZ AUX)
    Blend: AUG-CC-PVTZ-JKFIT
	 Reference Energy          =    -383.7468675074694602 [Eh]
	 Singles Energy            =      -0.0000000000000000 [Eh]
	 Same-Spin Energy          =      -0.4108620993567199 [Eh]
	 Opposite-Spin Energy      =      -1.3176547276501402 [Eh]
	 Correlation Energy        =      -1.7285168270068600 [Eh]
	 Total Energy              =    -385.4753843344763027 [Eh]

	 ================> DF-SCS-MP2 Energies <==================
	-----------------------------------------------------------
	 SCS Same-Spin Scale       =       0.3333333333333333 [-]
	 SCS Opposite-Spin Scale   =       1.2000000000000000 [-]
	 SCS Same-Spin Energy      =      -0.1369540331189066 [Eh]
	 SCS Opposite-Spin Energy  =      -1.5811856731801683 [Eh]
	 SCS Correlation Energy    =      -1.7181397062990749 [Eh]
	 SCS Total Energy          =    -385.4650072137685584 [Eh]
	-----------------------------------------------------------

  Dipole Moment: [D]
     X:     1.0343      Y:    -0.7396      Z:     0.0000     Total:     1.2716

*** Psi4 exiting successfully. Buy a developer a beer!
