                               Psi4 1.4a3.dev225

  ==> Input File <==

--------------------------------------------------------------------------
#psi4
#
memory 32 gb

molecule  {
0 1
  O        1.7572910     0.3059760     0.0000180
  C       -0.4850880     0.9739040    -0.0000120
  C        0.4405670    -0.0879150     0.0000040
  C       -1.7956306     0.6726774    -0.0000178
  C        0.0124250    -1.4183170     0.0000060
  C        0.0151430     2.3911510    -0.0000080
  C       -2.2900340    -0.6642210    -0.0000140
  C       -1.3585410    -1.6984920    -0.0000020
  C        2.7379480    -0.7266300     0.0000180
  H       -2.5677820     1.4752540    -0.0000300
  H        0.7228010    -2.2381660     0.0000160
  H       -0.8234040     3.0925880    -0.0001030
  H        0.6363730     2.5877470     0.8789620
  H        0.6365320     2.5876940    -0.8788760
  H       -3.3546920    -0.8829470    -0.0000210
  H       -1.6887710    -2.7346470     0.0000000
  H        2.6565620    -1.3539010    -0.8944310
  H        2.6565580    -1.3539040     0.8944650
  H        3.6991380    -0.2132700     0.0000220
units angstrom
no_reorient  #important for SAPT in psi4, default
symmetry c1  #important for SAPT in psi4, default
}

set PROPERTIES_ORIGIN ["COM"]
properties('MP2/aug-cc-pvtz', properties = ['dipole'])
--------------------------------------------------------------------------

    Molecular point group: c1
  Charge       = 0
  Multiplicity = 1
  Basis Set: AUG-CC-PVTZ
    Blend: AUG-CC-PVTZ
  Basis Set: (AUG-CC-PVTZ AUX)
    Blend: AUG-CC-PVTZ-JKFIT

    Orbital Energies [Eh]
    ---------------------

    Doubly Occupied:

       1A    -20.585035     2A    -11.296602     3A    -11.284471
       4A    -11.234449     5A    -11.231209     6A    -11.228804
       7A    -11.228517     8A    -11.226113     9A    -11.215904
      10A     -1.404774    11A     -1.148919    12A     -1.047889
      13A     -1.006191    14A     -0.947567    15A     -0.923711
      16A     -0.810995    17A     -0.799245    18A     -0.708493
      19A     -0.667878    20A     -0.653984    21A     -0.646667
      22A     -0.608261    23A     -0.581563    24A     -0.569713
      25A     -0.565421    26A     -0.537421    27A     -0.520691
      28A     -0.509384    29A     -0.501763    30A     -0.469536
      31A     -0.464419    32A     -0.335760    33A     -0.304393

  @DF-RHF Final Energy:  -383.75030498425076

   => Energetics <=

    Nuclear Repulsion Energy =            430.7753055837252987
    One-Electron Energy =               -1374.5197390795012780
    Two-Electron Energy =                 559.9941285115252185
    Total Energy =                       -383.7503049842507608
  Basis Set: (AUG-CC-PVTZ AUX)
    Blend: AUG-CC-PVTZ-RI
    Molecular point group: c1

    Geometry (in Angstrom), charge = 0, multiplicity = 1:

       Center              X                  Y                   Z               Mass
    ------------   -----------------  -----------------  -----------------  -----------------
         O            1.773489125291     0.312742767438     0.000018144669    15.994914619570
         C           -0.468889874709     0.980670767438    -0.000011855331    12.000000000000
         C            0.456765125291    -0.081148232562     0.000004144669    12.000000000000
         C           -1.779432474709     0.679444167438    -0.000017655331    12.000000000000
         C            0.028623125291    -1.411550232562     0.000006144669    12.000000000000
         C            0.031341125291     2.397917767438    -0.000007855331    12.000000000000
         C           -2.273835874709    -0.657454232562    -0.000013855331    12.000000000000
         C           -1.342342874709    -1.691725232562    -0.000001855331    12.000000000000
         C            2.754146125291    -0.719863232562     0.000018144669    12.000000000000
         H           -2.551583874709     1.482020767438    -0.000029855331     1.007825032230
         H            0.738999125291    -2.231399232562     0.000016144669     1.007825032230
         H           -0.807205874709     3.099354767438    -0.000102855331     1.007825032230
         H            0.652571125291     2.594513767438     0.878962144669     1.007825032230
         H            0.652730125291     2.594460767438    -0.878875855331     1.007825032230
         H           -3.338493874709    -0.876180232562    -0.000020855331     1.007825032230
         H           -1.672572874709    -2.727880232562     0.000000144669     1.007825032230
         H            2.672760125291    -1.347134232562    -0.894430855331     1.007825032230
         H            2.672756125291    -1.347137232562     0.894465144669     1.007825032230
         H            3.715336125291    -0.206503232562     0.000022144669     1.007825032230

  Basis Set: AUG-CC-PVTZ
    Blend: AUG-CC-PVTZ
  Basis Set: (AUG-CC-PVTZ AUX)
    Blend: AUG-CC-PVTZ-JKFIT
	 Reference Energy          =    -383.7503049842507608 [Eh]
	 Singles Energy            =      -0.0000000000000000 [Eh]
	 Same-Spin Energy          =      -0.4106421546025979 [Eh]
	 Opposite-Spin Energy      =      -1.3181287035066553 [Eh]
	 Correlation Energy        =      -1.7287708581092533 [Eh]
	 Total Energy              =    -385.4790758423600323 [Eh]

	 ================> DF-SCS-MP2 Energies <==================
	-----------------------------------------------------------
	 SCS Same-Spin Scale       =       0.3333333333333333 [-]
	 SCS Opposite-Spin Scale   =       1.2000000000000000 [-]
	 SCS Same-Spin Energy      =      -0.1368807182008659 [Eh]
	 SCS Opposite-Spin Energy  =      -1.5817544442079863 [Eh]
	 SCS Correlation Energy    =      -1.7186351624088523 [Eh]
	 SCS Total Energy          =    -385.4689401466596337 [Eh]
	-----------------------------------------------------------

  Dipole Moment: [D]
     X:     0.9975      Y:    -0.7418      Z:     0.0000     Total:     1.2431

*** Psi4 exiting successfully. Buy a developer a beer!
