                               Psi4 1.4a3.dev225

  ==> Input File <==

--------------------------------------------------------------------------
#psi4
#
memory 32 gb

molecule  {
0 1
  O        1.7572910     0.3059760     0.0000180
  C       -0.4850880     0.9739040    -0.0000120
  C        0.4405670    -0.0879150     0.0000040
  C       -1.8443600     0.6614770    -0.0000180
  C        0.0124250    -1.4183170     0.0000060
  C        0.0217997     2.4100107    -0.0000079
  C       -2.2900340    -0.6642210    -0.0000140
  C       -1.3585410    -1.6984920    -0.0000020
  C        2.7379480    -0.7266300     0.0000180
  H       -2.5677820     1.4752540    -0.0000300
  H        0.7228010    -2.2381660     0.0000160
  H       -0.8234040     3.0925880    -0.0001030
  H        0.6363730     2.5877470     0.8789620
  H        0.6365320     2.5876940    -0.8788760
  H       -3.3546920    -0.8829470    -0.0000210
  H       -1.6887710    -2.7346470     0.0000000
  H        2.6565620    -1.3539010    -0.8944310
  H        2.6565580    -1.3539040     0.8944650
  H        3.6991380    -0.2132700     0.0000220
units angstrom
no_reorient  #important for SAPT in psi4, default
symmetry c1  #important for SAPT in psi4, default
}

set PROPERTIES_ORIGIN ["COM"]
properties('MP2/aug-cc-pvtz', properties = ['dipole'])
--------------------------------------------------------------------------

    Molecular point group: c1
  Charge       = 0
  Multiplicity = 1
  Basis Set: AUG-CC-PVTZ
    Blend: AUG-CC-PVTZ
  Basis Set: (AUG-CC-PVTZ AUX)
    Blend: AUG-CC-PVTZ-JKFIT

    Orbital Energies [Eh]
    ---------------------

    Doubly Occupied:

       1A    -20.583858     2A    -11.295024     3A    -11.284189
       4A    -11.234672     5A    -11.234652     6A    -11.231832
       7A    -11.230270     8A    -11.224409     9A    -11.215631
      10A     -1.403799    11A     -1.144677    12A     -1.042691
      13A     -1.009051    14A     -0.948214    15A     -0.921594
      16A     -0.812420    17A     -0.797040    18A     -0.708788
      19A     -0.666604    20A     -0.653388    21A     -0.645281
      22A     -0.613162    23A     -0.580921    24A     -0.570115
      25A     -0.561148    26A     -0.541530    27A     -0.520217
      28A     -0.510081    29A     -0.497757    30A     -0.473518
      31A     -0.464339    32A     -0.331306    33A     -0.305369

  @DF-RHF Final Energy:  -383.75293572728174

   => Energetics <=

    Nuclear Repulsion Energy =            429.7566158174756765
    One-Electron Energy =               -1372.5040092799256399
    Two-Electron Energy =                 558.9944577351682256
    Total Energy =                       -383.7529357272817379
  Basis Set: (AUG-CC-PVTZ AUX)
    Blend: AUG-CC-PVTZ-RI
    Molecular point group: c1

    Geometry (in Angstrom), charge = 0, multiplicity = 1:

       Center              X                  Y                   Z               Mass
    ------------   -----------------  -----------------  -----------------  -----------------
         O            1.777624943350     0.311989845205     0.000018154499    15.994914619570
         C           -0.464754056650     0.979917845205    -0.000011845501    12.000000000000
         C            0.460900943350    -0.081901154795     0.000004154499    12.000000000000
         C           -1.824026056650     0.667490845205    -0.000017845501    12.000000000000
         C            0.032758943350    -1.412303154795     0.000006154499    12.000000000000
         C            0.042133643350     2.416024545205    -0.000007745501    12.000000000000
         C           -2.269700056650    -0.658207154795    -0.000013845501    12.000000000000
         C           -1.338207056650    -1.692478154795    -0.000001845501    12.000000000000
         C            2.758281943350    -0.720616154795     0.000018154499    12.000000000000
         H           -2.547448056650     1.481267845205    -0.000029845501     1.007825032230
         H            0.743134943350    -2.232152154795     0.000016154499     1.007825032230
         H           -0.803070056650     3.098601845205    -0.000102845501     1.007825032230
         H            0.656706943350     2.593760845205     0.878962154499     1.007825032230
         H            0.656865943350     2.593707845205    -0.878875845501     1.007825032230
         H           -3.334358056650    -0.876933154795    -0.000020845501     1.007825032230
         H           -1.668437056650    -2.728633154795     0.000000154499     1.007825032230
         H            2.676895943350    -1.347887154795    -0.894430845501     1.007825032230
         H            2.676891943350    -1.347890154795     0.894465154499     1.007825032230
         H            3.719471943350    -0.207256154795     0.000022154499     1.007825032230

  Basis Set: AUG-CC-PVTZ
    Blend: AUG-CC-PVTZ
  Basis Set: (AUG-CC-PVTZ AUX)
    Blend: AUG-CC-PVTZ-JKFIT
	 Reference Energy          =    -383.7529357272817379 [Eh]
	 Singles Energy            =      -0.0000000000000000 [Eh]
	 Same-Spin Energy          =      -0.4106980212633794 [Eh]
	 Opposite-Spin Energy      =      -1.3180477894677496 [Eh]
	 Correlation Energy        =      -1.7287458107311289 [Eh]
	 Total Energy              =    -385.4816815380128787 [Eh]

	 ================> DF-SCS-MP2 Energies <==================
	-----------------------------------------------------------
	 SCS Same-Spin Scale       =       0.3333333333333333 [-]
	 SCS Opposite-Spin Scale   =       1.2000000000000000 [-]
	 SCS Same-Spin Energy      =      -0.1368993404211264 [Eh]
	 SCS Opposite-Spin Energy  =      -1.5816573473612994 [Eh]
	 SCS Correlation Energy    =      -1.7185566877824259 [Eh]
	 SCS Total Energy          =    -385.4714924150641764 [Eh]
	-----------------------------------------------------------

  Dipole Moment: [D]
     X:     0.9773      Y:    -0.7357      Z:     0.0000     Total:     1.2233

*** Psi4 exiting successfully. Buy a developer a beer!
