                               Psi4 1.4a3.dev225

  ==> Input File <==

--------------------------------------------------------------------------
#psi4
#
memory 32 gb

molecule  {
0 1
  O        1.7572910     0.3059760     0.0000180
  C       -0.4850880     0.9739040    -0.0000120
  C        0.4405670    -0.0879150     0.0000040
  C       -1.8638517     0.6569968    -0.0000181
  C        0.0124250    -1.4183170     0.0000060
  C        0.0151430     2.3911510    -0.0000080
  C       -2.2900340    -0.6642210    -0.0000140
  C       -1.3585410    -1.6984920    -0.0000020
  C        2.7379480    -0.7266300     0.0000180
  H       -2.5677820     1.4752540    -0.0000300
  H        0.7228010    -2.2381660     0.0000160
  H       -0.8234040     3.0925880    -0.0001030
  H        0.6363730     2.5877470     0.8789620
  H        0.6365320     2.5876940    -0.8788760
  H       -3.3546920    -0.8829470    -0.0000210
  H       -1.6887710    -2.7346470     0.0000000
  H        2.6565620    -1.3539010    -0.8944310
  H        2.6565580    -1.3539040     0.8944650
  H        3.6991380    -0.2132700     0.0000220
units angstrom
no_reorient  #important for SAPT in psi4, default
symmetry c1  #important for SAPT in psi4, default
}

set PROPERTIES_ORIGIN ["COM"]
properties('MP2/aug-cc-pvtz', properties = ['dipole'])
--------------------------------------------------------------------------

    Molecular point group: c1
  Charge       = 0
  Multiplicity = 1
  Basis Set: AUG-CC-PVTZ
    Blend: AUG-CC-PVTZ
  Basis Set: (AUG-CC-PVTZ AUX)
    Blend: AUG-CC-PVTZ-JKFIT

    Orbital Energies [Eh]
    ---------------------

    Doubly Occupied:

       1A    -20.583588     2A    -11.294508     3A    -11.284184
       4A    -11.235607     5A    -11.234895     6A    -11.232238
       7A    -11.231005     8A    -11.223827     9A    -11.216098
      10A     -1.403632    11A     -1.144210    12A     -1.043525
      13A     -1.010459    14A     -0.948708    15A     -0.920064
      16A     -0.813469    17A     -0.795703    18A     -0.709258
      19A     -0.666600    20A     -0.653305    21A     -0.645955
      22A     -0.615635    23A     -0.580932    24A     -0.567934
      25A     -0.562689    26A     -0.539787    27A     -0.522315
      28A     -0.508741    29A     -0.493879    30A     -0.477082
      31A     -0.464332    32A     -0.330084    33A     -0.305094

  @DF-RHF Final Energy:  -383.75230182336566

   => Energetics <=

    Nuclear Repulsion Energy =            429.8468408553559925
    One-Electron Energy =               -1372.6796019433795664
    Two-Electron Energy =                 559.0804592646578612
    Total Energy =                       -383.7523018233656558
  Basis Set: (AUG-CC-PVTZ AUX)
    Blend: AUG-CC-PVTZ-RI
    Molecular point group: c1

    Geometry (in Angstrom), charge = 0, multiplicity = 1:

       Center              X                  Y                   Z               Mass
    ------------   -----------------  -----------------  -----------------  -----------------
         O            1.780195375599     0.314284197122     0.000018174160    15.994914619570
         C           -0.462183624401     0.982212197122    -0.000011825840    12.000000000000
         C            0.463471375599    -0.079606802878     0.000004174160    12.000000000000
         C           -1.840947324401     0.665304997122    -0.000017925840    12.000000000000
         C            0.035329375599    -1.410008802878     0.000006174160    12.000000000000
         C            0.038047375599     2.399459197122    -0.000007825840    12.000000000000
         C           -2.267129624400    -0.655912802878    -0.000013825840    12.000000000000
         C           -1.335636624401    -1.690183802878    -0.000001825840    12.000000000000
         C            2.760852375599    -0.718321802878     0.000018174160    12.000000000000
         H           -2.544877624401     1.483562197122    -0.000029825840     1.007825032230
         H            0.745705375599    -2.229857802878     0.000016174160     1.007825032230
         H           -0.800499624401     3.100896197122    -0.000102825840     1.007825032230
         H            0.659277375599     2.596055197122     0.878962174160     1.007825032230
         H            0.659436375599     2.596002197122    -0.878875825840     1.007825032230
         H           -3.331787624401    -0.874638802878    -0.000020825840     1.007825032230
         H           -1.665866624401    -2.726338802878     0.000000174160     1.007825032230
         H            2.679466375600    -1.345592802878    -0.894430825840     1.007825032230
         H            2.679462375599    -1.345595802878     0.894465174160     1.007825032230
         H            3.722042375599    -0.204961802878     0.000022174160     1.007825032230

  Basis Set: AUG-CC-PVTZ
    Blend: AUG-CC-PVTZ
  Basis Set: (AUG-CC-PVTZ AUX)
    Blend: AUG-CC-PVTZ-JKFIT
	 Reference Energy          =    -383.7523018233656558 [Eh]
	 Singles Energy            =      -0.0000000000000000 [Eh]
	 Same-Spin Energy          =      -0.4109358461715157 [Eh]
	 Opposite-Spin Energy      =      -1.3182850428001900 [Eh]
	 Correlation Energy        =      -1.7292208889717058 [Eh]
	 Total Energy              =    -385.4815227123373802 [Eh]

	 ================> DF-SCS-MP2 Energies <==================
	-----------------------------------------------------------
	 SCS Same-Spin Scale       =       0.3333333333333333 [-]
	 SCS Opposite-Spin Scale   =       1.2000000000000000 [-]
	 SCS Same-Spin Energy      =      -0.1369786153905052 [Eh]
	 SCS Opposite-Spin Energy  =      -1.5819420513602280 [Eh]
	 SCS Correlation Energy    =      -1.7189206667507333 [Eh]
	 SCS Total Energy          =    -385.4712224901163609 [Eh]
	-----------------------------------------------------------

  Dipole Moment: [D]
     X:     0.9753      Y:    -0.7358      Z:     0.0000     Total:     1.2217

*** Psi4 exiting successfully. Buy a developer a beer!
