                               Psi4 1.4a3.dev225

  ==> Input File <==

--------------------------------------------------------------------------
#psi4
#
memory 32 gb

molecule  {
0 1
  O        1.7572910     0.3059760     0.0000180
  C       -0.4850880     0.9739040    -0.0000120
  C        0.4405670    -0.0879150     0.0000040
  C       -1.8443600     0.6614770    -0.0000180
  C        0.0124250    -1.4183170     0.0000060
  C        0.0151430     2.3911510    -0.0000080
  C       -2.2900340    -0.6642210    -0.0000140
  C       -1.3585410    -1.6984920    -0.0000020
  C        2.7379480    -0.7266300     0.0000180
  H       -2.5677820     1.4752540    -0.0000300
  H        0.7228010    -2.2381660     0.0000160
  H       -0.8234040     3.0925880    -0.0001030
  H        0.6363730     2.5877470     0.8789620
  H        0.6365320     2.5876940    -0.8788760
  H       -3.3351012    -0.8789222    -0.0000209
  H       -1.6887710    -2.7346470     0.0000000
  H        2.6565620    -1.3539010    -0.8944310
  H        2.6565580    -1.3539040     0.8944650
  H        3.6991380    -0.2132700     0.0000220
units angstrom
no_reorient  #important for SAPT in psi4, default
symmetry c1  #important for SAPT in psi4, default
}

set PROPERTIES_ORIGIN ["COM"]
properties('MP2/aug-cc-pvtz', properties = ['dipole'])
--------------------------------------------------------------------------

    Molecular point group: c1
  Charge       = 0
  Multiplicity = 1
  Basis Set: AUG-CC-PVTZ
    Blend: AUG-CC-PVTZ
  Basis Set: (AUG-CC-PVTZ AUX)
    Blend: AUG-CC-PVTZ-JKFIT

    Orbital Energies [Eh]
    ---------------------

    Doubly Occupied:

       1A    -20.583937     2A    -11.295025     3A    -11.284213
       4A    -11.234573     5A    -11.233788     6A    -11.231621
       7A    -11.230219     8A    -11.222108     9A    -11.215961
      10A     -1.403892    11A     -1.145352    12A     -1.044699
      13A     -1.009569    14A     -0.948512    15A     -0.921085
      16A     -0.812601    17A     -0.798126    18A     -0.708958
      19A     -0.666926    20A     -0.653433    21A     -0.648880
      22A     -0.613432    23A     -0.580975    24A     -0.568319
      25A     -0.563430    26A     -0.539255    27A     -0.522274
      28A     -0.508834    29A     -0.497465    30A     -0.475254
      31A     -0.464178    32A     -0.331023    33A     -0.305140

  @DF-RHF Final Energy:  -383.75314653281271

   => Energetics <=

    Nuclear Repulsion Energy =            430.2073855556702142
    One-Electron Energy =               -1373.3949432561585127
    Two-Electron Energy =                 559.4344111676755347
    Total Energy =                       -383.7531465328127069
  Basis Set: (AUG-CC-PVTZ AUX)
    Blend: AUG-CC-PVTZ-RI
    Molecular point group: c1

    Geometry (in Angstrom), charge = 0, multiplicity = 1:

       Center              X                  Y                   Z               Mass
    ------------   -----------------  -----------------  -----------------  -----------------
         O            1.778117568419     0.313810557447     0.000018163504    15.994914619570
         C           -0.464261431581     0.981738557447    -0.000011836496    12.000000000000
         C            0.461393568419    -0.080080442553     0.000004163504    12.000000000000
         C           -1.823533431581     0.669311557447    -0.000017836496    12.000000000000
         C            0.033251568419    -1.410482442553     0.000006163504    12.000000000000
         C            0.035969568419     2.398985557447    -0.000007836496    12.000000000000
         C           -2.269207431581    -0.656386442553    -0.000013836496    12.000000000000
         C           -1.337714431581    -1.690657442553    -0.000001836496    12.000000000000
         C            2.758774568419    -0.718795442553     0.000018163504    12.000000000000
         H           -2.546955431581     1.483088557447    -0.000029836496     1.007825032230
         H            0.743627568419    -2.230331442553     0.000016163504     1.007825032230
         H           -0.802577431581     3.100422557447    -0.000102836496     1.007825032230
         H            0.657199568419     2.595581557447     0.878962163504     1.007825032230
         H            0.657358568419     2.595528557447    -0.878875836496     1.007825032230
         H           -3.314274631581    -0.871087642553    -0.000020736496     1.007825032230
         H           -1.667944431581    -2.726812442553     0.000000163504     1.007825032230
         H            2.677388568419    -1.346066442553    -0.894430836496     1.007825032230
         H            2.677384568419    -1.346069442553     0.894465163504     1.007825032230
         H            3.719964568419    -0.205435442553     0.000022163504     1.007825032230

  Basis Set: AUG-CC-PVTZ
    Blend: AUG-CC-PVTZ
  Basis Set: (AUG-CC-PVTZ AUX)
    Blend: AUG-CC-PVTZ-JKFIT
	 Reference Energy          =    -383.7531465328127069 [Eh]
	 Singles Energy            =      -0.0000000000000000 [Eh]
	 Same-Spin Energy          =      -0.4108343817631286 [Eh]
	 Opposite-Spin Energy      =      -1.3180481388174889 [Eh]
	 Correlation Energy        =      -1.7288825205806175 [Eh]
	 Total Energy              =    -385.4820290533933189 [Eh]

	 ================> DF-SCS-MP2 Energies <==================
	-----------------------------------------------------------
	 SCS Same-Spin Scale       =       0.3333333333333333 [-]
	 SCS Opposite-Spin Scale   =       1.2000000000000000 [-]
	 SCS Same-Spin Energy      =      -0.1369447939210429 [Eh]
	 SCS Opposite-Spin Energy  =      -1.5816577665809868 [Eh]
	 SCS Correlation Energy    =      -1.7186025605020296 [Eh]
	 SCS Total Energy          =    -385.4717490933147133 [Eh]
	-----------------------------------------------------------

  Dipole Moment: [D]
     X:     0.9730      Y:    -0.7392      Z:     0.0000     Total:     1.2219

*** Psi4 exiting successfully. Buy a developer a beer!
