                               Psi4 1.4a3.dev225

  ==> Input File <==

--------------------------------------------------------------------------
#psi4
#
memory 32 gb

molecule  {
0 1
  O        1.7572910     0.3059760     0.0000180
  C       -0.4850880     0.9739040    -0.0000120
  C        0.4405670    -0.0879150     0.0000040
  C       -1.8443600     0.6614770    -0.0000180
  C        0.0124250    -1.4183170     0.0000060
  C        0.0151430     2.3911510    -0.0000080
  C       -2.2900340    -0.6642210    -0.0000140
  C       -1.3585410    -1.6984920    -0.0000020
  C        2.7379480    -0.7266300     0.0000180
  H       -2.5677820     1.4752540    -0.0000300
  H        0.7228010    -2.2381660     0.0000160
  H       -0.8234040     3.0925880    -0.0001030
  H        0.6363730     2.5877470     0.8789620
  H        0.6365320     2.5876940    -0.8788760
  H       -3.3546920    -0.8829470    -0.0000210
  H       -1.6887710    -2.7346470     0.0000000
  H        2.6602765    -1.3252717    -0.8536074
  H        2.6565580    -1.3539040     0.8944650
  H        3.6991380    -0.2132700     0.0000220
units angstrom
no_reorient  #important for SAPT in psi4, default
symmetry c1  #important for SAPT in psi4, default
}

set PROPERTIES_ORIGIN ["COM"]
properties('MP2/aug-cc-pvtz', properties = ['dipole'])
--------------------------------------------------------------------------

    Molecular point group: c1
  Charge       = 0
  Multiplicity = 1
  Basis Set: AUG-CC-PVTZ
    Blend: AUG-CC-PVTZ
  Basis Set: (AUG-CC-PVTZ AUX)
    Blend: AUG-CC-PVTZ-JKFIT

    Orbital Energies [Eh]
    ---------------------

    Doubly Occupied:

       1A    -20.583071     2A    -11.295000     3A    -11.278205
       4A    -11.234763     5A    -11.233770     6A    -11.231752
       7A    -11.230324     8A    -11.224356     9A    -11.215902
      10A     -1.403484    11A     -1.145305    12A     -1.044760
      13A     -1.009618    14A     -0.951818    15A     -0.921761
      16A     -0.813363    17A     -0.797221    18A     -0.710128
      19A     -0.666705    20A     -0.657356    21A     -0.646405
      22A     -0.613605    23A     -0.580789    24A     -0.569240
      25A     -0.563386    26A     -0.538763    27A     -0.523045
      28A     -0.510931    29A     -0.496388    30A     -0.475452
      31A     -0.464826    32A     -0.331106    33A     -0.305046

  @DF-RHF Final Energy:  -383.75218976545148

   => Energetics <=

    Nuclear Repulsion Energy =            430.3225203354153336
    One-Electron Energy =               -1373.6141326217075402
    Two-Electron Energy =                 559.5394225208407306
    Total Energy =                       -383.7521897654514760
  Basis Set: (AUG-CC-PVTZ AUX)
    Blend: AUG-CC-PVTZ-RI
    Molecular point group: c1

    Geometry (in Angstrom), charge = 0, multiplicity = 1:

       Center              X                  Y                   Z               Mass
    ------------   -----------------  -----------------  -----------------  -----------------
         O            1.778248641719     0.313607424915    -0.000318871628    15.994914619570
         C           -0.464130358281     0.981535424915    -0.000348871628    12.000000000000
         C            0.461524641719    -0.080283575085    -0.000332871628    12.000000000000
         C           -1.823402358281     0.669108424915    -0.000354871628    12.000000000000
         C            0.033382641719    -1.410685575085    -0.000330871628    12.000000000000
         C            0.036100641719     2.398782424915    -0.000344871628    12.000000000000
         C           -2.269076358281    -0.656589575085    -0.000350871628    12.000000000000
         C           -1.337583358281    -1.690860575085    -0.000338871628    12.000000000000
         C            2.758905641719    -0.718998575085    -0.000318871628    12.000000000000
         H           -2.546824358281     1.482885424915    -0.000366871628     1.007825032230
         H            0.743758641719    -2.230534575085    -0.000320871628     1.007825032230
         H           -0.802446358281     3.100219424915    -0.000439871628     1.007825032230
         H            0.657330641719     2.595378424915     0.878625128372     1.007825032230
         H            0.657489641719     2.595325424915    -0.879212871628     1.007825032230
         H           -3.333734358281    -0.875315575085    -0.000357871628     1.007825032230
         H           -1.667813358281    -2.727015575085    -0.000336871628     1.007825032230
         H            2.681234141719    -1.317640275085    -0.853944271628     1.007825032230
         H            2.677515641719    -1.346272575085     0.894128128372     1.007825032230
         H            3.720095641719    -0.205638575085    -0.000314871628     1.007825032230

  Basis Set: AUG-CC-PVTZ
    Blend: AUG-CC-PVTZ
  Basis Set: (AUG-CC-PVTZ AUX)
    Blend: AUG-CC-PVTZ-JKFIT
	 Reference Energy          =    -383.7521897654514760 [Eh]
	 Singles Energy            =      -0.0000000000000000 [Eh]
	 Same-Spin Energy          =      -0.4108055152994333 [Eh]
	 Opposite-Spin Energy      =      -1.3178525341066858 [Eh]
	 Correlation Energy        =      -1.7286580494061190 [Eh]
	 Total Energy              =    -385.4808478148576114 [Eh]

	 ================> DF-SCS-MP2 Energies <==================
	-----------------------------------------------------------
	 SCS Same-Spin Scale       =       0.3333333333333333 [-]
	 SCS Opposite-Spin Scale   =       1.2000000000000000 [-]
	 SCS Same-Spin Energy      =      -0.1369351717664778 [Eh]
	 SCS Opposite-Spin Energy  =      -1.5814230409280230 [Eh]
	 SCS Correlation Energy    =      -1.7183582126945007 [Eh]
	 SCS Total Energy          =    -385.4705479781459871 [Eh]
	-----------------------------------------------------------

  Dipole Moment: [D]
     X:     0.9993      Y:    -0.7570      Z:    -0.0216     Total:     1.2538

*** Psi4 exiting successfully. Buy a developer a beer!
