                               Psi4 1.4a3.dev225

  ==> Input File <==

--------------------------------------------------------------------------
#psi4
#
memory 32 gb

molecule  {
0 1
  O        1.7572910     0.3059760     0.0000180
  C       -0.4850880     0.9739040    -0.0000120
  C        0.4405670    -0.0879150     0.0000040
  C       -1.8443600     0.6614770    -0.0000180
  C        0.0124250    -1.4183170     0.0000060
  C        0.0151430     2.3911510    -0.0000080
  C       -2.3814244    -0.6299030    -0.0000151
  C       -1.3585410    -1.6984920    -0.0000020
  C        2.7379480    -0.7266300     0.0000180
  H       -2.5677820     1.4752540    -0.0000300
  H        0.7228010    -2.2381660     0.0000160
  H       -0.8234040     3.0925880    -0.0001030
  H        0.6363730     2.5877470     0.8789620
  H        0.6365320     2.5876940    -0.8788760
  H       -3.3546920    -0.8829470    -0.0000210
  H       -1.6887710    -2.7346470     0.0000000
  H        2.6565620    -1.3539010    -0.8944310
  H        2.6565580    -1.3539040     0.8944650
  H        3.6991380    -0.2132700     0.0000220
units angstrom
no_reorient  #important for SAPT in psi4, default
symmetry c1  #important for SAPT in psi4, default
}

set PROPERTIES_ORIGIN ["COM"]
properties('MP2/aug-cc-pvtz', properties = ['dipole'])
--------------------------------------------------------------------------

    Molecular point group: c1
  Charge       = 0
  Multiplicity = 1
  Basis Set: AUG-CC-PVTZ
    Blend: AUG-CC-PVTZ
  Basis Set: (AUG-CC-PVTZ AUX)
    Blend: AUG-CC-PVTZ-JKFIT

    Orbital Energies [Eh]
    ---------------------

    Doubly Occupied:

       1A    -20.585340     2A    -11.297075     3A    -11.285154
       4A    -11.245099     5A    -11.233929     6A    -11.232402
       7A    -11.232177     8A    -11.227009     9A    -11.215818
      10A     -1.405180    11A     -1.138990    12A     -1.039146
      13A     -1.011503    14A     -0.950076    15A     -0.916268
      16A     -0.809703    17A     -0.805695    18A     -0.707292
      19A     -0.664095    20A     -0.662932    21A     -0.654339
      22A     -0.611264    23A     -0.577584    24A     -0.567929
      25A     -0.565724    26A     -0.536177    27A     -0.527033
      28A     -0.508266    29A     -0.502226    30A     -0.467702
      31A     -0.458858    32A     -0.334095    33A     -0.298687

  @DF-RHF Final Energy:  -383.73927513768621

   => Energetics <=

    Nuclear Repulsion Energy =            428.5868033794428129
    One-Electron Energy =               -1370.1026215795848202
    Two-Electron Energy =                 557.7765430624557439
    Total Energy =                       -383.7392751376862634
  Basis Set: (AUG-CC-PVTZ AUX)
    Blend: AUG-CC-PVTZ-RI
    Molecular point group: c1

    Geometry (in Angstrom), charge = 0, multiplicity = 1:

       Center              X                  Y                   Z               Mass
    ------------   -----------------  -----------------  -----------------  -----------------
         O            1.787263140250     0.310470267990     0.000018272461    15.994914619570
         C           -0.455115859750     0.978398267990    -0.000011727539    12.000000000000
         C            0.470539140250    -0.083420732010     0.000004272461    12.000000000000
         C           -1.814387859750     0.665971267990    -0.000017727539    12.000000000000
         C            0.042397140250    -1.413822732010     0.000006272461    12.000000000000
         C            0.045115140250     2.395645267990    -0.000007727539    12.000000000000
         C           -2.351452259750    -0.625408732010    -0.000014827539    12.000000000000
         C           -1.328568859750    -1.693997732010    -0.000001727539    12.000000000000
         C            2.767920140250    -0.722135732010     0.000018272461    12.000000000000
         H           -2.537809859750     1.479748267990    -0.000029727539     1.007825032230
         H            0.752773140250    -2.233671732010     0.000016272461     1.007825032230
         H           -0.793431859750     3.097082267990    -0.000102727539     1.007825032230
         H            0.666345140250     2.592241267990     0.878962272461     1.007825032230
         H            0.666504140250     2.592188267990    -0.878875727539     1.007825032230
         H           -3.324719859750    -0.878452732010    -0.000020727539     1.007825032230
         H           -1.658798859750    -2.730152732010     0.000000272461     1.007825032230
         H            2.686534140250    -1.349406732010    -0.894430727539     1.007825032230
         H            2.686530140250    -1.349409732010     0.894465272461     1.007825032230
         H            3.729110140250    -0.208775732010     0.000022272461     1.007825032230

  Basis Set: AUG-CC-PVTZ
    Blend: AUG-CC-PVTZ
  Basis Set: (AUG-CC-PVTZ AUX)
    Blend: AUG-CC-PVTZ-JKFIT
	 Reference Energy          =    -383.7392751376862066 [Eh]
	 Singles Energy            =      -0.0000000000000000 [Eh]
	 Same-Spin Energy          =      -0.4110674608350098 [Eh]
	 Opposite-Spin Energy      =      -1.3194912103946146 [Eh]
	 Correlation Energy        =      -1.7305586712296244 [Eh]
	 Total Energy              =    -385.4698338089158369 [Eh]

	 ================> DF-SCS-MP2 Energies <==================
	-----------------------------------------------------------
	 SCS Same-Spin Scale       =       0.3333333333333333 [-]
	 SCS Opposite-Spin Scale   =       1.2000000000000000 [-]
	 SCS Same-Spin Energy      =      -0.1370224869450032 [Eh]
	 SCS Opposite-Spin Energy  =      -1.5833894524735375 [Eh]
	 SCS Correlation Energy    =      -1.7204119394185406 [Eh]
	 SCS Total Energy          =    -385.4596870771047747 [Eh]
	-----------------------------------------------------------

  Dipole Moment: [D]
     X:     1.0154      Y:    -0.7655      Z:     0.0000     Total:     1.2716

*** Psi4 exiting successfully. Buy a developer a beer!
