                               Psi4 1.4a3.dev225

  ==> Input File <==

--------------------------------------------------------------------------
#psi4
#
memory 32 gb

molecule  {
0 1
  O        1.7572910     0.3059760     0.0000180
  C       -0.4850880     0.9739040    -0.0000120
  C        0.4405670    -0.0879150     0.0000040
  C       -1.8443600     0.6614770    -0.0000180
  C        0.0124250    -1.4183170     0.0000060
  C        0.0151430     2.3911510    -0.0000080
  C       -2.2900340    -0.6642210    -0.0000140
  C       -1.3585410    -1.6984920    -0.0000020
  C        2.7379480    -0.7266300     0.0000180
  H       -2.5677820     1.4752540    -0.0000300
  H        0.7228010    -2.2381660     0.0000160
  H       -0.8234040     3.0925880    -0.0001030
  H        0.6363730     2.5877470     0.8789620
  H        0.6365320     2.5876940    -0.8788760
  H       -3.3546920    -0.8829470    -0.0000210
  H       -1.6584052    -2.6393689    -0.0000002
  H        2.6565620    -1.3539010    -0.8944310
  H        2.6565580    -1.3539040     0.8944650
  H        3.6991380    -0.2132700     0.0000220
units angstrom
no_reorient  #important for SAPT in psi4, default
symmetry c1  #important for SAPT in psi4, default
}

set PROPERTIES_ORIGIN ["COM"]
properties('MP2/aug-cc-pvtz', properties = ['dipole'])
--------------------------------------------------------------------------

    Molecular point group: c1
  Charge       = 0
  Multiplicity = 1
  Basis Set: AUG-CC-PVTZ
    Blend: AUG-CC-PVTZ
  Basis Set: (AUG-CC-PVTZ AUX)
    Blend: AUG-CC-PVTZ-JKFIT

    Orbital Energies [Eh]
    ---------------------

    Doubly Occupied:

       1A    -20.583576     2A    -11.294509     3A    -11.284044
       4A    -11.233629     5A    -11.231221     6A    -11.229692
       7A    -11.223990     8A    -11.222227     9A    -11.215823
      10A     -1.403570    11A     -1.145559    12A     -1.046890
      13A     -1.008620    14A     -0.948291    15A     -0.924781
      16A     -0.813407    17A     -0.801102    18A     -0.716452
      19A     -0.666948    20A     -0.653185    21A     -0.646037
      22A     -0.617396    23A     -0.586249    24A     -0.568142
      25A     -0.567066    26A     -0.538511    27A     -0.522040
      28A     -0.508548    29A     -0.496104    30A     -0.477724
      31A     -0.463791    32A     -0.330676    33A     -0.304810

  @DF-RHF Final Energy:  -383.74718118095558

   => Energetics <=

    Nuclear Repulsion Energy =            430.6477243547910803
    One-Electron Energy =               -1374.2405900380190360
    Two-Electron Energy =                 559.8456845022724337
    Total Energy =                       -383.7471811809555220
  Basis Set: (AUG-CC-PVTZ AUX)
    Blend: AUG-CC-PVTZ-RI
    Molecular point group: c1

    Geometry (in Angstrom), charge = 0, multiplicity = 1:

       Center              X                  Y                   Z               Mass
    ------------   -----------------  -----------------  -----------------  -----------------
         O            1.778028610992     0.313057178438     0.000018165981    15.994914619570
         C           -0.464350389008     0.980985178438    -0.000011834019    12.000000000000
         C            0.461304610992    -0.080833821562     0.000004165981    12.000000000000
         C           -1.823622389008     0.668558178438    -0.000017834019    12.000000000000
         C            0.033162610992    -1.411235821562     0.000006165981    12.000000000000
         C            0.035880610992     2.398232178438    -0.000007834019    12.000000000000
         C           -2.269296389008    -0.657139821562    -0.000013834019    12.000000000000
         C           -1.337803389008    -1.691410821562    -0.000001834019    12.000000000000
         C            2.758685610992    -0.719548821562     0.000018165981    12.000000000000
         H           -2.547044389008     1.482335178438    -0.000029834019     1.007825032230
         H            0.743538610992    -2.231084821562     0.000016165981     1.007825032230
         H           -0.802666389008     3.099669178438    -0.000102834019     1.007825032230
         H            0.657110610992     2.594828178438     0.878962165981     1.007825032230
         H            0.657269610992     2.594775178438    -0.878875834019     1.007825032230
         H           -3.333954389008    -0.875865821562    -0.000020834019     1.007825032230
         H           -1.637667589008    -2.632287721562    -0.000000034019     1.007825032230
         H            2.677299610992    -1.346819821562    -0.894430834019     1.007825032230
         H            2.677295610992    -1.346822821562     0.894465165981     1.007825032230
         H            3.719875610992    -0.206188821562     0.000022165981     1.007825032230

  Basis Set: AUG-CC-PVTZ
    Blend: AUG-CC-PVTZ
  Basis Set: (AUG-CC-PVTZ AUX)
    Blend: AUG-CC-PVTZ-JKFIT
	 Reference Energy          =    -383.7471811809555788 [Eh]
	 Singles Energy            =      -0.0000000000000000 [Eh]
	 Same-Spin Energy          =      -0.4107380728289813 [Eh]
	 Opposite-Spin Energy      =      -1.3177265275939585 [Eh]
	 Correlation Energy        =      -1.7284646004229398 [Eh]
	 Total Energy              =    -385.4756457813785460 [Eh]

	 ================> DF-SCS-MP2 Energies <==================
	-----------------------------------------------------------
	 SCS Same-Spin Scale       =       0.3333333333333333 [-]
	 SCS Opposite-Spin Scale   =       1.2000000000000000 [-]
	 SCS Same-Spin Energy      =      -0.1369126909429938 [Eh]
	 SCS Opposite-Spin Energy  =      -1.5812718331127502 [Eh]
	 SCS Correlation Energy    =      -1.7181845240557441 [Eh]
	 SCS Total Energy          =    -385.4653657050113225 [Eh]
	-----------------------------------------------------------

  Dipole Moment: [D]
     X:     0.9665      Y:    -0.7688      Z:     0.0000     Total:     1.2350

*** Psi4 exiting successfully. Buy a developer a beer!
