                               Psi4 1.4a3.dev225

  ==> Input File <==

--------------------------------------------------------------------------
#psi4
#
memory 32 gb

molecule  {
0 1
  O        1.7572910     0.3059760     0.0000180
  C       -0.4850880     0.9739040    -0.0000120
  C        0.4597280    -0.0821831     0.0000042
  C       -1.8443600     0.6614770    -0.0000180
  C        0.0124250    -1.4183170     0.0000060
  C        0.0151430     2.3911510    -0.0000080
  C       -2.2900340    -0.6642210    -0.0000140
  C       -1.3585410    -1.6984920    -0.0000020
  C        2.7379480    -0.7266300     0.0000180
  H       -2.5677820     1.4752540    -0.0000300
  H        0.7228010    -2.2381660     0.0000160
  H       -0.8234040     3.0925880    -0.0001030
  H        0.6363730     2.5877470     0.8789620
  H        0.6365320     2.5876940    -0.8788760
  H       -3.3546920    -0.8829470    -0.0000210
  H       -1.6887710    -2.7346470     0.0000000
  H        2.6565620    -1.3539010    -0.8944310
  H        2.6565580    -1.3539040     0.8944650
  H        3.6991380    -0.2132700     0.0000220
units angstrom
no_reorient  #important for SAPT in psi4, default
symmetry c1  #important for SAPT in psi4, default
}

set PROPERTIES_ORIGIN ["COM"]
properties('MP2/aug-cc-pvtz', properties = ['dipole'])
--------------------------------------------------------------------------

    Molecular point group: c1
  Charge       = 0
  Multiplicity = 1
  Basis Set: AUG-CC-PVTZ
    Blend: AUG-CC-PVTZ
  Basis Set: (AUG-CC-PVTZ AUX)
    Blend: AUG-CC-PVTZ-JKFIT

    Orbital Energies [Eh]
    ---------------------

    Doubly Occupied:

       1A    -20.587561     2A    -11.296764     3A    -11.286475
       4A    -11.234105     5A    -11.233459     6A    -11.231181
       7A    -11.230257     8A    -11.223296     9A    -11.215348
      10A     -1.413662    11A     -1.142644    12A     -1.043713
      13A     -1.008213    14A     -0.951238    15A     -0.920132
      16A     -0.811042    17A     -0.796646    18A     -0.711238
      19A     -0.668759    20A     -0.657588    21A     -0.647624
      22A     -0.612290    23A     -0.581598    24A     -0.568064
      25A     -0.562840    26A     -0.538084    27A     -0.523959
      28A     -0.510829    29A     -0.497372    30A     -0.472524
      31A     -0.464657    32A     -0.329973    33A     -0.302287

  @DF-RHF Final Energy:  -383.75272060477238

   => Energetics <=

    Nuclear Repulsion Energy =            430.0966954671538360
    One-Electron Energy =               -1373.1479863273550563
    Two-Electron Energy =                 559.2985702554288991
    Total Energy =                       -383.7527206047723212
  Basis Set: (AUG-CC-PVTZ AUX)
    Blend: AUG-CC-PVTZ-RI
    Molecular point group: c1

    Geometry (in Angstrom), charge = 0, multiplicity = 1:

       Center              X                  Y                   Z               Mass
    ------------   -----------------  -----------------  -----------------  -----------------
         O            1.776395749365     0.313280330301     0.000018144669    15.994914619570
         C           -0.465983250635     0.981208330301    -0.000011855331    12.000000000000
         C            0.478832749365    -0.074878769699     0.000004344669    12.000000000000
         C           -1.825255250635     0.668781330301    -0.000017855331    12.000000000000
         C            0.031529749365    -1.411012669699     0.000006144669    12.000000000000
         C            0.034247749365     2.398455330301    -0.000007855331    12.000000000000
         C           -2.270929250635    -0.656916669699    -0.000013855331    12.000000000000
         C           -1.339436250635    -1.691187669699    -0.000001855331    12.000000000000
         C            2.757052749365    -0.719325669699     0.000018144669    12.000000000000
         H           -2.548677250635     1.482558330301    -0.000029855331     1.007825032230
         H            0.741905749365    -2.230861669699     0.000016144669     1.007825032230
         H           -0.804299250635     3.099892330301    -0.000102855331     1.007825032230
         H            0.655477749365     2.595051330301     0.878962144669     1.007825032230
         H            0.655636749365     2.594998330301    -0.878875855331     1.007825032230
         H           -3.335587250635    -0.875642669699    -0.000020855331     1.007825032230
         H           -1.669666250635    -2.727342669699     0.000000144669     1.007825032230
         H            2.675666749365    -1.346596669699    -0.894430855331     1.007825032230
         H            2.675662749365    -1.346599669699     0.894465144669     1.007825032230
         H            3.718242749365    -0.205965669699     0.000022144669     1.007825032230

  Basis Set: AUG-CC-PVTZ
    Blend: AUG-CC-PVTZ
  Basis Set: (AUG-CC-PVTZ AUX)
    Blend: AUG-CC-PVTZ-JKFIT
	 Reference Energy          =    -383.7527206047723780 [Eh]
	 Singles Energy            =      -0.0000000000000000 [Eh]
	 Same-Spin Energy          =      -0.4109133796335409 [Eh]
	 Opposite-Spin Energy      =      -1.3180902931659497 [Eh]
	 Correlation Energy        =      -1.7290036727994906 [Eh]
	 Total Energy              =    -385.4817242775718569 [Eh]

	 ================> DF-SCS-MP2 Energies <==================
	-----------------------------------------------------------
	 SCS Same-Spin Scale       =       0.3333333333333333 [-]
	 SCS Opposite-Spin Scale   =       1.2000000000000000 [-]
	 SCS Same-Spin Energy      =      -0.1369711265445136 [Eh]
	 SCS Opposite-Spin Energy  =      -1.5817083517991397 [Eh]
	 SCS Correlation Energy    =      -1.7186794783436534 [Eh]
	 SCS Total Energy          =    -385.4714000831160092 [Eh]
	-----------------------------------------------------------

  Dipole Moment: [D]
     X:     1.1243      Y:    -0.7260      Z:     0.0000     Total:     1.3383

*** Psi4 exiting successfully. Buy a developer a beer!
