                               Psi4 1.4a3.dev225

  ==> Input File <==

--------------------------------------------------------------------------
#psi4
#
memory 32 gb

molecule  {
0 1
  O        1.7572910     0.3059760     0.0000180
  C       -0.4850880     0.9739040    -0.0000120
  C        0.4405670    -0.0879150     0.0000040
  C       -1.8443600     0.6614770    -0.0000180
  C        0.0124250    -1.4183170     0.0000060
  C        0.0151430     2.3911510    -0.0000080
  C       -2.2900340    -0.6642210    -0.0000140
  C       -1.3585410    -1.6984920    -0.0000020
  C        2.7379480    -0.7266300     0.0000180
  H       -2.5677820     1.4752540    -0.0000300
  H        0.7228010    -2.2381660     0.0000160
  H       -0.8234040     3.0925880    -0.0001030
  H        0.6363730     2.5877470     0.8789620
  H        0.6365320     2.5876940    -0.8788760
  H       -3.5506004    -0.9231949    -0.0000223
  H       -1.6887710    -2.7346470     0.0000000
  H        2.6565620    -1.3539010    -0.8944310
  H        2.6565580    -1.3539040     0.8944650
  H        3.6991380    -0.2132700     0.0000220
units angstrom
no_reorient  #important for SAPT in psi4, default
symmetry c1  #important for SAPT in psi4, default
}

set PROPERTIES_ORIGIN ["COM"]
properties('MP2/aug-cc-pvtz', properties = ['dipole'])
--------------------------------------------------------------------------

    Molecular point group: c1
  Charge       = 0
  Multiplicity = 1
  Basis Set: AUG-CC-PVTZ
    Blend: AUG-CC-PVTZ
  Basis Set: (AUG-CC-PVTZ AUX)
    Blend: AUG-CC-PVTZ-JKFIT

    Orbital Energies [Eh]
    ---------------------

    Doubly Occupied:

       1A    -20.584893     2A    -11.296286     3A    -11.284994
       4A    -11.246590     5A    -11.237145     6A    -11.235795
       7A    -11.234169     8A    -11.232157     9A    -11.217131
      10A     -1.404872    11A     -1.146384    12A     -1.045408
      13A     -1.007404    14A     -0.948264    15A     -0.921289
      16A     -0.813602    17A     -0.788852    18A     -0.709645
      19A     -0.668072    20A     -0.654342    21A     -0.625297
      22A     -0.612962    23A     -0.582453    24A     -0.569464
      25A     -0.563409    26A     -0.536643    27A     -0.518863
      28A     -0.510006    29A     -0.482147    30A     -0.475185
      31A     -0.465910    32A     -0.332755    33A     -0.306678

  @DF-RHF Final Energy:  -383.73086543061726

   => Energetics <=

    Nuclear Repulsion Energy =            429.1915987572564291
    One-Electron Energy =               -1371.3267953287154342
    Two-Electron Energy =                 558.4043311408418049
    Total Energy =                       -383.7308654306172002
  Basis Set: (AUG-CC-PVTZ AUX)
    Blend: AUG-CC-PVTZ-RI
    Molecular point group: c1

    Geometry (in Angstrom), charge = 0, multiplicity = 1:

       Center              X                  Y                   Z               Mass
    ------------   -----------------  -----------------  -----------------  -----------------
         O            1.779896710365     0.314176068862     0.000018175062    15.994914619570
         C           -0.462482289635     0.982104068862    -0.000011824938    12.000000000000
         C            0.463172710365    -0.079714931138     0.000004175062    12.000000000000
         C           -1.821754289635     0.669677068862    -0.000017824938    12.000000000000
         C            0.035030710365    -1.410116931138     0.000006175062    12.000000000000
         C            0.037748710365     2.399351068862    -0.000007824938    12.000000000000
         C           -2.267428289635    -0.656020931138    -0.000013824938    12.000000000000
         C           -1.335935289635    -1.690291931138    -0.000001824938    12.000000000000
         C            2.760553710365    -0.718429931138     0.000018175062    12.000000000000
         H           -2.545176289635     1.483454068862    -0.000029824938     1.007825032230
         H            0.745406710365    -2.229965931138     0.000016175062     1.007825032230
         H           -0.800798289635     3.100788068862    -0.000102824938     1.007825032230
         H            0.658978710365     2.595947068862     0.878962175062     1.007825032230
         H            0.659137710365     2.595894068862    -0.878875824938     1.007825032230
         H           -3.527994689635    -0.914994831138    -0.000022124938     1.007825032230
         H           -1.666165289635    -2.726446931138     0.000000175062     1.007825032230
         H            2.679167710365    -1.345700931138    -0.894430824938     1.007825032230
         H            2.679163710365    -1.345703931138     0.894465175062     1.007825032230
         H            3.721743710365    -0.205069931138     0.000022175062     1.007825032230

  Basis Set: AUG-CC-PVTZ
    Blend: AUG-CC-PVTZ
  Basis Set: (AUG-CC-PVTZ AUX)
    Blend: AUG-CC-PVTZ-JKFIT
	 Reference Energy          =    -383.7308654306172571 [Eh]
	 Singles Energy            =      -0.0000000000000000 [Eh]
	 Same-Spin Energy          =      -0.4112980554068703 [Eh]
	 Opposite-Spin Energy      =      -1.3204049895997789 [Eh]
	 Correlation Energy        =      -1.7317030450066491 [Eh]
	 Total Energy              =    -385.4625684756239252 [Eh]

	 ================> DF-SCS-MP2 Energies <==================
	-----------------------------------------------------------
	 SCS Same-Spin Scale       =       0.3333333333333333 [-]
	 SCS Opposite-Spin Scale   =       1.2000000000000000 [-]
	 SCS Same-Spin Energy      =      -0.1370993518022901 [Eh]
	 SCS Opposite-Spin Energy  =      -1.5844859875197346 [Eh]
	 SCS Correlation Energy    =      -1.7215853393220246 [Eh]
	 SCS Total Energy          =    -385.4524507699392757 [Eh]
	-----------------------------------------------------------

  Dipole Moment: [D]
     X:     1.1062      Y:    -0.7020      Z:     0.0000     Total:     1.3102

*** Psi4 exiting successfully. Buy a developer a beer!
