                               Psi4 1.4a3.dev225

  ==> Input File <==

--------------------------------------------------------------------------
#psi4
#
memory 32 gb

molecule  {
0 1
  O        1.7572910     0.3059760     0.0000180
  C       -0.4850880     0.9739040    -0.0000120
  C        0.4405670    -0.0879150     0.0000040
  C       -1.8443600     0.6614770    -0.0000180
  C        0.0124250    -1.4183170     0.0000060
  C        0.0151430     2.3911510    -0.0000080
  C       -2.2900340    -0.6642210    -0.0000140
  C       -1.3585410    -1.6984920    -0.0000020
  C        2.7379480    -0.7266300     0.0000180
  H       -2.5677820     1.4752540    -0.0000300
  H        0.7228010    -2.2381660     0.0000160
  H       -0.8234040     3.0925880    -0.0001030
  H        0.6363730     2.5877470     0.8789620
  H        0.6365320     2.5876940    -0.8788760
  H       -3.3546920    -0.8829470    -0.0000210
  H       -1.6887710    -2.7346470     0.0000000
  H        2.7262882    -1.3297319    -0.9144566
  H        2.6565580    -1.3539040     0.8944650
  H        3.6991380    -0.2132700     0.0000220
units angstrom
no_reorient  #important for SAPT in psi4, default
symmetry c1  #important for SAPT in psi4, default
}

set PROPERTIES_ORIGIN ["COM"]
properties('MP2/aug-cc-pvtz', properties = ['dipole'])
--------------------------------------------------------------------------

    Molecular point group: c1
  Charge       = 0
  Multiplicity = 1
  Basis Set: AUG-CC-PVTZ
    Blend: AUG-CC-PVTZ
  Basis Set: (AUG-CC-PVTZ AUX)
    Blend: AUG-CC-PVTZ-JKFIT

    Orbital Energies [Eh]
    ---------------------

    Doubly Occupied:

       1A    -20.584787     2A    -11.295072     3A    -11.284112
       4A    -11.234677     5A    -11.233895     6A    -11.231774
       7A    -11.230232     8A    -11.224415     9A    -11.216064
      10A     -1.404142    11A     -1.145313    12A     -1.044601
      13A     -1.009256    14A     -0.948561    15A     -0.920996
      16A     -0.813013    17A     -0.796631    18A     -0.708393
      19A     -0.667244    20A     -0.654627    21A     -0.646258
      22A     -0.612224    23A     -0.580848    24A     -0.568796
      25A     -0.562953    26A     -0.538867    27A     -0.519867
      28A     -0.510417    29A     -0.496249    30A     -0.475071
      31A     -0.464850    32A     -0.331027    33A     -0.305254

  @DF-RHF Final Energy:  -383.75245785220136

   => Energetics <=

    Nuclear Repulsion Energy =            429.9835431705968745
    One-Electron Energy =               -1372.9510268005581111
    Two-Electron Energy =                 559.2150257777598199
    Total Energy =                       -383.7524578522013599
  Basis Set: (AUG-CC-PVTZ AUX)
    Blend: AUG-CC-PVTZ-RI
    Molecular point group: c1

    Geometry (in Angstrom), charge = 0, multiplicity = 1:

       Center              X                  Y                   Z               Mass
    ------------   -----------------  -----------------  -----------------  -----------------
         O            1.777703655082     0.313644247924     0.000183493876    15.994914619570
         C           -0.464675344918     0.981572247924     0.000153493876    12.000000000000
         C            0.460979655082    -0.080246752076     0.000169493876    12.000000000000
         C           -1.823947344918     0.669145247924     0.000147493876    12.000000000000
         C            0.032837655082    -1.410648752076     0.000171493876    12.000000000000
         C            0.035555655082     2.398819247924     0.000157493876    12.000000000000
         C           -2.269621344918    -0.656552752076     0.000151493876    12.000000000000
         C           -1.338128344918    -1.690823752076     0.000163493876    12.000000000000
         C            2.758360655082    -0.718961752076     0.000183493876    12.000000000000
         H           -2.547369344918     1.482922247924     0.000135493876     1.007825032230
         H            0.743213655082    -2.230497752076     0.000181493876     1.007825032230
         H           -0.802991344918     3.100256247924     0.000062493876     1.007825032230
         H            0.656785655082     2.595415247924     0.879127493876     1.007825032230
         H            0.656944655082     2.595362247924    -0.878710506124     1.007825032230
         H           -3.334279344918    -0.875278752076     0.000144493876     1.007825032230
         H           -1.668358344918    -2.726978752076     0.000165493876     1.007825032230
         H            2.746700855082    -1.322063652076    -0.914291106124     1.007825032230
         H            2.676970655082    -1.346235752076     0.894630493876     1.007825032230
         H            3.719550655082    -0.205601752076     0.000187493876     1.007825032230

  Basis Set: AUG-CC-PVTZ
    Blend: AUG-CC-PVTZ
  Basis Set: (AUG-CC-PVTZ AUX)
    Blend: AUG-CC-PVTZ-JKFIT
	 Reference Energy          =    -383.7524578522013599 [Eh]
	 Singles Energy            =      -0.0000000000000000 [Eh]
	 Same-Spin Energy          =      -0.4108471202938851 [Eh]
	 Opposite-Spin Energy      =      -1.3181670995936734 [Eh]
	 Correlation Energy        =      -1.7290142198875587 [Eh]
	 Total Energy              =    -385.4814720720889341 [Eh]

	 ================> DF-SCS-MP2 Energies <==================
	-----------------------------------------------------------
	 SCS Same-Spin Scale       =       0.3333333333333333 [-]
	 SCS Opposite-Spin Scale   =       1.2000000000000000 [-]
	 SCS Same-Spin Energy      =      -0.1369490400979617 [Eh]
	 SCS Opposite-Spin Energy  =      -1.5818005195124081 [Eh]
	 SCS Correlation Energy    =      -1.7187495596103697 [Eh]
	 SCS Total Energy          =    -385.4712074118117471 [Eh]
	-----------------------------------------------------------

  Dipole Moment: [D]
     X:     0.9967      Y:    -0.7373      Z:    -0.0160     Total:     1.2399

*** Psi4 exiting successfully. Buy a developer a beer!
