                               Psi4 1.4a3.dev225

  ==> Input File <==

--------------------------------------------------------------------------
#psi4
#
memory 32 gb

molecule  {
0 1
  O        1.7572910     0.3059760     0.0000180
  C       -0.4850880     0.9739040    -0.0000120
  C        0.4405670    -0.0879150     0.0000040
  C       -1.8443600     0.6614770    -0.0000180
  C        0.0124250    -1.4183170     0.0000060
  C        0.0151430     2.3911510    -0.0000080
  C       -2.3537651    -0.8537951    -0.0000134
  C       -1.3585410    -1.6984920    -0.0000020
  C        2.7379480    -0.7266300     0.0000180
  H       -2.5677820     1.4752540    -0.0000300
  H        0.7228010    -2.2381660     0.0000160
  H       -0.8234040     3.0925880    -0.0001030
  H        0.6363730     2.5877470     0.8789620
  H        0.6365320     2.5876940    -0.8788760
  H       -3.3546920    -0.8829470    -0.0000210
  H       -1.6887710    -2.7346470     0.0000000
  H        2.6565620    -1.3539010    -0.8944310
  H        2.6565580    -1.3539040     0.8944650
  H        3.6991380    -0.2132700     0.0000220
units angstrom
no_reorient  #important for SAPT in psi4, default
symmetry c1  #important for SAPT in psi4, default
}

set PROPERTIES_ORIGIN ["COM"]
properties('MP2/aug-cc-pvtz', properties = ['dipole'])
--------------------------------------------------------------------------

    Molecular point group: c1
  Charge       = 0
  Multiplicity = 1
  Basis Set: AUG-CC-PVTZ
    Blend: AUG-CC-PVTZ
  Basis Set: (AUG-CC-PVTZ AUX)
    Blend: AUG-CC-PVTZ-JKFIT

    Orbital Energies [Eh]
    ---------------------

    Doubly Occupied:

       1A    -20.587592     2A    -11.300786     3A    -11.285109
       4A    -11.246403     5A    -11.235897     6A    -11.227243
       7A    -11.226424     8A    -11.224800     9A    -11.217047
      10A     -1.406826    11A     -1.139207    12A     -1.054207
      13A     -0.998358    14A     -0.947957    15A     -0.923259
      16A     -0.818212    17A     -0.795604    18A     -0.706782
      19A     -0.680138    20A     -0.654790    21A     -0.652700
      22A     -0.605256    23A     -0.581583    24A     -0.568462
      25A     -0.561047    26A     -0.555360    27A     -0.512711
      28A     -0.509465    29A     -0.508115    30A     -0.461923
      31A     -0.445694    32A     -0.332233    33A     -0.305828

  @DF-RHF Final Energy:  -383.71315682099532

   => Energetics <=

    Nuclear Repulsion Energy =            428.2085555446396370
    One-Electron Energy =               -1369.2893918536367437
    Two-Electron Energy =                 557.3676794880017269
    Total Energy =                       -383.7131568209953230
  Basis Set: (AUG-CC-PVTZ AUX)
    Blend: AUG-CC-PVTZ-RI
    Molecular point group: c1

    Geometry (in Angstrom), charge = 0, multiplicity = 1:

       Center              X                  Y                   Z               Mass
    ------------   -----------------  -----------------  -----------------  -----------------
         O            1.784544183958     0.332479242700     0.000018105349    15.994914619570
         C           -0.457834816042     1.000407242700    -0.000011894651    12.000000000000
         C            0.467820183958    -0.061411757300     0.000004105349    12.000000000000
         C           -1.817106816042     0.687980242700    -0.000017894651    12.000000000000
         C            0.039678183958    -1.391813757300     0.000006105349    12.000000000000
         C            0.042396183958     2.417654242700    -0.000007894651    12.000000000000
         C           -2.326511916042    -0.827291857300    -0.000013294651    12.000000000000
         C           -1.331287816042    -1.671988757300    -0.000001894651    12.000000000000
         C            2.765201183958    -0.700126757300     0.000018105349    12.000000000000
         H           -2.540528816042     1.501757242700    -0.000029894651     1.007825032230
         H            0.750054183958    -2.211662757300     0.000016105349     1.007825032230
         H           -0.796150816042     3.119091242700    -0.000102894651     1.007825032230
         H            0.663626183958     2.614250242700     0.878962105349     1.007825032230
         H            0.663785183958     2.614197242700    -0.878875894651     1.007825032230
         H           -3.327438816042    -0.856443757300    -0.000020894651     1.007825032230
         H           -1.661517816042    -2.708143757300     0.000000105349     1.007825032230
         H            2.683815183958    -1.327397757300    -0.894430894651     1.007825032230
         H            2.683811183958    -1.327400757300     0.894465105349     1.007825032230
         H            3.726391183958    -0.186766757300     0.000022105349     1.007825032230

  Basis Set: AUG-CC-PVTZ
    Blend: AUG-CC-PVTZ
  Basis Set: (AUG-CC-PVTZ AUX)
    Blend: AUG-CC-PVTZ-JKFIT
	 Reference Energy          =    -383.7131568209953230 [Eh]
	 Singles Energy            =      -0.0000000000000000 [Eh]
	 Same-Spin Energy          =      -0.4097016171700746 [Eh]
	 Opposite-Spin Energy      =      -1.3200638830805604 [Eh]
	 Correlation Energy        =      -1.7297655002506351 [Eh]
	 Total Energy              =    -385.4429223212459306 [Eh]

	 ================> DF-SCS-MP2 Energies <==================
	-----------------------------------------------------------
	 SCS Same-Spin Scale       =       0.3333333333333333 [-]
	 SCS Opposite-Spin Scale   =       1.2000000000000000 [-]
	 SCS Same-Spin Energy      =      -0.1365672057233582 [Eh]
	 SCS Opposite-Spin Energy  =      -1.5840766596966724 [Eh]
	 SCS Correlation Energy    =      -1.7206438654200307 [Eh]
	 SCS Total Energy          =    -385.4338006864153385 [Eh]
	-----------------------------------------------------------

  Dipole Moment: [D]
     X:     1.0048      Y:    -0.6369      Z:     0.0000     Total:     1.1897

*** Psi4 exiting successfully. Buy a developer a beer!
