                               Psi4 1.4a3.dev225

  ==> Input File <==

--------------------------------------------------------------------------
#psi4
#
memory 32 gb

molecule  {
0 1
  O        1.7572910     0.3059760     0.0000180
  C       -0.4850880     0.9739040    -0.0000120
  C        0.4405670    -0.0879150     0.0000040
  C       -1.8443600     0.6614770    -0.0000180
  C        0.0124250    -1.4183170     0.0000060
  C        0.0151430     2.3911510    -0.0000080
  C       -2.1964723    -0.6920803    -0.0000129
  C       -1.3585410    -1.6984920    -0.0000020
  C        2.7379480    -0.7266300     0.0000180
  H       -2.5677820     1.4752540    -0.0000300
  H        0.7228010    -2.2381660     0.0000160
  H       -0.8234040     3.0925880    -0.0001030
  H        0.6363730     2.5877470     0.8789620
  H        0.6365320     2.5876940    -0.8788760
  H       -3.3546920    -0.8829470    -0.0000210
  H       -1.6887710    -2.7346470     0.0000000
  H        2.6565620    -1.3539010    -0.8944310
  H        2.6565580    -1.3539040     0.8944650
  H        3.6991380    -0.2132700     0.0000220
units angstrom
no_reorient  #important for SAPT in psi4, default
symmetry c1  #important for SAPT in psi4, default
}

set PROPERTIES_ORIGIN ["COM"]
properties('MP2/aug-cc-pvtz', properties = ['dipole'])
--------------------------------------------------------------------------

    Molecular point group: c1
  Charge       = 0
  Multiplicity = 1
  Basis Set: AUG-CC-PVTZ
    Blend: AUG-CC-PVTZ
  Basis Set: (AUG-CC-PVTZ AUX)
    Blend: AUG-CC-PVTZ-JKFIT

    Orbital Energies [Eh]
    ---------------------

    Doubly Occupied:

       1A    -20.583074     2A    -11.293632     3A    -11.283636
       4A    -11.235323     5A    -11.231717     6A    -11.229239
       7A    -11.224091     8A    -11.222018     9A    -11.216457
      10A     -1.403125    11A     -1.154402    12A     -1.052195
      13A     -1.007079    14A     -0.947067    15A     -0.927304
      16A     -0.817090    17A     -0.788562    18A     -0.711435
      19A     -0.670558    20A     -0.652987    21A     -0.633652
      22A     -0.615987    23A     -0.587548    24A     -0.569246
      25A     -0.564045    26A     -0.541290    27A     -0.517944
      28A     -0.510761    29A     -0.487632    30A     -0.471065
      31A     -0.469600    32A     -0.330262    33A     -0.311574

  @DF-RHF Final Energy:  -383.74092765756916

   => Energetics <=

    Nuclear Repulsion Energy =            431.7772051380831044
    One-Electron Energy =               -1376.5130751999836320
    Two-Electron Energy =                 560.9949424043313684
    Total Energy =                       -383.7409276575691592
  Basis Set: (AUG-CC-PVTZ AUX)
    Blend: AUG-CC-PVTZ-RI
    Molecular point group: c1

    Geometry (in Angstrom), charge = 0, multiplicity = 1:

       Center              X                  Y                   Z               Mass
    ------------   -----------------  -----------------  -----------------  -----------------
         O            1.769082033854     0.316582402466     0.000018056198    15.994914619570
         C           -0.473296966146     0.984510402466    -0.000011943802    12.000000000000
         C            0.452358033854    -0.077308597534     0.000004056198    12.000000000000
         C           -1.832568966146     0.672083402466    -0.000017943802    12.000000000000
         C            0.024216033854    -1.407710597534     0.000006056198    12.000000000000
         C            0.026934033854     2.401757402466    -0.000007943802    12.000000000000
         C           -2.184681266146    -0.681473897534    -0.000012843802    12.000000000000
         C           -1.346749966146    -1.687885597534    -0.000001943802    12.000000000000
         C            2.749739033854    -0.716023597534     0.000018056198    12.000000000000
         H           -2.555990966146     1.485860402466    -0.000029943802     1.007825032230
         H            0.734592033854    -2.227559597534     0.000016056198     1.007825032230
         H           -0.811612966146     3.103194402466    -0.000102943802     1.007825032230
         H            0.648164033854     2.598353402466     0.878962056198     1.007825032230
         H            0.648323033854     2.598300402466    -0.878875943802     1.007825032230
         H           -3.342900966146    -0.872340597534    -0.000020943802     1.007825032230
         H           -1.676979966146    -2.724040597534     0.000000056198     1.007825032230
         H            2.668353033854    -1.343294597534    -0.894430943802     1.007825032230
         H            2.668349033854    -1.343297597534     0.894465056198     1.007825032230
         H            3.710929033854    -0.202663597534     0.000022056198     1.007825032230

  Basis Set: AUG-CC-PVTZ
    Blend: AUG-CC-PVTZ
  Basis Set: (AUG-CC-PVTZ AUX)
    Blend: AUG-CC-PVTZ-JKFIT
	 Reference Energy          =    -383.7409276575691592 [Eh]
	 Singles Energy            =      -0.0000000000000000 [Eh]
	 Same-Spin Energy          =      -0.4109066041783559 [Eh]
	 Opposite-Spin Energy      =      -1.3182101289566717 [Eh]
	 Correlation Energy        =      -1.7291167331350277 [Eh]
	 Total Energy              =    -385.4700443907041745 [Eh]

	 ================> DF-SCS-MP2 Energies <==================
	-----------------------------------------------------------
	 SCS Same-Spin Scale       =       0.3333333333333333 [-]
	 SCS Opposite-Spin Scale   =       1.2000000000000000 [-]
	 SCS Same-Spin Energy      =      -0.1369688680594520 [Eh]
	 SCS Opposite-Spin Energy  =      -1.5818521547480060 [Eh]
	 SCS Correlation Energy    =      -1.7188210228074579 [Eh]
	 SCS Total Energy          =    -385.4597486803766060 [Eh]
	-----------------------------------------------------------

  Dipole Moment: [D]
     X:     0.9975      Y:    -0.6950      Z:     0.0000     Total:     1.2158

*** Psi4 exiting successfully. Buy a developer a beer!
