                               Psi4 1.4a3.dev225

  ==> Input File <==

--------------------------------------------------------------------------
#psi4
#
memory 32 gb

molecule  {
0 1
  O        1.7572910     0.3059760     0.0000180
  C       -0.4850880     0.9739040    -0.0000120
  C        0.4405670    -0.0879150     0.0000040
  C       -1.8443600     0.6614770    -0.0000180
  C        0.0124250    -1.4183170     0.0000060
  C        0.0151430     2.3911510    -0.0000080
  C       -2.2900340    -0.6642210    -0.0000140
  C       -1.3585410    -1.6984920    -0.0000020
  C        2.7379480    -0.7266300     0.0000180
  H       -2.5677820     1.4752540    -0.0000300
  H        0.7228010    -2.2381660     0.0000160
  H       -0.8234040     3.0925880    -0.0001030
  H        0.6363730     2.5877470     0.8789620
  H        0.6365320     2.5876940    -0.8788760
  H       -3.3546920    -0.8829470    -0.0000210
  H       -1.6887710    -2.7346470     0.0000000
  H        2.6528475    -1.3825303    -0.9352546
  H        2.6565580    -1.3539040     0.8944650
  H        3.6991380    -0.2132700     0.0000220
units angstrom
no_reorient  #important for SAPT in psi4, default
symmetry c1  #important for SAPT in psi4, default
}

set PROPERTIES_ORIGIN ["COM"]
properties('MP2/aug-cc-pvtz', properties = ['dipole'])
--------------------------------------------------------------------------

    Molecular point group: c1
  Charge       = 0
  Multiplicity = 1
  Basis Set: AUG-CC-PVTZ
    Blend: AUG-CC-PVTZ
  Basis Set: (AUG-CC-PVTZ AUX)
    Blend: AUG-CC-PVTZ-JKFIT

    Orbital Energies [Eh]
    ---------------------

    Doubly Occupied:

       1A    -20.585037     2A    -11.295224     3A    -11.290170
       4A    -11.234770     5A    -11.234120     6A    -11.231894
       7A    -11.230412     8A    -11.224616     9A    -11.216209
      10A     -1.404533    11A     -1.145455    12A     -1.044666
      13A     -1.008952    14A     -0.945792    15A     -0.920288
      16A     -0.812028    17A     -0.796616    18A     -0.708153
      19A     -0.667244    20A     -0.650644    21A     -0.645278
      22A     -0.613323    23A     -0.581427    24A     -0.567670
      25A     -0.563340    26A     -0.539031    27A     -0.521331
      28A     -0.506205    29A     -0.496694    30A     -0.475241
      31A     -0.463523    32A     -0.331196    33A     -0.305443

  @DF-RHF Final Energy:  -383.75080638941137

   => Energetics <=

    Nuclear Repulsion Energy =            429.8986267068580673
    One-Electron Energy =               -1372.7858175731514621
    Two-Electron Energy =                 559.1363844768820854
    Total Energy =                       -383.7508063894113093
  Basis Set: (AUG-CC-PVTZ AUX)
    Blend: AUG-CC-PVTZ-RI
    Molecular point group: c1

    Geometry (in Angstrom), charge = 0, multiplicity = 1:

       Center              X                  Y                   Z               Mass
    ------------   -----------------  -----------------  -----------------  -----------------
         O            1.778309974873     0.314080146749     0.000355200287    15.994914619570
         C           -0.464069025127     0.982008146749     0.000325200287    12.000000000000
         C            0.461585974873    -0.079810853251     0.000341200287    12.000000000000
         C           -1.823341025127     0.669581146749     0.000319200287    12.000000000000
         C            0.033443974873    -1.410212853251     0.000343200287    12.000000000000
         C            0.036161974873     2.399255146749     0.000329200287    12.000000000000
         C           -2.269015025127    -0.656116853251     0.000323200287    12.000000000000
         C           -1.337522025127    -1.690387853251     0.000335200287    12.000000000000
         C            2.758966974873    -0.718525853251     0.000355200287    12.000000000000
         H           -2.546763025127     1.483358146749     0.000307200287     1.007825032230
         H            0.743819974873    -2.230061853251     0.000353200287     1.007825032230
         H           -0.802385025127     3.100692146749     0.000234200287     1.007825032230
         H            0.657391974873     2.595851146749     0.879299200287     1.007825032230
         H            0.657550974873     2.595798146749    -0.878538799713     1.007825032230
         H           -3.333673025127    -0.874842853251     0.000316200287     1.007825032230
         H           -1.667752025127    -2.726542853251     0.000337200287     1.007825032230
         H            2.673866474873    -1.374426153251    -0.934917399713     1.007825032230
         H            2.677576974873    -1.345799853251     0.894802200287     1.007825032230
         H            3.720156974873    -0.205165853251     0.000359200287     1.007825032230

  Basis Set: AUG-CC-PVTZ
    Blend: AUG-CC-PVTZ
  Basis Set: (AUG-CC-PVTZ AUX)
    Blend: AUG-CC-PVTZ-JKFIT
	 Reference Energy          =    -383.7508063894113661 [Eh]
	 Singles Energy            =      -0.0000000000000000 [Eh]
	 Same-Spin Energy          =      -0.4109406742828872 [Eh]
	 Opposite-Spin Energy      =      -1.3185944775393261 [Eh]
	 Correlation Energy        =      -1.7295351518222133 [Eh]
	 Total Energy              =    -385.4803415412335994 [Eh]

	 ================> DF-SCS-MP2 Energies <==================
	-----------------------------------------------------------
	 SCS Same-Spin Scale       =       0.3333333333333333 [-]
	 SCS Opposite-Spin Scale   =       1.2000000000000000 [-]
	 SCS Same-Spin Energy      =      -0.1369802247609624 [Eh]
	 SCS Opposite-Spin Energy  =      -1.5823133730471912 [Eh]
	 SCS Correlation Energy    =      -1.7192935978081536 [Eh]
	 SCS Total Energy          =    -385.4700999872194984 [Eh]
	-----------------------------------------------------------

  Dipole Moment: [D]
     X:     0.9613      Y:    -0.7133      Z:     0.0253     Total:     1.1973

*** Psi4 exiting successfully. Buy a developer a beer!
