                               Psi4 1.4a3.dev225

  ==> Input File <==

--------------------------------------------------------------------------
#psi4
#
memory 32 gb

molecule  {
0 1
  O        1.7572910     0.3059760     0.0000180
  C       -0.4850880     0.9739040    -0.0000120
  C        0.4405670    -0.0879150     0.0000040
  C       -1.8443600     0.6614770    -0.0000180
  C        0.0124250    -1.4183170     0.0000060
  C        0.0151430     2.3911510    -0.0000080
  C       -2.2900340    -0.6642210    -0.0000140
  C       -1.3585410    -1.6984920    -0.0000020
  C        2.7379480    -0.7266300     0.0000180
  H       -2.5677820     1.4752540    -0.0000300
  H        0.7228010    -2.2381660     0.0000160
  H       -0.8234040     3.0925880    -0.0001030
  H        0.6363730     2.5877470     0.8789620
  H        0.6365320     2.5876940    -0.8788760
  H       -3.3546920    -0.8829470    -0.0000210
  H       -1.6887710    -2.7346470     0.0000000
  H        2.6913968    -1.3421914    -0.9049951
  H        2.6565580    -1.3539040     0.8944650
  H        3.6991380    -0.2132700     0.0000220
units angstrom
no_reorient  #important for SAPT in psi4, default
symmetry c1  #important for SAPT in psi4, default
}

set PROPERTIES_ORIGIN ["COM"]
properties('MP2/aug-cc-pvtz', properties = ['dipole'])
--------------------------------------------------------------------------

    Molecular point group: c1
  Charge       = 0
  Multiplicity = 1
  Basis Set: AUG-CC-PVTZ
    Blend: AUG-CC-PVTZ
  Basis Set: (AUG-CC-PVTZ AUX)
    Blend: AUG-CC-PVTZ-JKFIT

    Orbital Energies [Eh]
    ---------------------

    Doubly Occupied:

       1A    -20.584392     2A    -11.295084     3A    -11.284189
       4A    -11.234717     5A    -11.233912     6A    -11.231793
       7A    -11.230293     8A    -11.224444     9A    -11.216054
      10A     -1.404044    11A     -1.145337    12A     -1.044638
      13A     -1.009223    14A     -0.948471    15A     -0.921010
      16A     -0.812802    17A     -0.796759    18A     -0.708672
      19A     -0.667019    20A     -0.654107    21A     -0.646227
      22A     -0.612833    23A     -0.580919    24A     -0.568622
      25A     -0.563169    26A     -0.538875    27A     -0.520892
      28A     -0.509749    29A     -0.496403    30A     -0.475221
      31A     -0.464600    32A     -0.331083    33A     -0.305242

  @DF-RHF Final Energy:  -383.75288963447605

   => Energetics <=

    Nuclear Repulsion Energy =            430.0427550083933284
    One-Electron Energy =               -1373.0696984997991876
    Two-Electron Energy =                 559.2740538569297541
    Total Energy =                       -383.7528896344761051
  Basis Set: (AUG-CC-PVTZ AUX)
    Blend: AUG-CC-PVTZ-RI
    Molecular point group: c1

    Geometry (in Angstrom), charge = 0, multiplicity = 1:

       Center              X                  Y                   Z               Mass
    ------------   -----------------  -----------------  -----------------  -----------------
         O            1.777991715331     0.313747112431     0.000105380586    15.994914619570
         C           -0.464387284669     0.981675112431     0.000075380586    12.000000000000
         C            0.461267715331    -0.080143887569     0.000091380586    12.000000000000
         C           -1.823659284669     0.669248112431     0.000069380586    12.000000000000
         C            0.033125715331    -1.410545887569     0.000093380586    12.000000000000
         C            0.035843715331     2.398922112431     0.000079380586    12.000000000000
         C           -2.269333284669    -0.656449887569     0.000073380586    12.000000000000
         C           -1.337840284669    -1.690720887569     0.000085380586    12.000000000000
         C            2.758648715331    -0.718858887569     0.000105380586    12.000000000000
         H           -2.547081284669     1.483025112431     0.000057380586     1.007825032230
         H            0.743501715331    -2.230394887569     0.000103380586     1.007825032230
         H           -0.802703284669     3.100359112431    -0.000015619414     1.007825032230
         H            0.657073715331     2.595518112431     0.879049380586     1.007825032230
         H            0.657232715331     2.595465112431    -0.878788619414     1.007825032230
         H           -3.333991284669    -0.875175887569     0.000066380586     1.007825032230
         H           -1.668070284669    -2.726875887569     0.000087380586     1.007825032230
         H            2.712097515331    -1.334420287569    -0.904907719414     1.007825032230
         H            2.677258715331    -1.346132887569     0.894552380586     1.007825032230
         H            3.719838715331    -0.205498887569     0.000109380586     1.007825032230

  Basis Set: AUG-CC-PVTZ
    Blend: AUG-CC-PVTZ
  Basis Set: (AUG-CC-PVTZ AUX)
    Blend: AUG-CC-PVTZ-JKFIT
	 Reference Energy          =    -383.7528896344760483 [Eh]
	 Singles Energy            =      -0.0000000000000000 [Eh]
	 Same-Spin Energy          =      -0.4108490615452823 [Eh]
	 Opposite-Spin Energy      =      -1.3181675603834986 [Eh]
	 Correlation Energy        =      -1.7290166219287808 [Eh]
	 Total Energy              =    -385.4819062564048409 [Eh]

	 ================> DF-SCS-MP2 Energies <==================
	-----------------------------------------------------------
	 SCS Same-Spin Scale       =       0.3333333333333333 [-]
	 SCS Opposite-Spin Scale   =       1.2000000000000000 [-]
	 SCS Same-Spin Energy      =      -0.1369496871817608 [Eh]
	 SCS Opposite-Spin Energy  =      -1.5818010724601983 [Eh]
	 SCS Correlation Energy    =      -1.7187507596419591 [Eh]
	 SCS Total Energy          =    -385.4716403941180261 [Eh]
	-----------------------------------------------------------

  Dipole Moment: [D]
     X:     0.9890      Y:    -0.7374      Z:    -0.0082     Total:     1.2337

*** Psi4 exiting successfully. Buy a developer a beer!
