                               Psi4 1.4a3.dev225

  ==> Input File <==

--------------------------------------------------------------------------
#psi4
#
memory 32 gb

molecule  {
0 1
  O        1.7572910     0.3059760     0.0000180
  C       -0.4850880     0.9739040    -0.0000120
  C        0.4162980     0.0048945     0.0000045
  C       -1.8443600     0.6614770    -0.0000180
  C        0.0124250    -1.4183170     0.0000060
  C        0.0151430     2.3911510    -0.0000080
  C       -2.2900340    -0.6642210    -0.0000140
  C       -1.3585410    -1.6984920    -0.0000020
  C        2.7379480    -0.7266300     0.0000180
  H       -2.5677820     1.4752540    -0.0000300
  H        0.7228010    -2.2381660     0.0000160
  H       -0.8234040     3.0925880    -0.0001030
  H        0.6363730     2.5877470     0.8789620
  H        0.6365320     2.5876940    -0.8788760
  H       -3.3546920    -0.8829470    -0.0000210
  H       -1.6887710    -2.7346470     0.0000000
  H        2.6565620    -1.3539010    -0.8944310
  H        2.6565580    -1.3539040     0.8944650
  H        3.6991380    -0.2132700     0.0000220
units angstrom
no_reorient  #important for SAPT in psi4, default
symmetry c1  #important for SAPT in psi4, default
}

set PROPERTIES_ORIGIN ["COM"]
properties('MP2/aug-cc-pvtz', properties = ['dipole'])
--------------------------------------------------------------------------

    Molecular point group: c1
  Charge       = 0
  Multiplicity = 1
  Basis Set: AUG-CC-PVTZ
    Blend: AUG-CC-PVTZ
  Basis Set: (AUG-CC-PVTZ AUX)
    Blend: AUG-CC-PVTZ-JKFIT

    Orbital Energies [Eh]
    ---------------------

    Doubly Occupied:

       1A    -20.579231     2A    -11.293838     3A    -11.285641
       4A    -11.238246     5A    -11.235225     6A    -11.234957
       7A    -11.224937     8A    -11.222419     9A    -11.214799
      10A     -1.399524    11A     -1.149556    12A     -1.051637
      13A     -1.001634    14A     -0.947286    15A     -0.921352
      16A     -0.825151    17A     -0.789558    18A     -0.705798
      19A     -0.669011    20A     -0.651700    21A     -0.647797
      22A     -0.608739    23A     -0.587287    24A     -0.570859
      25A     -0.563758    26A     -0.536389    27A     -0.519533
      28A     -0.507298    29A     -0.504788    30A     -0.463766
      31A     -0.463504    32A     -0.330792    33A     -0.307407

  @DF-RHF Final Energy:  -383.74171113789919

   => Energetics <=

    Nuclear Repulsion Energy =            430.3650692991423057
    One-Electron Energy =               -1373.7067261255874655
    Two-Electron Energy =                 559.5999456885459722
    Total Energy =                       -383.7417111378991876
  Basis Set: (AUG-CC-PVTZ AUX)
    Blend: AUG-CC-PVTZ-RI
    Molecular point group: c1

    Geometry (in Angstrom), charge = 0, multiplicity = 1:

       Center              X                  Y                   Z               Mass
    ------------   -----------------  -----------------  -----------------  -----------------
         O            1.780664992325     0.304720453931     0.000018115179    15.994914619570
         C           -0.461714007675     0.972648453931    -0.000011884821    12.000000000000
         C            0.439671992325     0.003638953931     0.000004615179    12.000000000000
         C           -1.820986007675     0.660221453931    -0.000017884821    12.000000000000
         C            0.035798992325    -1.419572546069     0.000006115179    12.000000000000
         C            0.038516992325     2.389895453931    -0.000007884821    12.000000000000
         C           -2.266660007675    -0.665476546069    -0.000013884821    12.000000000000
         C           -1.335167007675    -1.699747546069    -0.000001884821    12.000000000000
         C            2.761321992325    -0.727885546069     0.000018115179    12.000000000000
         H           -2.544408007675     1.473998453931    -0.000029884821     1.007825032230
         H            0.746174992325    -2.239421546069     0.000016115179     1.007825032230
         H           -0.800030007675     3.091332453931    -0.000102884821     1.007825032230
         H            0.659746992325     2.586491453931     0.878962115179     1.007825032230
         H            0.659905992325     2.586438453931    -0.878875884821     1.007825032230
         H           -3.331318007675    -0.884202546069    -0.000020884821     1.007825032230
         H           -1.665397007675    -2.735902546069     0.000000115179     1.007825032230
         H            2.679935992325    -1.355156546069    -0.894430884821     1.007825032230
         H            2.679931992325    -1.355159546069     0.894465115179     1.007825032230
         H            3.722511992325    -0.214525546069     0.000022115179     1.007825032230

  Basis Set: AUG-CC-PVTZ
    Blend: AUG-CC-PVTZ
  Basis Set: (AUG-CC-PVTZ AUX)
    Blend: AUG-CC-PVTZ-JKFIT
	 Reference Energy          =    -383.7417111378991876 [Eh]
	 Singles Energy            =      -0.0000000000000000 [Eh]
	 Same-Spin Energy          =      -0.4106318105537766 [Eh]
	 Opposite-Spin Energy      =      -1.3181014964619666 [Eh]
	 Correlation Energy        =      -1.7287333070157431 [Eh]
	 Total Energy              =    -385.4704444449149037 [Eh]

	 ================> DF-SCS-MP2 Energies <==================
	-----------------------------------------------------------
	 SCS Same-Spin Scale       =       0.3333333333333333 [-]
	 SCS Opposite-Spin Scale   =       1.2000000000000000 [-]
	 SCS Same-Spin Energy      =      -0.1368772701845922 [Eh]
	 SCS Opposite-Spin Energy  =      -1.5817217957543599 [Eh]
	 SCS Correlation Energy    =      -1.7185990659389521 [Eh]
	 SCS Total Energy          =    -385.4603102038381621 [Eh]
	-----------------------------------------------------------

  Dipole Moment: [D]
     X:     0.9337      Y:    -0.7562      Z:     0.0000     Total:     1.2015

*** Psi4 exiting successfully. Buy a developer a beer!
