                               Psi4 1.4a3.dev225

  ==> Input File <==

--------------------------------------------------------------------------
#psi4
#
memory 32 gb

molecule  {
0 1
  O        1.7572910     0.3059760     0.0000180
  C       -0.4850880     0.9739040    -0.0000120
  C        0.4405670    -0.0879150     0.0000040
  C       -1.8443600     0.6614770    -0.0000180
  C        0.0124250    -1.4183170     0.0000060
  C        0.0151430     2.3911510    -0.0000080
  C       -2.2900340    -0.6642210    -0.0000140
  C       -1.3585410    -1.6984920    -0.0000020
  C        2.8068112    -0.7991411     0.0000180
  H       -2.5677820     1.4752540    -0.0000300
  H        0.7228010    -2.2381660     0.0000160
  H       -0.8234040     3.0925880    -0.0001030
  H        0.6363730     2.5877470     0.8789620
  H        0.6365320     2.5876940    -0.8788760
  H       -3.3546920    -0.8829470    -0.0000210
  H       -1.6887710    -2.7346470     0.0000000
  H        2.6565620    -1.3539010    -0.8944310
  H        2.6565580    -1.3539040     0.8944650
  H        3.6991380    -0.2132700     0.0000220
units angstrom
no_reorient  #important for SAPT in psi4, default
symmetry c1  #important for SAPT in psi4, default
}

set PROPERTIES_ORIGIN ["COM"]
properties('MP2/aug-cc-pvtz', properties = ['dipole'])
--------------------------------------------------------------------------

    Molecular point group: c1
  Charge       = 0
  Multiplicity = 1
  Basis Set: AUG-CC-PVTZ
    Blend: AUG-CC-PVTZ
  Basis Set: (AUG-CC-PVTZ AUX)
    Blend: AUG-CC-PVTZ-JKFIT

    Orbital Energies [Eh]
    ---------------------

    Doubly Occupied:

       1A    -20.576212     2A    -11.291328     3A    -11.287251
       4A    -11.232681     5A    -11.230431     6A    -11.229184
       7A    -11.227088     8A    -11.221222     9A    -11.213312
      10A     -1.375909    11A     -1.140651    12A     -1.041216
      13A     -1.004101    14A     -0.954992    15A     -0.919978
      16A     -0.811113    17A     -0.791849    18A     -0.699473
      19A     -0.658564    20A     -0.652216    21A     -0.639219
      22A     -0.615979    23A     -0.572231    24A     -0.570114
      25A     -0.562295    26A     -0.536001    27A     -0.524333
      28A     -0.517667    29A     -0.493607    30A     -0.470439
      31A     -0.463976    32A     -0.328684    33A     -0.300805

  @DF-RHF Final Energy:  -383.74365436894686

   => Energetics <=

    Nuclear Repulsion Energy =            428.2802181221438218
    One-Electron Energy =               -1369.7395085026009838
    Two-Electron Energy =                 557.7156360115102416
    Total Energy =                       -383.7436543689468635
  Basis Set: (AUG-CC-PVTZ AUX)
    Blend: AUG-CC-PVTZ-RI
    Molecular point group: c1

    Geometry (in Angstrom), charge = 0, multiplicity = 1:

       Center              X                  Y                   Z               Mass
    ------------   -----------------  -----------------  -----------------  -----------------
         O            1.771509938464     0.320971750446     0.000018164330    15.994914619570
         C           -0.470869061536     0.988899750446    -0.000011835670    12.000000000000
         C            0.454785938464    -0.072919249554     0.000004164330    12.000000000000
         C           -1.830141061536     0.676472750446    -0.000017835670    12.000000000000
         C            0.026643938464    -1.403321249554     0.000006164330    12.000000000000
         C            0.029361938464     2.406146750446    -0.000007835670    12.000000000000
         C           -2.275815061536    -0.649225249554    -0.000013835670    12.000000000000
         C           -1.344322061536    -1.683496249554    -0.000001835670    12.000000000000
         C            2.821030138464    -0.784145349554     0.000018164330    12.000000000000
         H           -2.553563061536     1.490249750446    -0.000029835670     1.007825032230
         H            0.737019938464    -2.223170249554     0.000016164330     1.007825032230
         H           -0.809185061536     3.107583750446    -0.000102835670     1.007825032230
         H            0.650591938464     2.602742750446     0.878962164330     1.007825032230
         H            0.650750938464     2.602689750446    -0.878875835670     1.007825032230
         H           -3.340473061536    -0.867951249554    -0.000020835670     1.007825032230
         H           -1.674552061536    -2.719651249554     0.000000164330     1.007825032230
         H            2.670780938464    -1.338905249554    -0.894430835670     1.007825032230
         H            2.670776938464    -1.338908249554     0.894465164330     1.007825032230
         H            3.713356938464    -0.198274249554     0.000022164330     1.007825032230

  Basis Set: AUG-CC-PVTZ
    Blend: AUG-CC-PVTZ
  Basis Set: (AUG-CC-PVTZ AUX)
    Blend: AUG-CC-PVTZ-JKFIT
	 Reference Energy          =    -383.7436543689468635 [Eh]
	 Singles Energy            =      -0.0000000000000000 [Eh]
	 Same-Spin Energy          =      -0.4111807059337493 [Eh]
	 Opposite-Spin Energy      =      -1.3200311102451914 [Eh]
	 Correlation Energy        =      -1.7312118161789407 [Eh]
	 Total Energy              =    -385.4748661851257907 [Eh]

	 ================> DF-SCS-MP2 Energies <==================
	-----------------------------------------------------------
	 SCS Same-Spin Scale       =       0.3333333333333333 [-]
	 SCS Opposite-Spin Scale   =       1.2000000000000000 [-]
	 SCS Same-Spin Energy      =      -0.1370602353112498 [Eh]
	 SCS Opposite-Spin Energy  =      -1.5840373322942296 [Eh]
	 SCS Correlation Energy    =      -1.7210975676054794 [Eh]
	 SCS Total Energy          =    -385.4647519365523181 [Eh]
	-----------------------------------------------------------

  Dipole Moment: [D]
     X:     1.3521      Y:    -0.9303      Z:     0.0000     Total:     1.6412

*** Psi4 exiting successfully. Buy a developer a beer!
