                               Psi4 1.4a3.dev225

  ==> Input File <==

--------------------------------------------------------------------------
#psi4
#
memory 32 gb

molecule  {
0 1
  O        1.7572910     0.3059760     0.0000180
  C       -0.4850880     0.9739040    -0.0000120
  C        0.4405670    -0.0879150     0.0000040
  C       -1.8443600     0.6614770    -0.0000180
  C        0.0124250    -1.4183170     0.0000060
  C        0.0151430     2.3911510    -0.0000080
  C       -2.2900340    -0.6642210    -0.0000140
  C       -1.3585410    -1.6984920    -0.0000020
  C        2.7379480    -0.7266300     0.0000180
  H       -2.5677820     1.4752540    -0.0000300
  H        0.7228010    -2.2381660     0.0000160
  H       -0.8234040     3.0925880    -0.0001030
  H        0.6363730     2.5877470     0.8789620
  H        0.6365320     2.5876940    -0.8788760
  H       -3.3546920    -0.8829470    -0.0000210
  H       -1.7039539    -2.7822861     0.0000001
  H        2.6565620    -1.3539010    -0.8944310
  H        2.6565580    -1.3539040     0.8944650
  H        3.6991380    -0.2132700     0.0000220
units angstrom
no_reorient  #important for SAPT in psi4, default
symmetry c1  #important for SAPT in psi4, default
}

set PROPERTIES_ORIGIN ["COM"]
properties('MP2/aug-cc-pvtz', properties = ['dipole'])
--------------------------------------------------------------------------

    Molecular point group: c1
  Charge       = 0
  Multiplicity = 1
  Basis Set: AUG-CC-PVTZ
    Blend: AUG-CC-PVTZ
  Basis Set: (AUG-CC-PVTZ AUX)
    Blend: AUG-CC-PVTZ-JKFIT

    Orbital Energies [Eh]
    ---------------------

    Doubly Occupied:

       1A    -20.584247     2A    -11.295457     3A    -11.284402
       4A    -11.240522     5A    -11.234160     6A    -11.232178
       7A    -11.230913     8A    -11.224993     9A    -11.216201
      10A     -1.404188    11A     -1.145451    12A     -1.043983
      13A     -1.009552    14A     -0.948553    15A     -0.919703
      16A     -0.812582    17A     -0.795275    18A     -0.705856
      19A     -0.667034    20A     -0.653683    21A     -0.646314
      22A     -0.612135    23A     -0.579144    24A     -0.568574
      25A     -0.560007    26A     -0.539122    27A     -0.521856
      28A     -0.509146    29A     -0.496812    30A     -0.473765
      31A     -0.464620    32A     -0.331455    33A     -0.305516

  @DF-RHF Final Energy:  -383.75055952706248

   => Energetics <=

    Nuclear Repulsion Energy =            429.8563456621975547
    One-Electron Energy =               -1372.6990136692766100
    Two-Electron Energy =                 559.0921084800165772
    Total Energy =                       -383.7505595270624781
  Basis Set: (AUG-CC-PVTZ AUX)
    Blend: AUG-CC-PVTZ-RI
    Molecular point group: c1

    Geometry (in Angstrom), charge = 0, multiplicity = 1:

       Center              X                  Y                   Z               Mass
    ------------   -----------------  -----------------  -----------------  -----------------
         O            1.778404656948     0.314237089942     0.000018163504    15.994914619570
         C           -0.463974343052     0.982165089942    -0.000011836496    12.000000000000
         C            0.461680656948    -0.079653910058     0.000004163504    12.000000000000
         C           -1.823246343052     0.669738089942    -0.000017836496    12.000000000000
         C            0.033538656948    -1.410055910058     0.000006163504    12.000000000000
         C            0.036256656948     2.399412089942    -0.000007836496    12.000000000000
         C           -2.268920343052    -0.655959910058    -0.000013836496    12.000000000000
         C           -1.337427343052    -1.690230910058    -0.000001836496    12.000000000000
         C            2.759061656948    -0.718368910058     0.000018163504    12.000000000000
         H           -2.546668343052     1.483515089942    -0.000029836496     1.007825032230
         H            0.743914656948    -2.229904910058     0.000016163504     1.007825032230
         H           -0.802290343052     3.100849089942    -0.000102836496     1.007825032230
         H            0.657486656948     2.596008089942     0.878962163504     1.007825032230
         H            0.657645656948     2.595955089942    -0.878875836496     1.007825032230
         H           -3.333578343052    -0.874685910058    -0.000020836496     1.007825032230
         H           -1.682840243052    -2.774025010058     0.000000263504     1.007825032230
         H            2.677675656948    -1.345639910058    -0.894430836496     1.007825032230
         H            2.677671656948    -1.345642910058     0.894465163504     1.007825032230
         H            3.720251656948    -0.205008910058     0.000022163504     1.007825032230

  Basis Set: AUG-CC-PVTZ
    Blend: AUG-CC-PVTZ
  Basis Set: (AUG-CC-PVTZ AUX)
    Blend: AUG-CC-PVTZ-JKFIT
	 Reference Energy          =    -383.7505595270624781 [Eh]
	 Singles Energy            =      -0.0000000000000000 [Eh]
	 Same-Spin Energy          =      -0.4109618679446176 [Eh]
	 Opposite-Spin Energy      =      -1.3186006036043274 [Eh]
	 Correlation Energy        =      -1.7295624715489450 [Eh]
	 Total Energy              =    -385.4801219986114234 [Eh]

	 ================> DF-SCS-MP2 Energies <==================
	-----------------------------------------------------------
	 SCS Same-Spin Scale       =       0.3333333333333333 [-]
	 SCS Opposite-Spin Scale   =       1.2000000000000000 [-]
	 SCS Same-Spin Energy      =      -0.1369872893148725 [Eh]
	 SCS Opposite-Spin Energy  =      -1.5823207243251929 [Eh]
	 SCS Correlation Energy    =      -1.7193080136400654 [Eh]
	 SCS Total Energy          =    -385.4698675407025235 [Eh]
	-----------------------------------------------------------

  Dipole Moment: [D]
     X:     0.9915      Y:    -0.7140      Z:     0.0000     Total:     1.2218

*** Psi4 exiting successfully. Buy a developer a beer!
