                               Psi4 1.4a3.dev225

  ==> Input File <==

--------------------------------------------------------------------------
#psi4
#
memory 32 gb

molecule  {
0 1
  O        1.7572910     0.3059760     0.0000180
  C       -0.4850880     0.9739040    -0.0000120
  C        0.4405670    -0.0879150     0.0000040
  C       -1.8443600     0.6614770    -0.0000180
  C        0.0124250    -1.4183170     0.0000060
  C        0.0151430     2.3911510    -0.0000080
  C       -2.2900340    -0.6642210    -0.0000140
  C       -1.3585410    -1.6984920    -0.0000020
  C        2.7379480    -0.7266300     0.0000180
  H       -2.5677820     1.4752540    -0.0000300
  H        0.7228010    -2.2381660     0.0000160
  H       -0.8234040     3.0925880    -0.0001030
  H        0.6363730     2.5877470     0.8789620
  H        0.6365320     2.5876940    -0.8788760
  H       -3.2567378    -0.8628230    -0.0000204
  H       -1.6887710    -2.7346470     0.0000000
  H        2.6565620    -1.3539010    -0.8944310
  H        2.6565580    -1.3539040     0.8944650
  H        3.6991380    -0.2132700     0.0000220
units angstrom
no_reorient  #important for SAPT in psi4, default
symmetry c1  #important for SAPT in psi4, default
}

set PROPERTIES_ORIGIN ["COM"]
properties('MP2/aug-cc-pvtz', properties = ['dipole'])
--------------------------------------------------------------------------

    Molecular point group: c1
  Charge       = 0
  Multiplicity = 1
  Basis Set: AUG-CC-PVTZ
    Blend: AUG-CC-PVTZ
  Basis Set: (AUG-CC-PVTZ AUX)
    Blend: AUG-CC-PVTZ-JKFIT

    Orbital Energies [Eh]
    ---------------------

    Doubly Occupied:

       1A    -20.583764     2A    -11.294805     3A    -11.284052
       4A    -11.233958     5A    -11.233283     6A    -11.230977
       7A    -11.229729     8A    -11.215670     9A    -11.212385
      10A     -1.403707    11A     -1.145507    12A     -1.045018
      13A     -1.011502    14A     -0.949104    15A     -0.921429
      16A     -0.813117    17A     -0.803699    18A     -0.709002
      19A     -0.667501    20A     -0.659614    21A     -0.653247
      22A     -0.613244    23A     -0.580642    24A     -0.568045
      25A     -0.563715    26A     -0.540865    27A     -0.523467
      28A     -0.508574    29A     -0.500370    30A     -0.474925
      31A     -0.463795    32A     -0.330602    33A     -0.304872

  @DF-RHF Final Energy:  -383.74714285914575

   => Energetics <=

    Nuclear Repulsion Energy =            430.6468868237134302
    One-Electron Energy =               -1374.2396832118272414
    Two-Electron Energy =                 559.8456535289681142
    Total Energy =                       -383.7471428591456970
  Basis Set: (AUG-CC-PVTZ AUX)
    Blend: AUG-CC-PVTZ-RI
    Molecular point group: c1

    Geometry (in Angstrom), charge = 0, multiplicity = 1:

       Center              X                  Y                   Z               Mass
    ------------   -----------------  -----------------  -----------------  -----------------
         O            1.777470607261     0.313677643904     0.000018159376    15.994914619570
         C           -0.464908392739     0.981605643904    -0.000011840624    12.000000000000
         C            0.460746607261    -0.080213356096     0.000004159376    12.000000000000
         C           -1.824180392739     0.669178643904    -0.000017840624    12.000000000000
         C            0.032604607261    -1.410615356096     0.000006159376    12.000000000000
         C            0.035322607261     2.398852643904    -0.000007840624    12.000000000000
         C           -2.269854392739    -0.656519356096    -0.000013840624    12.000000000000
         C           -1.338361392739    -1.690790356096    -0.000001840624    12.000000000000
         C            2.758127607261    -0.718928356096     0.000018159376    12.000000000000
         H           -2.547602392739     1.482955643904    -0.000029840624     1.007825032230
         H            0.742980607261    -2.230464356096     0.000016159376     1.007825032230
         H           -0.803224392739     3.100289643904    -0.000102840624     1.007825032230
         H            0.656552607261     2.595448643904     0.878962159376     1.007825032230
         H            0.656711607261     2.595395643904    -0.878875840624     1.007825032230
         H           -3.236558192739    -0.855121356096    -0.000020240624     1.007825032230
         H           -1.668591392739    -2.726945356096     0.000000159376     1.007825032230
         H            2.676741607261    -1.346199356096    -0.894430840624     1.007825032230
         H            2.676737607261    -1.346202356096     0.894465159376     1.007825032230
         H            3.719317607261    -0.205568356096     0.000022159376     1.007825032230

  Basis Set: AUG-CC-PVTZ
    Blend: AUG-CC-PVTZ
  Basis Set: (AUG-CC-PVTZ AUX)
    Blend: AUG-CC-PVTZ-JKFIT
	 Reference Energy          =    -383.7471428591457538 [Eh]
	 Singles Energy            =      -0.0000000000000000 [Eh]
	 Same-Spin Energy          =      -0.4107412308159366 [Eh]
	 Opposite-Spin Energy      =      -1.3176871087415238 [Eh]
	 Correlation Energy        =      -1.7284283395574604 [Eh]
	 Total Energy              =    -385.4755711987032214 [Eh]

	 ================> DF-SCS-MP2 Energies <==================
	-----------------------------------------------------------
	 SCS Same-Spin Scale       =       0.3333333333333333 [-]
	 SCS Opposite-Spin Scale   =       1.2000000000000000 [-]
	 SCS Same-Spin Energy      =      -0.1369137436053122 [Eh]
	 SCS Opposite-Spin Energy  =      -1.5812245304898285 [Eh]
	 SCS Correlation Energy    =      -1.7181382740951407 [Eh]
	 SCS Total Energy          =    -385.4652811332409215 [Eh]
	-----------------------------------------------------------

  Dipole Moment: [D]
     X:     0.9465      Y:    -0.7474      Z:     0.0000     Total:     1.2061

*** Psi4 exiting successfully. Buy a developer a beer!
