                               Psi4 1.4a3.dev225

  ==> Input File <==

--------------------------------------------------------------------------
#psi4
#
memory 32 gb

molecule  {
0 1
  O        1.7572910     0.3059760     0.0000180
  C       -0.4850880     0.9739040    -0.0000120
  C        0.4405670    -0.0879150     0.0000040
  C       -1.8443600     0.6614770    -0.0000180
  C        0.0124250    -1.4183170     0.0000060
  C        0.0817101     2.5797480    -0.0000075
  C       -2.2900340    -0.6642210    -0.0000140
  C       -1.3585410    -1.6984920    -0.0000020
  C        2.7379480    -0.7266300     0.0000180
  H       -2.5677820     1.4752540    -0.0000300
  H        0.7228010    -2.2381660     0.0000160
  H       -0.8234040     3.0925880    -0.0001030
  H        0.6363730     2.5877470     0.8789620
  H        0.6365320     2.5876940    -0.8788760
  H       -3.3546920    -0.8829470    -0.0000210
  H       -1.6887710    -2.7346470     0.0000000
  H        2.6565620    -1.3539010    -0.8944310
  H        2.6565580    -1.3539040     0.8944650
  H        3.6991380    -0.2132700     0.0000220
units angstrom
no_reorient  #important for SAPT in psi4, default
symmetry c1  #important for SAPT in psi4, default
}

set PROPERTIES_ORIGIN ["COM"]
properties('MP2/aug-cc-pvtz', properties = ['dipole'])
--------------------------------------------------------------------------

    Molecular point group: c1
  Charge       = 0
  Multiplicity = 1
  Basis Set: AUG-CC-PVTZ
    Blend: AUG-CC-PVTZ
  Basis Set: (AUG-CC-PVTZ AUX)
    Blend: AUG-CC-PVTZ-JKFIT

    Orbital Energies [Eh]
    ---------------------

    Doubly Occupied:

       1A    -20.582806     2A    -11.294560     3A    -11.283573
       4A    -11.239023     5A    -11.233955     6A    -11.231704
       7A    -11.229528     8A    -11.223811     9A    -11.217739
      10A     -1.402612    11A     -1.140441    12A     -1.029309
      13A     -1.007889    14A     -0.947808    15A     -0.926529
      16A     -0.810997    17A     -0.797296    18A     -0.707435
      19A     -0.664282    20A     -0.652618    21A     -0.640199
      22A     -0.611503    23A     -0.589569    24A     -0.585212
      25A     -0.565408    26A     -0.547130    27A     -0.516334
      28A     -0.507643    29A     -0.499410    30A     -0.464118
      31A     -0.442811    32A     -0.331913    33A     -0.305685

  @DF-RHF Final Energy:  -383.72604642864979

   => Energetics <=

    Nuclear Repulsion Energy =            426.7798242275008533
    One-Electron Energy =               -1366.5500433887509644
    Two-Electron Energy =                 556.0441727326003729
    Total Energy =                       -383.7260464286497381
  Basis Set: (AUG-CC-PVTZ AUX)
    Blend: AUG-CC-PVTZ-RI
    Molecular point group: c1

    Geometry (in Angstrom), charge = 0, multiplicity = 1:

       Center              X                  Y                   Z               Mass
    ------------   -----------------  -----------------  -----------------  -----------------
         O            1.771735649004     0.295304379558     0.000018115179    15.994914619570
         C           -0.470643350996     0.963232379558    -0.000011884821    12.000000000000
         C            0.455011649004    -0.098586620442     0.000004115179    12.000000000000
         C           -1.829915350996     0.650805379558    -0.000017884821    12.000000000000
         C            0.026869649004    -1.428988620442     0.000006115179    12.000000000000
         C            0.096154749004     2.569076379558    -0.000007384821    12.000000000000
         C           -2.275589350996    -0.674892620442    -0.000013884821    12.000000000000
         C           -1.344096350996    -1.709163620442    -0.000001884821    12.000000000000
         C            2.752392649004    -0.737301620442     0.000018115179    12.000000000000
         H           -2.553337350996     1.464582379558    -0.000029884821     1.007825032230
         H            0.737245649004    -2.248837620442     0.000016115179     1.007825032230
         H           -0.808959350996     3.081916379558    -0.000102884821     1.007825032230
         H            0.650817649004     2.577075379558     0.878962115179     1.007825032230
         H            0.650976649004     2.577022379558    -0.878875884821     1.007825032230
         H           -3.340247350996    -0.893618620442    -0.000020884821     1.007825032230
         H           -1.674326350996    -2.745318620442     0.000000115179     1.007825032230
         H            2.671006649004    -1.364572620442    -0.894430884821     1.007825032230
         H            2.671002649004    -1.364575620442     0.894465115179     1.007825032230
         H            3.713582649004    -0.223941620442     0.000022115179     1.007825032230

  Basis Set: AUG-CC-PVTZ
    Blend: AUG-CC-PVTZ
  Basis Set: (AUG-CC-PVTZ AUX)
    Blend: AUG-CC-PVTZ-JKFIT
	 Reference Energy          =    -383.7260464286497950 [Eh]
	 Singles Energy            =      -0.0000000000000000 [Eh]
	 Same-Spin Energy          =      -0.4105374699453034 [Eh]
	 Opposite-Spin Energy      =      -1.3190715175444931 [Eh]
	 Correlation Energy        =      -1.7296089874897964 [Eh]
	 Total Energy              =    -385.4556554161395638 [Eh]

	 ================> DF-SCS-MP2 Energies <==================
	-----------------------------------------------------------
	 SCS Same-Spin Scale       =       0.3333333333333333 [-]
	 SCS Opposite-Spin Scale   =       1.2000000000000000 [-]
	 SCS Same-Spin Energy      =      -0.1368458233151011 [Eh]
	 SCS Opposite-Spin Energy  =      -1.5828858210533918 [Eh]
	 SCS Correlation Energy    =      -1.7197316443684929 [Eh]
	 SCS Total Energy          =    -385.4457780730182890 [Eh]
	-----------------------------------------------------------

  Dipole Moment: [D]
     X:     0.9376      Y:    -0.7607      Z:     0.0000     Total:     1.2073

*** Psi4 exiting successfully. Buy a developer a beer!
