                               Psi4 1.4a3.dev225

  ==> Input File <==

--------------------------------------------------------------------------
#psi4
#
memory 32 gb

molecule  {
0 1
  O        1.7572910     0.3059760     0.0000180
  C       -0.4850880     0.9739040    -0.0000120
  C        0.4405670    -0.0879150     0.0000040
  C       -1.8443600     0.6614770    -0.0000180
  C        0.0171059    -1.4422863     0.0000061
  C        0.0151430     2.3911510    -0.0000080
  C       -2.2900340    -0.6642210    -0.0000140
  C       -1.3585410    -1.6984920    -0.0000020
  C        2.7379480    -0.7266300     0.0000180
  H       -2.5677820     1.4752540    -0.0000300
  H        0.7228010    -2.2381660     0.0000160
  H       -0.8234040     3.0925880    -0.0001030
  H        0.6363730     2.5877470     0.8789620
  H        0.6365320     2.5876940    -0.8788760
  H       -3.3546920    -0.8829470    -0.0000210
  H       -1.6887710    -2.7346470     0.0000000
  H        2.6565620    -1.3539010    -0.8944310
  H        2.6565580    -1.3539040     0.8944650
  H        3.6991380    -0.2132700     0.0000220
units angstrom
no_reorient  #important for SAPT in psi4, default
symmetry c1  #important for SAPT in psi4, default
}

set PROPERTIES_ORIGIN ["COM"]
properties('MP2/aug-cc-pvtz', properties = ['dipole'])
--------------------------------------------------------------------------

    Molecular point group: c1
  Charge       = 0
  Multiplicity = 1
  Basis Set: AUG-CC-PVTZ
    Blend: AUG-CC-PVTZ
  Basis Set: (AUG-CC-PVTZ AUX)
    Blend: AUG-CC-PVTZ-JKFIT

    Orbital Energies [Eh]
    ---------------------

    Doubly Occupied:

       1A    -20.584329     2A    -11.297752     3A    -11.284628
       4A    -11.235110     5A    -11.233724     6A    -11.232346
       7A    -11.231022     8A    -11.224243     9A    -11.216054
      10A     -1.404086    11A     -1.143642    12A     -1.044902
      13A     -1.007631    14A     -0.948984    15A     -0.919982
      16A     -0.814372    17A     -0.795736    18A     -0.708033
      19A     -0.667289    20A     -0.653489    21A     -0.648072
      22A     -0.614064    23A     -0.581666    24A     -0.568247
      25A     -0.563857    26A     -0.539197    27A     -0.521893
      28A     -0.508128    29A     -0.498503    30A     -0.474166
      31A     -0.464049    32A     -0.330933    33A     -0.303877

  @DF-RHF Final Energy:  -383.75194295538739

   => Energetics <=

    Nuclear Repulsion Energy =            429.6888172691226941
    One-Electron Energy =               -1372.3535088845812879
    Two-Electron Energy =                 558.9127486600712018
    Total Energy =                       -383.7519429553874488
  Basis Set: (AUG-CC-PVTZ AUX)
    Blend: AUG-CC-PVTZ-RI
    Molecular point group: c1

    Geometry (in Angstrom), charge = 0, multiplicity = 1:

       Center              X                  Y                   Z               Mass
    ------------   -----------------  -----------------  -----------------  -----------------
         O            1.777819167854     0.316200008841     0.000018154499    15.994914619570
         C           -0.464559832146     0.984128008841    -0.000011845501    12.000000000000
         C            0.461095167854    -0.077690991159     0.000004154499    12.000000000000
         C           -1.823831832146     0.671701008841    -0.000017845501    12.000000000000
         C            0.037634067854    -1.432062291159     0.000006254499    12.000000000000
         C            0.035671167854     2.401375008841    -0.000007845501    12.000000000000
         C           -2.269505832146    -0.653996991159    -0.000013845501    12.000000000000
         C           -1.338012832146    -1.688267991159    -0.000001845501    12.000000000000
         C            2.758476167854    -0.716405991159     0.000018154499    12.000000000000
         H           -2.547253832146     1.485478008841    -0.000029845501     1.007825032230
         H            0.743329167854    -2.227941991159     0.000016154499     1.007825032230
         H           -0.802875832146     3.102812008841    -0.000102845501     1.007825032230
         H            0.656901167854     2.597971008841     0.878962154499     1.007825032230
         H            0.657060167854     2.597918008841    -0.878875845501     1.007825032230
         H           -3.334163832146    -0.872722991159    -0.000020845501     1.007825032230
         H           -1.668242832146    -2.724422991159     0.000000154499     1.007825032230
         H            2.677090167854    -1.343676991159    -0.894430845501     1.007825032230
         H            2.677086167854    -1.343679991159     0.894465154499     1.007825032230
         H            3.719666167854    -0.203045991159     0.000022154499     1.007825032230

  Basis Set: AUG-CC-PVTZ
    Blend: AUG-CC-PVTZ
  Basis Set: (AUG-CC-PVTZ AUX)
    Blend: AUG-CC-PVTZ-JKFIT
	 Reference Energy          =    -383.7519429553873920 [Eh]
	 Singles Energy            =      -0.0000000000000000 [Eh]
	 Same-Spin Energy          =      -0.4108891977495213 [Eh]
	 Opposite-Spin Energy      =      -1.3183502642778415 [Eh]
	 Correlation Energy        =      -1.7292394620273628 [Eh]
	 Total Energy              =    -385.4811824174147432 [Eh]

	 ================> DF-SCS-MP2 Energies <==================
	-----------------------------------------------------------
	 SCS Same-Spin Scale       =       0.3333333333333333 [-]
	 SCS Opposite-Spin Scale   =       1.2000000000000000 [-]
	 SCS Same-Spin Energy      =      -0.1369630659165071 [Eh]
	 SCS Opposite-Spin Energy  =      -1.5820203171334097 [Eh]
	 SCS Correlation Energy    =      -1.7189833830499168 [Eh]
	 SCS Total Energy          =    -385.4709263384373230 [Eh]
	-----------------------------------------------------------

  Dipole Moment: [D]
     X:     1.0043      Y:    -0.7254      Z:     0.0000     Total:     1.2388

*** Psi4 exiting successfully. Buy a developer a beer!
