                               Psi4 1.4a3.dev225

  ==> Input File <==

--------------------------------------------------------------------------
#psi4
#
memory 32 gb

molecule  {
0 1
  O        1.7572910     0.3059760     0.0000180
  C       -0.4850880     0.9739040    -0.0000120
  C        0.4405670    -0.0879150     0.0000040
  C       -1.8443600     0.6614770    -0.0000180
  C        0.0124250    -1.4183170     0.0000060
  C        0.0151430     2.3911510    -0.0000080
  C       -2.2900340    -0.6642210    -0.0000140
  C       -1.3585410    -1.6984920    -0.0000020
  C        2.7379480    -0.7266300     0.0000180
  H       -2.5677820     1.4752540    -0.0000300
  H        0.7228010    -2.2381660     0.0000160
  H       -0.8234040     3.0925880    -0.0001030
  H        0.6363730     2.5877470     0.8789620
  H        0.6365320     2.5876940    -0.8788760
  H       -3.3546920    -0.8829470    -0.0000210
  H       -1.6887710    -2.7346470     0.0000000
  H        2.6391792    -1.3594701    -0.8887394
  H        2.6565580    -1.3539040     0.8944650
  H        3.6991380    -0.2132700     0.0000220
units angstrom
no_reorient  #important for SAPT in psi4, default
symmetry c1  #important for SAPT in psi4, default
}

set PROPERTIES_ORIGIN ["COM"]
properties('MP2/aug-cc-pvtz', properties = ['dipole'])
--------------------------------------------------------------------------

    Molecular point group: c1
  Charge       = 0
  Multiplicity = 1
  Basis Set: AUG-CC-PVTZ
    Blend: AUG-CC-PVTZ
  Basis Set: (AUG-CC-PVTZ AUX)
    Blend: AUG-CC-PVTZ-JKFIT

    Orbital Energies [Eh]
    ---------------------

    Doubly Occupied:

       1A    -20.583794     2A    -11.295109     3A    -11.284298
       4A    -11.234786     5A    -11.233944     6A    -11.231829
       7A    -11.230396     8A    -11.224494     9A    -11.216041
      10A     -1.403909    11A     -1.145381    12A     -1.044704
      13A     -1.009188    14A     -0.948395    15A     -0.921053
      16A     -0.812509    17A     -0.796974    18A     -0.709136
      19A     -0.666969    20A     -0.653154    21A     -0.646156
      22A     -0.613804    23A     -0.581184    24A     -0.568270
      25A     -0.563482    26A     -0.538895    27A     -0.522457
      28A     -0.508452    29A     -0.496587    30A     -0.475400
      31A     -0.464120    32A     -0.331178    33A     -0.305227

  @DF-RHF Final Energy:  -383.75297360636063

   => Energetics <=

    Nuclear Repulsion Energy =            430.1358641760592150
    One-Electron Energy =               -1373.2551264687908770
    Two-Electron Energy =                 559.3662886863711492
    Total Energy =                       -383.7529736063605696
  Basis Set: (AUG-CC-PVTZ AUX)
    Blend: AUG-CC-PVTZ-RI
    Molecular point group: c1

    Geometry (in Angstrom), charge = 0, multiplicity = 1:

       Center              X                  Y                   Z               Mass
    ------------   -----------------  -----------------  -----------------  -----------------
         O            1.778422819124     0.313889763819    -0.000028825006    15.994914619570
         C           -0.463956180876     0.981817763819    -0.000058825006    12.000000000000
         C            0.461698819124    -0.080001236181    -0.000042825006    12.000000000000
         C           -1.823228180876     0.669390763819    -0.000064825006    12.000000000000
         C            0.033556819124    -1.410403236181    -0.000040825006    12.000000000000
         C            0.036274819124     2.399064763819    -0.000054825006    12.000000000000
         C           -2.268902180876    -0.656307236181    -0.000060825006    12.000000000000
         C           -1.337409180876    -1.690578236181    -0.000048825006    12.000000000000
         C            2.759079819124    -0.718716236181    -0.000028825006    12.000000000000
         H           -2.546650180876     1.483167763819    -0.000076825006     1.007825032230
         H            0.743932819124    -2.230252236181    -0.000030825006     1.007825032230
         H           -0.802272180876     3.100501763819    -0.000149825006     1.007825032230
         H            0.657504819124     2.595660763819     0.878915174994     1.007825032230
         H            0.657663819124     2.595607763819    -0.878922825006     1.007825032230
         H           -3.333560180876    -0.875033236181    -0.000067825006     1.007825032230
         H           -1.667639180876    -2.726733236181    -0.000046825006     1.007825032230
         H            2.660311019124    -1.351556336181    -0.888786225006     1.007825032230
         H            2.677689819124    -1.345990236181     0.894418174994     1.007825032230
         H            3.720269819124    -0.205356236181    -0.000024825006     1.007825032230

  Basis Set: AUG-CC-PVTZ
    Blend: AUG-CC-PVTZ
  Basis Set: (AUG-CC-PVTZ AUX)
    Blend: AUG-CC-PVTZ-JKFIT
	 Reference Energy          =    -383.7529736063606265 [Eh]
	 Singles Energy            =      -0.0000000000000000 [Eh]
	 Same-Spin Energy          =      -0.4108805686241278 [Eh]
	 Opposite-Spin Energy      =      -1.3182068697804288 [Eh]
	 Correlation Energy        =      -1.7290874384045565 [Eh]
	 Total Energy              =    -385.4820610447652030 [Eh]

	 ================> DF-SCS-MP2 Energies <==================
	-----------------------------------------------------------
	 SCS Same-Spin Scale       =       0.3333333333333333 [-]
	 SCS Opposite-Spin Scale   =       1.2000000000000000 [-]
	 SCS Same-Spin Energy      =      -0.1369601895413759 [Eh]
	 SCS Opposite-Spin Energy  =      -1.5818482437365144 [Eh]
	 SCS Correlation Energy    =      -1.7188084332778903 [Eh]
	 SCS Total Energy          =    -385.4717820396385264 [Eh]
	-----------------------------------------------------------

  Dipole Moment: [D]
     X:     0.9777      Y:    -0.7360      Z:     0.0043     Total:     1.2238

*** Psi4 exiting successfully. Buy a developer a beer!
