                               Psi4 1.4a3.dev225

  ==> Input File <==

--------------------------------------------------------------------------
#psi4
#
memory 32 gb

molecule  {
0 1
  O        1.7572910     0.3059760     0.0000180
  C       -0.4850880     0.9739040    -0.0000120
  C        0.4405670    -0.0879150     0.0000040
  C       -1.8443600     0.6614770    -0.0000180
  C        0.0124250    -1.4183170     0.0000060
  C        0.0151430     2.3911510    -0.0000080
  C       -2.2900340    -0.6642210    -0.0000140
  C       -1.3585410    -1.6984920    -0.0000020
  C        2.7379480    -0.7266300     0.0000180
  H       -2.5677820     1.4752540    -0.0000300
  H        0.7228010    -2.2381660     0.0000160
  H       -0.8234040     3.0925880    -0.0001030
  H        0.6363730     2.5877470     0.8789620
  H        0.6365320     2.5876940    -0.8788760
  H       -3.4526462    -0.9030710    -0.0000216
  H       -1.6887710    -2.7346470     0.0000000
  H        2.6565620    -1.3539010    -0.8944310
  H        2.6565580    -1.3539040     0.8944650
  H        3.6991380    -0.2132700     0.0000220
units angstrom
no_reorient  #important for SAPT in psi4, default
symmetry c1  #important for SAPT in psi4, default
}

set PROPERTIES_ORIGIN ["COM"]
properties('MP2/aug-cc-pvtz', properties = ['dipole'])
--------------------------------------------------------------------------

    Molecular point group: c1
  Charge       = 0
  Multiplicity = 1
  Basis Set: AUG-CC-PVTZ
    Blend: AUG-CC-PVTZ
  Basis Set: (AUG-CC-PVTZ AUX)
    Blend: AUG-CC-PVTZ-JKFIT

    Orbital Energies [Eh]
    ---------------------

    Doubly Occupied:

       1A    -20.584368     2A    -11.295591     3A    -11.284575
       4A    -11.236591     5A    -11.235367     6A    -11.234725
       7A    -11.232759     8A    -11.231165     9A    -11.216531
      10A     -1.404339    11A     -1.145686    12A     -1.044860
      13A     -1.007910    14A     -0.948162    15A     -0.921001
      16A     -0.812938    17A     -0.791983    18A     -0.709202
      19A     -0.667363    20A     -0.653854    21A     -0.634027
      22A     -0.613542    23A     -0.581679    24A     -0.568871
      25A     -0.563267    26A     -0.537409    27A     -0.520247
      28A     -0.509389    29A     -0.490310    30A     -0.475779
      31A     -0.465000    32A     -0.331861    33A     -0.305833

  @DF-RHF Final Energy:  -383.74565837801975

   => Energetics <=

    Nuclear Repulsion Energy =            429.6232292638771924
    One-Electron Energy =               -1372.2254050541707784
    Two-Electron Energy =                 558.8565174122738881
    Total Energy =                       -383.7456583780196979
  Basis Set: (AUG-CC-PVTZ AUX)
    Blend: AUG-CC-PVTZ-RI
    Molecular point group: c1

    Geometry (in Angstrom), charge = 0, multiplicity = 1:

       Center              X                  Y                   Z               Mass
    ------------   -----------------  -----------------  -----------------  -----------------
         O            1.779088009330     0.314009927760     0.000018169283    15.994914619570
         C           -0.463290990670     0.981937927760    -0.000011830717    12.000000000000
         C            0.462364009330    -0.079881072240     0.000004169283    12.000000000000
         C           -1.822562990670     0.669510927760    -0.000017830717    12.000000000000
         C            0.034222009330    -1.410283072240     0.000006169283    12.000000000000
         C            0.036940009330     2.399184927760    -0.000007830717    12.000000000000
         C           -2.268236990670    -0.656187072240    -0.000013830717    12.000000000000
         C           -1.336743990670    -1.690458072240    -0.000001830717    12.000000000000
         C            2.759745009330    -0.718596072240     0.000018169283    12.000000000000
         H           -2.545984990670     1.483287927760    -0.000029830717     1.007825032230
         H            0.744598009330    -2.230132072240     0.000016169283     1.007825032230
         H           -0.801606990670     3.100621927760    -0.000102830717     1.007825032230
         H            0.658170009330     2.595780927760     0.878962169283     1.007825032230
         H            0.658329009330     2.595727927760    -0.878875830717     1.007825032230
         H           -3.430849190670    -0.895037072240    -0.000021430717     1.007825032230
         H           -1.666973990670    -2.726613072240     0.000000169283     1.007825032230
         H            2.678359009330    -1.345867072240    -0.894430830717     1.007825032230
         H            2.678355009330    -1.345870072240     0.894465169283     1.007825032230
         H            3.720935009330    -0.205236072240     0.000022169283     1.007825032230

  Basis Set: AUG-CC-PVTZ
    Blend: AUG-CC-PVTZ
  Basis Set: (AUG-CC-PVTZ AUX)
    Blend: AUG-CC-PVTZ-JKFIT
	 Reference Energy          =    -383.7456583780197548 [Eh]
	 Singles Energy            =      -0.0000000000000000 [Eh]
	 Same-Spin Energy          =      -0.4110618555911718 [Eh]
	 Opposite-Spin Energy      =      -1.3191429361911700 [Eh]
	 Correlation Energy        =      -1.7302047917823418 [Eh]
	 Total Energy              =    -385.4758631698020963 [Eh]

	 ================> DF-SCS-MP2 Energies <==================
	-----------------------------------------------------------
	 SCS Same-Spin Scale       =       0.3333333333333333 [-]
	 SCS Opposite-Spin Scale   =       1.2000000000000000 [-]
	 SCS Same-Spin Energy      =      -0.1370206185303906 [Eh]
	 SCS Opposite-Spin Energy  =      -1.5829715234294039 [Eh]
	 SCS Correlation Energy    =      -1.7199921419597946 [Eh]
	 SCS Total Energy          =    -385.4656505199795333 [Eh]
	-----------------------------------------------------------

  Dipole Moment: [D]
     X:     1.0349      Y:    -0.7214      Z:     0.0000     Total:     1.2615

*** Psi4 exiting successfully. Buy a developer a beer!
