                               Psi4 1.4a3.dev225

  ==> Input File <==

--------------------------------------------------------------------------
#psi4
#
memory 32 gb

molecule  {
0 1
  O        1.7572910     0.3059760     0.0000180
  C       -0.4850880     0.9739040    -0.0000120
  C        0.4405670    -0.0879150     0.0000040
  C       -1.8443600     0.6614770    -0.0000180
  C        0.0124250    -1.4183170     0.0000060
  C        0.0151430     2.3911510    -0.0000080
  C       -2.2900340    -0.6642210    -0.0000140
  C       -1.3585410    -1.6984920    -0.0000020
  C        2.7379480    -0.7266300     0.0000180
  H       -2.5677820     1.4752540    -0.0000300
  H        0.7228010    -2.2381660     0.0000160
  H       -0.8234040     3.0925880    -0.0001030
  H        0.6363730     2.5877470     0.8789620
  H        0.6365320     2.5876940    -0.8788760
  H       -3.3742828    -0.8869718    -0.0000211
  H       -1.6887710    -2.7346470     0.0000000
  H        2.6565620    -1.3539010    -0.8944310
  H        2.6565580    -1.3539040     0.8944650
  H        3.6991380    -0.2132700     0.0000220
units angstrom
no_reorient  #important for SAPT in psi4, default
symmetry c1  #important for SAPT in psi4, default
}

set PROPERTIES_ORIGIN ["COM"]
properties('MP2/aug-cc-pvtz', properties = ['dipole'])
--------------------------------------------------------------------------

    Molecular point group: c1
  Charge       = 0
  Multiplicity = 1
  Basis Set: AUG-CC-PVTZ
    Blend: AUG-CC-PVTZ
  Basis Set: (AUG-CC-PVTZ AUX)
    Blend: AUG-CC-PVTZ-JKFIT

    Orbital Energies [Eh]
    ---------------------

    Doubly Occupied:

       1A    -20.584057     2A    -11.295181     3A    -11.284317
       4A    -11.234965     5A    -11.234085     6A    -11.232030
       7A    -11.230508     8A    -11.226803     9A    -11.216133
      10A     -1.404018    11A     -1.145395    12A     -1.044681
      13A     -1.008867    14A     -0.948330    15A     -0.921001
      16A     -0.812633    17A     -0.795754    18A     -0.709002
      19A     -0.666999    20A     -0.653554    21A     -0.643553
      22A     -0.613508    23A     -0.581183    24A     -0.568484
      25A     -0.563338    26A     -0.538540    27A     -0.521603
      28A     -0.508997    29A     -0.495500    30A     -0.475440
      31A     -0.464419    32A     -0.331274    33A     -0.305332

  @DF-RHF Final Energy:  -383.75237811247496

   => Energetics <=

    Nuclear Repulsion Energy =            430.0035726167483858
    One-Electron Energy =               -1372.9929319841542110
    Two-Electron Energy =                 559.2369812549308108
    Total Energy =                       -383.7523781124749576
  Basis Set: (AUG-CC-PVTZ AUX)
    Blend: AUG-CC-PVTZ-RI
    Molecular point group: c1

    Geometry (in Angstrom), charge = 0, multiplicity = 1:

       Center              X                  Y                   Z               Mass
    ------------   -----------------  -----------------  -----------------  -----------------
         O            1.778441048172     0.313877014218     0.000018165155    15.994914619570
         C           -0.463937951828     0.981805014218    -0.000011834845    12.000000000000
         C            0.461717048172    -0.080013985782     0.000004165155    12.000000000000
         C           -1.823209951828     0.669378014218    -0.000017834845    12.000000000000
         C            0.033575048172    -1.410415985782     0.000006165155    12.000000000000
         C            0.036293048172     2.399052014218    -0.000007834845    12.000000000000
         C           -2.268883951828    -0.656319985782    -0.000013834845    12.000000000000
         C           -1.337390951828    -1.690590985782    -0.000001834845    12.000000000000
         C            2.759098048172    -0.718728985782     0.000018165155    12.000000000000
         H           -2.546631951828     1.483155014218    -0.000029834845     1.007825032230
         H            0.743951048172    -2.230264985782     0.000016165155     1.007825032230
         H           -0.802253951828     3.100489014218    -0.000102834845     1.007825032230
         H            0.657523048172     2.595648014218     0.878962165155     1.007825032230
         H            0.657682048172     2.595595014218    -0.878875834845     1.007825032230
         H           -3.353132751828    -0.879070785782    -0.000020934845     1.007825032230
         H           -1.667620951828    -2.726745985782     0.000000165155     1.007825032230
         H            2.677712048172    -1.345999985782    -0.894430834845     1.007825032230
         H            2.677708048172    -1.346002985782     0.894465165155     1.007825032230
         H            3.720288048172    -0.205368985782     0.000022165155     1.007825032230

  Basis Set: AUG-CC-PVTZ
    Blend: AUG-CC-PVTZ
  Basis Set: (AUG-CC-PVTZ AUX)
    Blend: AUG-CC-PVTZ-JKFIT
	 Reference Energy          =    -383.7523781124749576 [Eh]
	 Singles Energy            =      -0.0000000000000000 [Eh]
	 Same-Spin Energy          =      -0.4109008828159522 [Eh]
	 Opposite-Spin Energy      =      -1.3183476062504489 [Eh]
	 Correlation Energy        =      -1.7292484890664011 [Eh]
	 Total Energy              =    -385.4816266015413362 [Eh]

	 ================> DF-SCS-MP2 Energies <==================
	-----------------------------------------------------------
	 SCS Same-Spin Scale       =       0.3333333333333333 [-]
	 SCS Opposite-Spin Scale   =       1.2000000000000000 [-]
	 SCS Same-Spin Energy      =      -0.1369669609386507 [Eh]
	 SCS Opposite-Spin Energy  =      -1.5820171275005386 [Eh]
	 SCS Correlation Energy    =      -1.7189840884391894 [Eh]
	 SCS Total Energy          =    -385.4713622009141432 [Eh]
	-----------------------------------------------------------

  Dipole Moment: [D]
     X:     0.9907      Y:    -0.7340      Z:     0.0000     Total:     1.2329

*** Psi4 exiting successfully. Buy a developer a beer!
