                               Psi4 1.4a3.dev225

  ==> Input File <==

--------------------------------------------------------------------------
#psi4
#
memory 32 gb

molecule  {
0 1
  O        1.7572910     0.3059760     0.0000180
  C       -0.4850880     0.9739040    -0.0000120
  C        0.4405670    -0.0879150     0.0000040
  C       -1.8443600     0.6614770    -0.0000180
  C        0.0124250    -1.4183170     0.0000060
  C        0.0151430     2.3911510    -0.0000080
  C       -2.2900340    -0.6642210    -0.0000140
  C       -1.3585410    -1.6984920    -0.0000020
  C        2.7379480    -0.7266300     0.0000180
  H       -2.5677820     1.4752540    -0.0000300
  H        0.7228010    -2.2381660     0.0000160
  H       -0.8234040     3.0925880    -0.0001030
  H        0.6363730     2.5877470     0.8789620
  H        0.6365320     2.5876940    -0.8788760
  H       -3.3546920    -0.8829470    -0.0000210
  H       -1.6280394    -2.5440908    -0.0000004
  H        2.6565620    -1.3539010    -0.8944310
  H        2.6565580    -1.3539040     0.8944650
  H        3.6991380    -0.2132700     0.0000220
units angstrom
no_reorient  #important for SAPT in psi4, default
symmetry c1  #important for SAPT in psi4, default
}

set PROPERTIES_ORIGIN ["COM"]
properties('MP2/aug-cc-pvtz', properties = ['dipole'])
--------------------------------------------------------------------------

    Molecular point group: c1
  Charge       = 0
  Multiplicity = 1
  Basis Set: AUG-CC-PVTZ
    Blend: AUG-CC-PVTZ
  Basis Set: (AUG-CC-PVTZ AUX)
    Blend: AUG-CC-PVTZ-JKFIT

    Orbital Energies [Eh]
    ---------------------

    Doubly Occupied:

       1A    -20.583273     2A    -11.294076     3A    -11.283900
       4A    -11.233521     5A    -11.230788     6A    -11.229179
       7A    -11.223318     8A    -11.215716     9A    -11.210400
      10A     -1.403301    11A     -1.146369    12A     -1.050534
      13A     -1.008215    14A     -0.948503    15A     -0.930242
      16A     -0.816765    17A     -0.805365    18A     -0.724877
      19A     -0.667150    20A     -0.652978    21A     -0.646033
      22A     -0.622553    23A     -0.590736    24A     -0.568441
      25A     -0.568001    26A     -0.538296    27A     -0.522117
      28A     -0.508315    29A     -0.495862    30A     -0.479418
      31A     -0.463485    32A     -0.330406    33A     -0.304578

  @DF-RHF Final Energy:  -383.71838180644858

   => Energetics <=

    Nuclear Repulsion Energy =            431.2697922052711874
    One-Electron Energy =               -1375.3829241684823046
    Two-Electron Energy =                 560.3947501567624840
    Total Energy =                       -383.7183818064486331
  Basis Set: (AUG-CC-PVTZ AUX)
    Blend: AUG-CC-PVTZ-RI
    Molecular point group: c1

    Geometry (in Angstrom), charge = 0, multiplicity = 1:

       Center              X                  Y                   Z               Mass
    ------------   -----------------  -----------------  -----------------  -----------------
         O            1.777777913687     0.312270571043     0.000018167632    15.994914619570
         C           -0.464601086313     0.980198571043    -0.000011832368    12.000000000000
         C            0.461053913687    -0.081620428957     0.000004167632    12.000000000000
         C           -1.823873086313     0.667771571043    -0.000017832368    12.000000000000
         C            0.032911913687    -1.412022428957     0.000006167632    12.000000000000
         C            0.035629913687     2.397445571043    -0.000007832368    12.000000000000
         C           -2.269547086313    -0.657926428957    -0.000013832368    12.000000000000
         C           -1.338054086313    -1.692197428957    -0.000001832368    12.000000000000
         C            2.758434913687    -0.720335428957     0.000018167632    12.000000000000
         H           -2.547295086313     1.481548571043    -0.000029832368     1.007825032230
         H            0.743287913687    -2.231871428957     0.000016167632     1.007825032230
         H           -0.802917086313     3.098882571043    -0.000102832368     1.007825032230
         H            0.656859913687     2.594041571043     0.878962167632     1.007825032230
         H            0.657018913687     2.593988571043    -0.878875832368     1.007825032230
         H           -3.334205086313    -0.876652428957    -0.000020832368     1.007825032230
         H           -1.607552486313    -2.537796228957    -0.000000232368     1.007825032230
         H            2.677048913687    -1.347606428957    -0.894430832368     1.007825032230
         H            2.677044913687    -1.347609428957     0.894465167632     1.007825032230
         H            3.719624913687    -0.206975428957     0.000022167632     1.007825032230

  Basis Set: AUG-CC-PVTZ
    Blend: AUG-CC-PVTZ
  Basis Set: (AUG-CC-PVTZ AUX)
    Blend: AUG-CC-PVTZ-JKFIT
	 Reference Energy          =    -383.7183818064485763 [Eh]
	 Singles Energy            =      -0.0000000000000000 [Eh]
	 Same-Spin Energy          =      -0.4107209540912111 [Eh]
	 Opposite-Spin Energy      =      -1.3177679991095246 [Eh]
	 Correlation Energy        =      -1.7284889532007357 [Eh]
	 Total Energy              =    -385.4468707596493005 [Eh]

	 ================> DF-SCS-MP2 Energies <==================
	-----------------------------------------------------------
	 SCS Same-Spin Scale       =       0.3333333333333333 [-]
	 SCS Opposite-Spin Scale   =       1.2000000000000000 [-]
	 SCS Same-Spin Energy      =      -0.1369069846970704 [Eh]
	 SCS Opposite-Spin Energy  =      -1.5813215989314295 [Eh]
	 SCS Correlation Energy    =      -1.7182285836284998 [Eh]
	 SCS Total Energy          =    -385.4366103900770781 [Eh]
	-----------------------------------------------------------

  Dipole Moment: [D]
     X:     0.9583      Y:    -0.7836      Z:     0.0000     Total:     1.2379

*** Psi4 exiting successfully. Buy a developer a beer!
