                               Psi4 1.4a3.dev225

  ==> Input File <==

--------------------------------------------------------------------------
#psi4
#
memory 32 gb

molecule  {
0 1
  O        1.7572910     0.3059760     0.0000180
  C       -0.4850880     0.9739040    -0.0000120
  C        0.4405670    -0.0879150     0.0000040
  C       -1.8443600     0.6614770    -0.0000180
  C        0.0124250    -1.4183170     0.0000060
  C       -0.0514241     2.2025540    -0.0000085
  C       -2.2900340    -0.6642210    -0.0000140
  C       -1.3585410    -1.6984920    -0.0000020
  C        2.7379480    -0.7266300     0.0000180
  H       -2.5677820     1.4752540    -0.0000300
  H        0.7228010    -2.2381660     0.0000160
  H       -0.8234040     3.0925880    -0.0001030
  H        0.6363730     2.5877470     0.8789620
  H        0.6365320     2.5876940    -0.8788760
  H       -3.3546920    -0.8829470    -0.0000210
  H       -1.6887710    -2.7346470     0.0000000
  H        2.6565620    -1.3539010    -0.8944310
  H        2.6565580    -1.3539040     0.8944650
  H        3.6991380    -0.2132700     0.0000220
units angstrom
no_reorient  #important for SAPT in psi4, default
symmetry c1  #important for SAPT in psi4, default
}

set PROPERTIES_ORIGIN ["COM"]
properties('MP2/aug-cc-pvtz', properties = ['dipole'])
--------------------------------------------------------------------------

    Molecular point group: c1
  Charge       = 0
  Multiplicity = 1
  Basis Set: AUG-CC-PVTZ
    Blend: AUG-CC-PVTZ
  Basis Set: (AUG-CC-PVTZ AUX)
    Blend: AUG-CC-PVTZ-JKFIT

    Orbital Energies [Eh]
    ---------------------

    Doubly Occupied:

       1A    -20.585847     2A    -11.296562     3A    -11.285167
       4A    -11.236060     5A    -11.232966     6A    -11.231529
       7A    -11.225636     8A    -11.225331     9A    -11.221950
      10A     -1.405948    11A     -1.157953    12A     -1.071137
      13A     -1.011153    14A     -0.951989    15A     -0.917074
      16A     -0.815473    17A     -0.792578    18A     -0.711296
      19A     -0.672176    20A     -0.661282    21A     -0.654936
      22A     -0.618663    23A     -0.591975    24A     -0.581119
      25A     -0.561808    26A     -0.533291    27A     -0.522819
      28A     -0.494772    29A     -0.485010    30A     -0.465257
      31A     -0.461767    32A     -0.328391    33A     -0.301061

  @DF-RHF Final Energy:  -383.70029841339345

   => Energetics <=

    Nuclear Repulsion Energy =            433.8855979379522978
    One-Electron Energy =               -1380.5518464029182724
    Two-Electron Energy =                 562.9659500515725767
    Total Energy =                       -383.7002984133933978
  Basis Set: (AUG-CC-PVTZ AUX)
    Blend: AUG-CC-PVTZ-RI
    Molecular point group: c1

    Geometry (in Angstrom), charge = 0, multiplicity = 1:

       Center              X                  Y                   Z               Mass
    ------------   -----------------  -----------------  -----------------  -----------------
         O            1.784822967587     0.332383192106     0.000018213480    15.994914619570
         C           -0.457556032413     1.000311192106    -0.000011786520    12.000000000000
         C            0.468098967587    -0.061507807894     0.000004213480    12.000000000000
         C           -1.816828032413     0.687884192106    -0.000017786520    12.000000000000
         C            0.039956967587    -1.391909807894     0.000006213480    12.000000000000
         C           -0.023892132413     2.228961192106    -0.000008286520    12.000000000000
         C           -2.262502032413    -0.637813807894    -0.000013786520    12.000000000000
         C           -1.331009032413    -1.672084807894    -0.000001786520    12.000000000000
         C            2.765479967587    -0.700222807894     0.000018213480    12.000000000000
         H           -2.540250032413     1.501661192106    -0.000029786520     1.007825032230
         H            0.750332967587    -2.211758807894     0.000016213480     1.007825032230
         H           -0.795872032413     3.118995192106    -0.000102786520     1.007825032230
         H            0.663904967587     2.614154192106     0.878962213480     1.007825032230
         H            0.664063967587     2.614101192106    -0.878875786520     1.007825032230
         H           -3.327160032413    -0.856539807894    -0.000020786520     1.007825032230
         H           -1.661239032413    -2.708239807894     0.000000213480     1.007825032230
         H            2.684093967587    -1.327493807894    -0.894430786520     1.007825032230
         H            2.684089967587    -1.327496807894     0.894465213480     1.007825032230
         H            3.726669967587    -0.186862807894     0.000022213480     1.007825032230

  Basis Set: AUG-CC-PVTZ
    Blend: AUG-CC-PVTZ
  Basis Set: (AUG-CC-PVTZ AUX)
    Blend: AUG-CC-PVTZ-JKFIT
	 Reference Energy          =    -383.7002984133934547 [Eh]
	 Singles Energy            =      -0.0000000000000000 [Eh]
	 Same-Spin Energy          =      -0.4146381489025505 [Eh]
	 Opposite-Spin Energy      =      -1.3230471626770761 [Eh]
	 Correlation Energy        =      -1.7376853115796265 [Eh]
	 Total Energy              =    -385.4379837249730940 [Eh]

	 ================> DF-SCS-MP2 Energies <==================
	-----------------------------------------------------------
	 SCS Same-Spin Scale       =       0.3333333333333333 [-]
	 SCS Opposite-Spin Scale   =       1.2000000000000000 [-]
	 SCS Same-Spin Energy      =      -0.1382127163008501 [Eh]
	 SCS Opposite-Spin Energy  =      -1.5876565952124913 [Eh]
	 SCS Correlation Energy    =      -1.7258693115133414 [Eh]
	 SCS Total Energy          =    -385.4261677249068043 [Eh]
	-----------------------------------------------------------

  Dipole Moment: [D]
     X:     1.0271      Y:    -0.7857      Z:     0.0000     Total:     1.2932

*** Psi4 exiting successfully. Buy a developer a beer!
