                               Psi4 1.4a3.dev225

  ==> Input File <==

--------------------------------------------------------------------------
#psi4
#
memory 32 gb

molecule  {
0 1
  O        1.7502161     0.3288960     0.0000178
  C       -0.4850880     0.9739040    -0.0000120
  C        0.4405670    -0.0879150     0.0000040
  C       -1.8443600     0.6614770    -0.0000180
  C        0.0124250    -1.4183170     0.0000060
  C        0.0151430     2.3911510    -0.0000080
  C       -2.2900340    -0.6642210    -0.0000140
  C       -1.3585410    -1.6984920    -0.0000020
  C        2.7379480    -0.7266300     0.0000180
  H       -2.5677820     1.4752540    -0.0000300
  H        0.7228010    -2.2381660     0.0000160
  H       -0.8234040     3.0925880    -0.0001030
  H        0.6363730     2.5877470     0.8789620
  H        0.6365320     2.5876940    -0.8788760
  H       -3.3546920    -0.8829470    -0.0000210
  H       -1.6887710    -2.7346470     0.0000000
  H        2.6565620    -1.3539010    -0.8944310
  H        2.6565580    -1.3539040     0.8944650
  H        3.6991380    -0.2132700     0.0000220
units angstrom
no_reorient  #important for SAPT in psi4, default
symmetry c1  #important for SAPT in psi4, default
}

set PROPERTIES_ORIGIN ["COM"]
properties('MP2/aug-cc-pvtz', properties = ['dipole'])
--------------------------------------------------------------------------

    Molecular point group: c1
  Charge       = 0
  Multiplicity = 1
  Basis Set: AUG-CC-PVTZ
    Blend: AUG-CC-PVTZ
  Basis Set: (AUG-CC-PVTZ AUX)
    Blend: AUG-CC-PVTZ-JKFIT

    Orbital Energies [Eh]
    ---------------------

    Doubly Occupied:

       1A    -20.585261     2A    -11.294291     3A    -11.286387
       4A    -11.234594     5A    -11.232939     6A    -11.231143
       7A    -11.230420     8A    -11.224039     9A    -11.215402
      10A     -1.399219    11A     -1.144386    12A     -1.044108
      13A     -1.007480    14A     -0.948337    15A     -0.921275
      16A     -0.812347    17A     -0.796092    18A     -0.707304
      19A     -0.665551    20A     -0.650601    21A     -0.644847
      22A     -0.613048    23A     -0.577574    24A     -0.568078
      25A     -0.562443    26A     -0.538759    27A     -0.524060
      28A     -0.510276    29A     -0.495661    30A     -0.475989
      31A     -0.465117    32A     -0.330861    33A     -0.304725

  @DF-RHF Final Energy:  -383.75139726927034

   => Energetics <=

    Nuclear Repulsion Energy =            429.9072715575184702
    One-Electron Energy =               -1372.8321107677040800
    Two-Electron Energy =                 559.1734419409152679
    Total Energy =                       -383.7513972692703419
  Basis Set: (AUG-CC-PVTZ AUX)
    Blend: AUG-CC-PVTZ-RI
    Molecular point group: c1

    Geometry (in Angstrom), charge = 0, multiplicity = 1:

       Center              X                  Y                   Z               Mass
    ------------   -----------------  -----------------  -----------------  -----------------
         O            1.772131413191     0.333760640602     0.000017990535    15.994914619570
         C           -0.463172686809     0.978768640602    -0.000011809465    12.000000000000
         C            0.462482313191    -0.083050359398     0.000004190535    12.000000000000
         C           -1.822444686809     0.666341640602    -0.000017809465    12.000000000000
         C            0.034340313191    -1.413452359398     0.000006190535    12.000000000000
         C            0.037058313191     2.396015640602    -0.000007809465    12.000000000000
         C           -2.268118686809    -0.659356359398    -0.000013809465    12.000000000000
         C           -1.336625686809    -1.693627359398    -0.000001809465    12.000000000000
         C            2.759863313191    -0.721765359398     0.000018190535    12.000000000000
         H           -2.545866686809     1.480118640602    -0.000029809465     1.007825032230
         H            0.744716313191    -2.233301359398     0.000016190535     1.007825032230
         H           -0.801488686809     3.097452640602    -0.000102809465     1.007825032230
         H            0.658288313191     2.592611640602     0.878962190535     1.007825032230
         H            0.658447313191     2.592558640602    -0.878875809465     1.007825032230
         H           -3.332776686809    -0.878082359398    -0.000020809465     1.007825032230
         H           -1.666855686809    -2.729782359398     0.000000190535     1.007825032230
         H            2.678477313191    -1.349036359398    -0.894430809465     1.007825032230
         H            2.678473313191    -1.349039359398     0.894465190535     1.007825032230
         H            3.721053313191    -0.208405359398     0.000022190535     1.007825032230

  Basis Set: AUG-CC-PVTZ
    Blend: AUG-CC-PVTZ
  Basis Set: (AUG-CC-PVTZ AUX)
    Blend: AUG-CC-PVTZ-JKFIT
	 Reference Energy          =    -383.7513972692703419 [Eh]
	 Singles Energy            =      -0.0000000000000000 [Eh]
	 Same-Spin Energy          =      -0.4110890393093020 [Eh]
	 Opposite-Spin Energy      =      -1.3189685209876010 [Eh]
	 Correlation Energy        =      -1.7300575602969031 [Eh]
	 Total Energy              =    -385.4814548295672694 [Eh]

	 ================> DF-SCS-MP2 Energies <==================
	-----------------------------------------------------------
	 SCS Same-Spin Scale       =       0.3333333333333333 [-]
	 SCS Opposite-Spin Scale   =       1.2000000000000000 [-]
	 SCS Same-Spin Energy      =      -0.1370296797697673 [Eh]
	 SCS Opposite-Spin Energy  =      -1.5827622251851212 [Eh]
	 SCS Correlation Energy    =      -1.7197919049548887 [Eh]
	 SCS Total Energy          =    -385.4711891742252305 [Eh]
	-----------------------------------------------------------

  Dipole Moment: [D]
     X:     1.0422      Y:    -0.7910      Z:     0.0000     Total:     1.3084

*** Psi4 exiting successfully. Buy a developer a beer!
