                               Psi4 1.4a3.dev225

  ==> Input File <==

--------------------------------------------------------------------------
#psi4
#
memory 32 gb

molecule  {
0 1
  O        1.7572910     0.3059760     0.0000180
  C       -0.4850880     0.9739040    -0.0000120
  C        0.4405670    -0.0879150     0.0000040
  C       -1.9418187     0.6390762    -0.0000184
  C        0.0124250    -1.4183170     0.0000060
  C        0.0151430     2.3911510    -0.0000080
  C       -2.2900340    -0.6642210    -0.0000140
  C       -1.3585410    -1.6984920    -0.0000020
  C        2.7379480    -0.7266300     0.0000180
  H       -2.5677820     1.4752540    -0.0000300
  H        0.7228010    -2.2381660     0.0000160
  H       -0.8234040     3.0925880    -0.0001030
  H        0.6363730     2.5877470     0.8789620
  H        0.6365320     2.5876940    -0.8788760
  H       -3.3546920    -0.8829470    -0.0000210
  H       -1.6887710    -2.7346470     0.0000000
  H        2.6565620    -1.3539010    -0.8944310
  H        2.6565580    -1.3539040     0.8944650
  H        3.6991380    -0.2132700     0.0000220
units angstrom
no_reorient  #important for SAPT in psi4, default
symmetry c1  #important for SAPT in psi4, default
}

set PROPERTIES_ORIGIN ["COM"]
properties('MP2/aug-cc-pvtz', properties = ['dipole'])
--------------------------------------------------------------------------

    Molecular point group: c1
  Charge       = 0
  Multiplicity = 1
  Basis Set: AUG-CC-PVTZ
    Blend: AUG-CC-PVTZ
  Basis Set: (AUG-CC-PVTZ AUX)
    Blend: AUG-CC-PVTZ-JKFIT

    Orbital Energies [Eh]
    ---------------------

    Doubly Occupied:

       1A    -20.582031     2A    -11.292195     3A    -11.283887
       4A    -11.241391     5A    -11.235502     6A    -11.233612
       7A    -11.233232     8A    -11.221386     9A    -11.216252
      10A     -1.402393    11A     -1.140829    12A     -1.039726
      13A     -1.015636    14A     -0.949662    15A     -0.916792
      16A     -0.817015    17A     -0.790973    18A     -0.710819
      19A     -0.665938    20A     -0.652604    21A     -0.644891
      22A     -0.624108    23A     -0.580749    24A     -0.566318
      25A     -0.560721    26A     -0.544292    27A     -0.522817
      28A     -0.508134    29A     -0.484105    30A     -0.477472
      31A     -0.464914    32A     -0.330390    33A     -0.301676

  @DF-RHF Final Energy:  -383.74063962747096

   => Energetics <=

    Nuclear Repulsion Energy =            428.8700889589253507
    One-Electron Energy =               -1370.7165339750883959
    Two-Electron Energy =                 558.1058053886920334
    Total Energy =                       -383.7406396274709550
  Basis Set: (AUG-CC-PVTZ AUX)
    Blend: AUG-CC-PVTZ-RI
    Molecular point group: c1

    Geometry (in Angstrom), charge = 0, multiplicity = 1:

       Center              X                  Y                   Z               Mass
    ------------   -----------------  -----------------  -----------------  -----------------
         O            1.787859664474     0.316045822620     0.000018203650    15.994914619570
         C           -0.454519335526     0.983973822620    -0.000011796350    12.000000000000
         C            0.471135664474    -0.077845177380     0.000004203650    12.000000000000
         C           -1.911250035526     0.649146022620    -0.000018196350    12.000000000000
         C            0.042993664474    -1.408247177380     0.000006203650    12.000000000000
         C            0.045711664474     2.401220822620    -0.000007796350    12.000000000000
         C           -2.259465335525    -0.654151177380    -0.000013796350    12.000000000000
         C           -1.327972335526    -1.688422177380    -0.000001796350    12.000000000000
         C            2.768516664474    -0.716560177380     0.000018203650    12.000000000000
         H           -2.537213335526     1.485323822620    -0.000029796350     1.007825032230
         H            0.753369664474    -2.228096177380     0.000016203650     1.007825032230
         H           -0.792835335526     3.102657822620    -0.000102796350     1.007825032230
         H            0.666941664474     2.597816822620     0.878962203650     1.007825032230
         H            0.667100664474     2.597763822620    -0.878875796350     1.007825032230
         H           -3.324123335526    -0.872877177380    -0.000020796350     1.007825032230
         H           -1.658202335526    -2.724577177380     0.000000203650     1.007825032230
         H            2.687130664474    -1.343831177380    -0.894430796350     1.007825032230
         H            2.687126664474    -1.343834177380     0.894465203650     1.007825032230
         H            3.729706664474    -0.203200177380     0.000022203650     1.007825032230

  Basis Set: AUG-CC-PVTZ
    Blend: AUG-CC-PVTZ
  Basis Set: (AUG-CC-PVTZ AUX)
    Blend: AUG-CC-PVTZ-JKFIT
	 Reference Energy          =    -383.7406396274709550 [Eh]
	 Singles Energy            =      -0.0000000000000000 [Eh]
	 Same-Spin Energy          =      -0.4111079666234798 [Eh]
	 Opposite-Spin Energy      =      -1.3190788486021852 [Eh]
	 Correlation Energy        =      -1.7301868152256650 [Eh]
	 Total Energy              =    -385.4708264426966480 [Eh]

	 ================> DF-SCS-MP2 Energies <==================
	-----------------------------------------------------------
	 SCS Same-Spin Scale       =       0.3333333333333333 [-]
	 SCS Opposite-Spin Scale   =       1.2000000000000000 [-]
	 SCS Same-Spin Energy      =      -0.1370359888744933 [Eh]
	 SCS Opposite-Spin Energy  =      -1.5828946183226222 [Eh]
	 SCS Correlation Energy    =      -1.7199306071971154 [Eh]
	 SCS Total Energy          =    -385.4605702346680687 [Eh]
	-----------------------------------------------------------

  Dipole Moment: [D]
     X:     0.9494      Y:    -0.7391      Z:     0.0000     Total:     1.2032

*** Psi4 exiting successfully. Buy a developer a beer!
