                               Psi4 1.4a3.dev225

  ==> Input File <==

--------------------------------------------------------------------------
#psi4
#
memory 32 gb

molecule  {
0 1
  O        1.7912507     0.1661831     0.0000192
  C       -0.4850880     0.9739040    -0.0000120
  C        0.4405670    -0.0879150     0.0000040
  C       -1.8443600     0.6614770    -0.0000180
  C        0.0124250    -1.4183170     0.0000060
  C        0.0151430     2.3911510    -0.0000080
  C       -2.2900340    -0.6642210    -0.0000140
  C       -1.3585410    -1.6984920    -0.0000020
  C        2.7379480    -0.7266300     0.0000180
  H       -2.5677820     1.4752540    -0.0000300
  H        0.7228010    -2.2381660     0.0000160
  H       -0.8234040     3.0925880    -0.0001030
  H        0.6363730     2.5877470     0.8789620
  H        0.6365320     2.5876940    -0.8788760
  H       -3.3546920    -0.8829470    -0.0000210
  H       -1.6887710    -2.7346470     0.0000000
  H        2.6565620    -1.3539010    -0.8944310
  H        2.6565580    -1.3539040     0.8944650
  H        3.6991380    -0.2132700     0.0000220
units angstrom
no_reorient  #important for SAPT in psi4, default
symmetry c1  #important for SAPT in psi4, default
}

set PROPERTIES_ORIGIN ["COM"]
properties('MP2/aug-cc-pvtz', properties = ['dipole'])
--------------------------------------------------------------------------

    Molecular point group: c1
  Charge       = 0
  Multiplicity = 1
  Basis Set: AUG-CC-PVTZ
    Blend: AUG-CC-PVTZ
  Basis Set: (AUG-CC-PVTZ AUX)
    Blend: AUG-CC-PVTZ-JKFIT

    Orbital Energies [Eh]
    ---------------------

    Doubly Occupied:

       1A    -20.574935     2A    -11.301625     3A    -11.272466
       4A    -11.240555     5A    -11.235940     6A    -11.235861
       7A    -11.230345     8A    -11.227420     9A    -11.220123
      10A     -1.438477    11A     -1.151940    12A     -1.048451
      13A     -1.021579    14A     -0.950690    15A     -0.919051
      16A     -0.815768    17A     -0.800708    18A     -0.719528
      19A     -0.678261    20A     -0.674755    21A     -0.654634
      22A     -0.617659    23A     -0.599996    24A     -0.571621
      25A     -0.567232    26A     -0.541336    27A     -0.511585
      28A     -0.502257    29A     -0.501496    30A     -0.462944
      31A     -0.455298    32A     -0.333092    33A     -0.308094

  @DF-RHF Final Energy:  -383.74274691500716

   => Energetics <=

    Nuclear Repulsion Energy =            431.5207541305425707
    One-Electron Energy =               -1375.7555607065619370
    Two-Electron Energy =                 560.4920596610121493
    Total Energy =                       -383.7427469150071602
  Basis Set: (AUG-CC-PVTZ AUX)
    Blend: AUG-CC-PVTZ-RI
    Molecular point group: c1

    Geometry (in Angstrom), charge = 0, multiplicity = 1:

       Center              X                  Y                   Z               Mass
    ------------   -----------------  -----------------  -----------------  -----------------
         O            1.807789361215     0.192367569118     0.000019207097    15.994914619570
         C           -0.468549338785     1.000088469118    -0.000011992903    12.000000000000
         C            0.457105661215    -0.061730530882     0.000004007097    12.000000000000
         C           -1.827821338785     0.687661469118    -0.000017992903    12.000000000000
         C            0.028963661215    -1.392132530882     0.000006007097    12.000000000000
         C            0.031681661215     2.417335469118    -0.000007992903    12.000000000000
         C           -2.273495338785    -0.638036530882    -0.000013992903    12.000000000000
         C           -1.342002338785    -1.672307530882    -0.000001992903    12.000000000000
         C            2.754486661215    -0.700445530882     0.000018007097    12.000000000000
         H           -2.551243338785     1.501438469118    -0.000029992903     1.007825032230
         H            0.739339661215    -2.211981530882     0.000016007097     1.007825032230
         H           -0.806865338785     3.118772469118    -0.000102992903     1.007825032230
         H            0.652911661215     2.613931469118     0.878962007097     1.007825032230
         H            0.653070661215     2.613878469118    -0.878875992903     1.007825032230
         H           -3.338153338785    -0.856762530882    -0.000020992903     1.007825032230
         H           -1.672232338785    -2.708462530882     0.000000007097     1.007825032230
         H            2.673100661215    -1.327716530882    -0.894430992903     1.007825032230
         H            2.673096661215    -1.327719530882     0.894465007097     1.007825032230
         H            3.715676661215    -0.187085530882     0.000022007097     1.007825032230

  Basis Set: AUG-CC-PVTZ
    Blend: AUG-CC-PVTZ
  Basis Set: (AUG-CC-PVTZ AUX)
    Blend: AUG-CC-PVTZ-JKFIT
	 Reference Energy          =    -383.7427469150071602 [Eh]
	 Singles Energy            =      -0.0000000000000000 [Eh]
	 Same-Spin Energy          =      -0.4101996430492880 [Eh]
	 Opposite-Spin Energy      =      -1.3148755161929380 [Eh]
	 Correlation Energy        =      -1.7250751592422260 [Eh]
	 Total Energy              =    -385.4678220742493977 [Eh]

	 ================> DF-SCS-MP2 Energies <==================
	-----------------------------------------------------------
	 SCS Same-Spin Scale       =       0.3333333333333333 [-]
	 SCS Opposite-Spin Scale   =       1.2000000000000000 [-]
	 SCS Same-Spin Energy      =      -0.1367332143497627 [Eh]
	 SCS Opposite-Spin Energy  =      -1.5778506194315256 [Eh]
	 SCS Correlation Energy    =      -1.7145838337812882 [Eh]
	 SCS Total Energy          =    -385.4573307487884222 [Eh]
	-----------------------------------------------------------

  Dipole Moment: [D]
     X:     0.5594      Y:    -0.3540      Z:     0.0000     Total:     0.6620

*** Psi4 exiting successfully. Buy a developer a beer!
