                               Psi4 1.4a3.dev225

  ==> Input File <==

--------------------------------------------------------------------------
#psi4
#
memory 32 gb

molecule  {
0 1
  O        1.7572910     0.3059760     0.0000180
  C       -0.4850880     0.9739040    -0.0000120
  C        0.4405670    -0.0879150     0.0000040
  C       -1.8443600     0.6614770    -0.0000180
  C        0.0124250    -1.4183170     0.0000060
  C        0.0151430     2.3911510    -0.0000080
  C       -2.2668295    -0.6717972    -0.0000137
  C       -1.3585410    -1.6984920    -0.0000020
  C        2.7379480    -0.7266300     0.0000180
  H       -2.5677820     1.4752540    -0.0000300
  H        0.7228010    -2.2381660     0.0000160
  H       -0.8234040     3.0925880    -0.0001030
  H        0.6363730     2.5877470     0.8789620
  H        0.6365320     2.5876940    -0.8788760
  H       -3.3546920    -0.8829470    -0.0000210
  H       -1.6887710    -2.7346470     0.0000000
  H        2.6565620    -1.3539010    -0.8944310
  H        2.6565580    -1.3539040     0.8944650
  H        3.6991380    -0.2132700     0.0000220
units angstrom
no_reorient  #important for SAPT in psi4, default
symmetry c1  #important for SAPT in psi4, default
}

set PROPERTIES_ORIGIN ["COM"]
properties('MP2/aug-cc-pvtz', properties = ['dipole'])
--------------------------------------------------------------------------

    Molecular point group: c1
  Charge       = 0
  Multiplicity = 1
  Basis Set: AUG-CC-PVTZ
    Blend: AUG-CC-PVTZ
  Basis Set: (AUG-CC-PVTZ AUX)
    Blend: AUG-CC-PVTZ-JKFIT

    Orbital Energies [Eh]
    ---------------------

    Doubly Occupied:

       1A    -20.583719     2A    -11.294679     3A    -11.284076
       4A    -11.234219     5A    -11.232118     6A    -11.231667
       7A    -11.229890     8A    -11.223914     9A    -11.216128
      10A     -1.403703    11A     -1.147349    12A     -1.046381
      13A     -1.008643    14A     -0.948042    15A     -0.922480
      16A     -0.813694    17A     -0.794685    18A     -0.709511
      19A     -0.667816    20A     -0.653327    21A     -0.642568
      22A     -0.614067    23A     -0.582402    24A     -0.568570
      25A     -0.563288    26A     -0.539734    27A     -0.520535
      28A     -0.509233    29A     -0.493902    30A     -0.475901
      31A     -0.465868    32A     -0.330668    33A     -0.306899

  @DF-RHF Final Energy:  -383.75246422625156

   => Energetics <=

    Nuclear Repulsion Energy =            430.5081494622280047
    One-Electron Energy =               -1374.0018752353901164
    Two-Electron Energy =                 559.7412615469105504
    Total Energy =                       -383.7524642262516181
  Basis Set: (AUG-CC-PVTZ AUX)
    Blend: AUG-CC-PVTZ-RI
    Molecular point group: c1

    Geometry (in Angstrom), charge = 0, multiplicity = 1:

       Center              X                  Y                   Z               Mass
    ------------   -----------------  -----------------  -----------------  -----------------
         O            1.775998266429     0.314588539194     0.000018134839    15.994914619570
         C           -0.466380733571     0.982516539194    -0.000011865161    12.000000000000
         C            0.459274266429    -0.079302460806     0.000004134839    12.000000000000
         C           -1.825652733571     0.670089539194    -0.000017865161    12.000000000000
         C            0.031132266429    -1.409704460806     0.000006134839    12.000000000000
         C            0.033850266429     2.399763539194    -0.000007865161    12.000000000000
         C           -2.248122233571    -0.663184660806    -0.000013565161    12.000000000000
         C           -1.339833733571    -1.689879460806    -0.000001865161    12.000000000000
         C            2.756655266429    -0.718017460806     0.000018134839    12.000000000000
         H           -2.549074733571     1.483866539194    -0.000029865161     1.007825032230
         H            0.741508266429    -2.229553460806     0.000016134839     1.007825032230
         H           -0.804696733571     3.101200539194    -0.000102865161     1.007825032230
         H            0.655080266429     2.596359539194     0.878962134839     1.007825032230
         H            0.655239266429     2.596306539194    -0.878875865161     1.007825032230
         H           -3.335984733571    -0.874334460806    -0.000020865161     1.007825032230
         H           -1.670063733571    -2.726034460806     0.000000134839     1.007825032230
         H            2.675269266429    -1.345288460806    -0.894430865161     1.007825032230
         H            2.675265266429    -1.345291460806     0.894465134839     1.007825032230
         H            3.717845266429    -0.204657460806     0.000022134839     1.007825032230

  Basis Set: AUG-CC-PVTZ
    Blend: AUG-CC-PVTZ
  Basis Set: (AUG-CC-PVTZ AUX)
    Blend: AUG-CC-PVTZ-JKFIT
	 Reference Energy          =    -383.7524642262515613 [Eh]
	 Singles Energy            =      -0.0000000000000000 [Eh]
	 Same-Spin Energy          =      -0.4108522275043775 [Eh]
	 Opposite-Spin Energy      =      -1.3180716226437588 [Eh]
	 Correlation Energy        =      -1.7289238501481363 [Eh]
	 Total Energy              =    -385.4813880763996963 [Eh]

	 ================> DF-SCS-MP2 Energies <==================
	-----------------------------------------------------------
	 SCS Same-Spin Scale       =       0.3333333333333333 [-]
	 SCS Opposite-Spin Scale   =       1.2000000000000000 [-]
	 SCS Same-Spin Energy      =      -0.1369507425014592 [Eh]
	 SCS Opposite-Spin Energy  =      -1.5816859471725104 [Eh]
	 SCS Correlation Energy    =      -1.7186366896739695 [Eh]
	 SCS Total Energy          =    -385.4711009159255468 [Eh]
	-----------------------------------------------------------

  Dipole Moment: [D]
     X:     0.9800      Y:    -0.7274      Z:     0.0000     Total:     1.2204

*** Psi4 exiting successfully. Buy a developer a beer!
