                               Psi4 1.4a3.dev225

  ==> Input File <==

--------------------------------------------------------------------------
#psi4
#
memory 32 gb

molecule  {
0 1
  O        1.7572910     0.3059760     0.0000180
  C       -0.4850880     0.9739040    -0.0000120
  C        0.4405670    -0.0879150     0.0000040
  C       -1.8443600     0.6614770    -0.0000180
  C        0.0124250    -1.4183170     0.0000060
  C        0.0151430     2.3911510    -0.0000080
  C       -2.2900340    -0.6642210    -0.0000140
  C       -1.3585410    -1.6984920    -0.0000020
  C        2.6690848    -0.6541189     0.0000180
  H       -2.5677820     1.4752540    -0.0000300
  H        0.7228010    -2.2381660     0.0000160
  H       -0.8234040     3.0925880    -0.0001030
  H        0.6363730     2.5877470     0.8789620
  H        0.6365320     2.5876940    -0.8788760
  H       -3.3546920    -0.8829470    -0.0000210
  H       -1.6887710    -2.7346470     0.0000000
  H        2.6565620    -1.3539010    -0.8944310
  H        2.6565580    -1.3539040     0.8944650
  H        3.6991380    -0.2132700     0.0000220
units angstrom
no_reorient  #important for SAPT in psi4, default
symmetry c1  #important for SAPT in psi4, default
}

set PROPERTIES_ORIGIN ["COM"]
properties('MP2/aug-cc-pvtz', properties = ['dipole'])
--------------------------------------------------------------------------

    Molecular point group: c1
  Charge       = 0
  Multiplicity = 1
  Basis Set: AUG-CC-PVTZ
    Blend: AUG-CC-PVTZ
  Basis Set: (AUG-CC-PVTZ AUX)
    Blend: AUG-CC-PVTZ-JKFIT

    Orbital Energies [Eh]
    ---------------------

    Doubly Occupied:

       1A    -20.591519     2A    -11.299165     3A    -11.285424
       4A    -11.238155     5A    -11.237067     6A    -11.234437
       7A    -11.234077     8A    -11.228186     9A    -11.219122
      10A     -1.441248    11A     -1.150890    12A     -1.048873
      13A     -1.016035    14A     -0.945279    15A     -0.920533
      16A     -0.813155    17A     -0.802854    18A     -0.721409
      19A     -0.679389    20A     -0.664076    21A     -0.653210
      22A     -0.613560    23A     -0.593880    24A     -0.568846
      25A     -0.566865    26A     -0.542004    27A     -0.510997
      28A     -0.497921    29A     -0.497228    30A     -0.475040
      31A     -0.457402    32A     -0.333921    33A     -0.309954

  @DF-RHF Final Energy:  -383.74478641652587

   => Energetics <=

    Nuclear Repulsion Energy =            432.0858500575206449
    One-Electron Energy =               -1376.8778232969971214
    Two-Electron Energy =                 561.0471868229504935
    Total Energy =                       -383.7447864165259261
  Basis Set: (AUG-CC-PVTZ AUX)
    Blend: AUG-CC-PVTZ-RI
    Molecular point group: c1

    Geometry (in Angstrom), charge = 0, multiplicity = 1:

       Center              X                  Y                   Z               Mass
    ------------   -----------------  -----------------  -----------------  -----------------
         O            1.785048678127     0.306715821218     0.000018164330    15.994914619570
         C           -0.457330321873     0.974643821218    -0.000011835670    12.000000000000
         C            0.468324678127    -0.087175178782     0.000004164330    12.000000000000
         C           -1.816602321873     0.662216821218    -0.000017835670    12.000000000000
         C            0.040182678127    -1.417577178782     0.000006164330    12.000000000000
         C            0.042900678127     2.391890821218    -0.000007835670    12.000000000000
         C           -2.262276321873    -0.663481178782    -0.000013835670    12.000000000000
         C           -1.330783321873    -1.697752178782    -0.000001835670    12.000000000000
         C            2.696842478127    -0.653379078782     0.000018164330    12.000000000000
         H           -2.540024321873     1.475993821218    -0.000029835670     1.007825032230
         H            0.750558678127    -2.237426178782     0.000016164330     1.007825032230
         H           -0.795646321873     3.093327821218    -0.000102835670     1.007825032230
         H            0.664130678127     2.588486821218     0.878962164330     1.007825032230
         H            0.664289678127     2.588433821218    -0.878875835670     1.007825032230
         H           -3.326934321873    -0.882207178782    -0.000020835670     1.007825032230
         H           -1.661013321873    -2.733907178782     0.000000164330     1.007825032230
         H            2.684319678127    -1.353161178782    -0.894430835670     1.007825032230
         H            2.684315678127    -1.353164178782     0.894465164330     1.007825032230
         H            3.726895678127    -0.212530178782     0.000022164330     1.007825032230

  Basis Set: AUG-CC-PVTZ
    Blend: AUG-CC-PVTZ
  Basis Set: (AUG-CC-PVTZ AUX)
    Blend: AUG-CC-PVTZ-JKFIT
	 Reference Energy          =    -383.7447864165258693 [Eh]
	 Singles Energy            =      -0.0000000000000000 [Eh]
	 Same-Spin Energy          =      -0.4111040971238620 [Eh]
	 Opposite-Spin Energy      =      -1.3173087351071415 [Eh]
	 Correlation Energy        =      -1.7284128322310035 [Eh]
	 Total Energy              =    -385.4731992487568846 [Eh]

	 ================> DF-SCS-MP2 Energies <==================
	-----------------------------------------------------------
	 SCS Same-Spin Scale       =       0.3333333333333333 [-]
	 SCS Opposite-Spin Scale   =       1.2000000000000000 [-]
	 SCS Same-Spin Energy      =      -0.1370346990412873 [Eh]
	 SCS Opposite-Spin Energy  =      -1.5807704821285697 [Eh]
	 SCS Correlation Energy    =      -1.7178051811698571 [Eh]
	 SCS Total Energy          =    -385.4625915976957344 [Eh]
	-----------------------------------------------------------

  Dipole Moment: [D]
     X:     0.5242      Y:    -0.4930      Z:     0.0000     Total:     0.7196

*** Psi4 exiting successfully. Buy a developer a beer!
