                               Psi4 1.4a3.dev225

  ==> Input File <==

--------------------------------------------------------------------------
#psi4
#
memory 32 gb

molecule  {
0 1
  O        1.7572910     0.3059760     0.0000180
  C       -0.4850880     0.9739040    -0.0000120
  C        0.4405670    -0.0879150     0.0000040
  C       -1.8443600     0.6614770    -0.0000180
  C        0.0124250    -1.4183170     0.0000060
  C        0.0151430     2.3911510    -0.0000080
  C       -2.2581684    -0.5694339    -0.0000143
  C       -1.3585410    -1.6984920    -0.0000020
  C        2.7379480    -0.7266300     0.0000180
  H       -2.5677820     1.4752540    -0.0000300
  H        0.7228010    -2.2381660     0.0000160
  H       -0.8234040     3.0925880    -0.0001030
  H        0.6363730     2.5877470     0.8789620
  H        0.6365320     2.5876940    -0.8788760
  H       -3.3546920    -0.8829470    -0.0000210
  H       -1.6887710    -2.7346470     0.0000000
  H        2.6565620    -1.3539010    -0.8944310
  H        2.6565580    -1.3539040     0.8944650
  H        3.6991380    -0.2132700     0.0000220
units angstrom
no_reorient  #important for SAPT in psi4, default
symmetry c1  #important for SAPT in psi4, default
}

set PROPERTIES_ORIGIN ["COM"]
properties('MP2/aug-cc-pvtz', properties = ['dipole'])
--------------------------------------------------------------------------

    Molecular point group: c1
  Charge       = 0
  Multiplicity = 1
  Basis Set: AUG-CC-PVTZ
    Blend: AUG-CC-PVTZ
  Basis Set: (AUG-CC-PVTZ AUX)
    Blend: AUG-CC-PVTZ-JKFIT

    Orbital Energies [Eh]
    ---------------------

    Doubly Occupied:

       1A    -20.582368     2A    -11.292385     3A    -11.283930
       4A    -11.240052     5A    -11.232607     6A    -11.232072
       7A    -11.223745     8A    -11.219453     9A    -11.215215
      10A     -1.402645    11A     -1.151762    12A     -1.040355
      13A     -1.020725    14A     -0.950500    15A     -0.916224
      16A     -0.812602    17A     -0.795402    18A     -0.710012
      19A     -0.669145    20A     -0.652933    21A     -0.637898
      22A     -0.617548    23A     -0.584864    24A     -0.568415
      25A     -0.565911    26A     -0.534719    27A     -0.522660
      28A     -0.509108    29A     -0.484986    30A     -0.473379
      31A     -0.468416    32A     -0.341317    33A     -0.299036

  @DF-RHF Final Energy:  -383.73881944225207

   => Energetics <=

    Nuclear Repulsion Energy =            431.2205731360944014
    One-Electron Energy =               -1375.4140021163841539
    Two-Electron Energy =                 560.4546095380377437
    Total Energy =                       -383.7388194422520655
  Basis Set: (AUG-CC-PVTZ AUX)
    Blend: AUG-CC-PVTZ-RI
    Molecular point group: c1

    Geometry (in Angstrom), charge = 0, multiplicity = 1:

       Center              X                  Y                   Z               Mass
    ------------   -----------------  -----------------  -----------------  -----------------
         O            1.775146865550     0.304526052483     0.000018193820    15.994914619570
         C           -0.467232134450     0.972454052483    -0.000011806180    12.000000000000
         C            0.458422865550    -0.089364947517     0.000004193820    12.000000000000
         C           -1.826504134450     0.660027052483    -0.000017806180    12.000000000000
         C            0.030280865550    -1.419766947517     0.000006193820    12.000000000000
         C            0.032998865550     2.389701052483    -0.000007806180    12.000000000000
         C           -2.240312534450    -0.570883847517    -0.000014106180    12.000000000000
         C           -1.340685134450    -1.699941947517    -0.000001806180    12.000000000000
         C            2.755803865550    -0.728079947517     0.000018193820    12.000000000000
         H           -2.549926134450     1.473804052483    -0.000029806180     1.007825032230
         H            0.740656865550    -2.239615947517     0.000016193820     1.007825032230
         H           -0.805548134450     3.091138052483    -0.000102806180     1.007825032230
         H            0.654228865550     2.586297052483     0.878962193820     1.007825032230
         H            0.654387865550     2.586244052483    -0.878875806180     1.007825032230
         H           -3.336836134450    -0.884396947517    -0.000020806180     1.007825032230
         H           -1.670915134450    -2.736096947517     0.000000193820     1.007825032230
         H            2.674417865550    -1.355350947517    -0.894430806180     1.007825032230
         H            2.674413865550    -1.355353947517     0.894465193820     1.007825032230
         H            3.716993865550    -0.214719947517     0.000022193820     1.007825032230

  Basis Set: AUG-CC-PVTZ
    Blend: AUG-CC-PVTZ
  Basis Set: (AUG-CC-PVTZ AUX)
    Blend: AUG-CC-PVTZ-JKFIT
	 Reference Energy          =    -383.7388194422520655 [Eh]
	 Singles Energy            =      -0.0000000000000000 [Eh]
	 Same-Spin Energy          =      -0.4112143862914932 [Eh]
	 Opposite-Spin Energy      =      -1.3188329768334000 [Eh]
	 Correlation Energy        =      -1.7300473631248932 [Eh]
	 Total Energy              =    -385.4688668053769334 [Eh]

	 ================> DF-SCS-MP2 Energies <==================
	-----------------------------------------------------------
	 SCS Same-Spin Scale       =       0.3333333333333333 [-]
	 SCS Opposite-Spin Scale   =       1.2000000000000000 [-]
	 SCS Same-Spin Energy      =      -0.1370714620971644 [Eh]
	 SCS Opposite-Spin Energy  =      -1.5825995722000799 [Eh]
	 SCS Correlation Energy    =      -1.7196710342972443 [Eh]
	 SCS Total Energy          =    -385.4584904765492865 [Eh]
	-----------------------------------------------------------

  Dipole Moment: [D]
     X:     0.9821      Y:    -0.7946      Z:     0.0000     Total:     1.2633

*** Psi4 exiting successfully. Buy a developer a beer!
