                               Psi4 1.4a3.dev225

  ==> Input File <==

--------------------------------------------------------------------------
#psi4
#
memory 32 gb

molecule  {
0 1
  O        1.7572910     0.3059760     0.0000180
  C       -0.4850880     0.9739040    -0.0000120
  C        0.4405670    -0.0879150     0.0000040
  C       -1.8443600     0.6614770    -0.0000180
  C        0.0124250    -1.4183170     0.0000060
  C        0.0151430     2.3911510    -0.0000080
  C       -2.3059668    -0.7116145    -0.0000139
  C       -1.3585410    -1.6984920    -0.0000020
  C        2.7379480    -0.7266300     0.0000180
  H       -2.5677820     1.4752540    -0.0000300
  H        0.7228010    -2.2381660     0.0000160
  H       -0.8234040     3.0925880    -0.0001030
  H        0.6363730     2.5877470     0.8789620
  H        0.6365320     2.5876940    -0.8788760
  H       -3.3546920    -0.8829470    -0.0000210
  H       -1.6887710    -2.7346470     0.0000000
  H        2.6565620    -1.3539010    -0.8944310
  H        2.6565580    -1.3539040     0.8944650
  H        3.6991380    -0.2132700     0.0000220
units angstrom
no_reorient  #important for SAPT in psi4, default
symmetry c1  #important for SAPT in psi4, default
}

set PROPERTIES_ORIGIN ["COM"]
properties('MP2/aug-cc-pvtz', properties = ['dipole'])
--------------------------------------------------------------------------

    Molecular point group: c1
  Charge       = 0
  Multiplicity = 1
  Basis Set: AUG-CC-PVTZ
    Blend: AUG-CC-PVTZ
  Basis Set: (AUG-CC-PVTZ AUX)
    Blend: AUG-CC-PVTZ-JKFIT

    Orbital Energies [Eh]
    ---------------------

    Doubly Occupied:

       1A    -20.584867     2A    -11.296510     3A    -11.284455
       4A    -11.237031     5A    -11.234360     6A    -11.232230
       7A    -11.229283     8A    -11.224649     9A    -11.216417
      10A     -1.404653    11A     -1.143190    12A     -1.046991
      13A     -1.005068    14A     -0.947617    15A     -0.922649
      16A     -0.813779    17A     -0.796463    18A     -0.708414
      19A     -0.667197    20A     -0.653801    21A     -0.649942
      22A     -0.611396    23A     -0.579989    24A     -0.568454
      25A     -0.562034    26A     -0.543597    27A     -0.519569
      28A     -0.508977    29A     -0.501888    30A     -0.471186
      31A     -0.463067    32A     -0.328371    33A     -0.307378

  @DF-RHF Final Energy:  -383.75025873626032

   => Energetics <=

    Nuclear Repulsion Energy =            429.5973191308320907
    One-Electron Energy =               -1372.1642119224534326
    Two-Electron Energy =                 558.8166340553609643
    Total Energy =                       -383.7502587362603208
  Basis Set: (AUG-CC-PVTZ AUX)
    Blend: AUG-CC-PVTZ-RI
    Molecular point group: c1

    Geometry (in Angstrom), charge = 0, multiplicity = 1:

       Center              X                  Y                   Z               Mass
    ------------   -----------------  -----------------  -----------------  -----------------
         O            1.779845529669     0.318502647592     0.000018154499    15.994914619570
         C           -0.462533470331     0.986430647592    -0.000011845501    12.000000000000
         C            0.463121529669    -0.075388352408     0.000004154499    12.000000000000
         C           -1.821805470331     0.674003647592    -0.000017845501    12.000000000000
         C            0.034979529669    -1.405790352408     0.000006154499    12.000000000000
         C            0.037697529669     2.403677647592    -0.000007845501    12.000000000000
         C           -2.283412270331    -0.699087852408    -0.000013745501    12.000000000000
         C           -1.335986470331    -1.685965352408    -0.000001845501    12.000000000000
         C            2.760502529669    -0.714103352408     0.000018154499    12.000000000000
         H           -2.545227470331     1.487780647592    -0.000029845501     1.007825032230
         H            0.745355529669    -2.225639352408     0.000016154499     1.007825032230
         H           -0.800849470331     3.105114647592    -0.000102845501     1.007825032230
         H            0.658927529669     2.600273647592     0.878962154499     1.007825032230
         H            0.659086529669     2.600220647592    -0.878875845501     1.007825032230
         H           -3.332137470331    -0.870420352408    -0.000020845501     1.007825032230
         H           -1.666216470331    -2.722120352408     0.000000154499     1.007825032230
         H            2.679116529669    -1.341374352408    -0.894430845501     1.007825032230
         H            2.679112529669    -1.341377352408     0.894465154499     1.007825032230
         H            3.721692529669    -0.200743352408     0.000022154499     1.007825032230

  Basis Set: AUG-CC-PVTZ
    Blend: AUG-CC-PVTZ
  Basis Set: (AUG-CC-PVTZ AUX)
    Blend: AUG-CC-PVTZ-JKFIT
	 Reference Energy          =    -383.7502587362603208 [Eh]
	 Singles Energy            =      -0.0000000000000000 [Eh]
	 Same-Spin Energy          =      -0.4105751680248365 [Eh]
	 Opposite-Spin Energy      =      -1.3182732656860001 [Eh]
	 Correlation Energy        =      -1.7288484337108367 [Eh]
	 Total Energy              =    -385.4791071699711438 [Eh]

	 ================> DF-SCS-MP2 Energies <==================
	-----------------------------------------------------------
	 SCS Same-Spin Scale       =       0.3333333333333333 [-]
	 SCS Opposite-Spin Scale   =       1.2000000000000000 [-]
	 SCS Same-Spin Energy      =      -0.1368583893416122 [Eh]
	 SCS Opposite-Spin Energy  =      -1.5819279188232001 [Eh]
	 SCS Correlation Energy    =      -1.7187863081648123 [Eh]
	 SCS Total Energy          =    -385.4690450444251155 [Eh]
	-----------------------------------------------------------

  Dipole Moment: [D]
     X:     0.9852      Y:    -0.7082      Z:     0.0000     Total:     1.2133

*** Psi4 exiting successfully. Buy a developer a beer!
