                               Psi4 1.4a3.dev225

  ==> Input File <==

--------------------------------------------------------------------------
#psi4
#
memory 32 gb

molecule  {
0 1
  O        1.7572910     0.3059760     0.0000180
  C       -0.4850880     0.9739040    -0.0000120
  C        0.4405670    -0.0879150     0.0000040
  C       -1.8443600     0.6614770    -0.0000180
  C        0.0124250    -1.4183170     0.0000060
  C        0.0151430     2.3911510    -0.0000080
  C       -2.2900340    -0.6642210    -0.0000140
  C       -1.3585410    -1.6984920    -0.0000020
  C        2.7379480    -0.7266300     0.0000180
  H       -2.5677820     1.4752540    -0.0000300
  H        0.7228010    -2.2381660     0.0000160
  H       -0.8234040     3.0925880    -0.0001030
  H        0.6363730     2.5877470     0.8789620
  H        0.6365320     2.5876940    -0.8788760
  H       -3.3546920    -0.8829470    -0.0000210
  H       -1.6887710    -2.7346470     0.0000000
  H        2.6714202    -1.2393838    -0.7311367
  H        2.6565580    -1.3539040     0.8944650
  H        3.6991380    -0.2132700     0.0000220
units angstrom
no_reorient  #important for SAPT in psi4, default
symmetry c1  #important for SAPT in psi4, default
}

set PROPERTIES_ORIGIN ["COM"]
properties('MP2/aug-cc-pvtz', properties = ['dipole'])
--------------------------------------------------------------------------

    Molecular point group: c1
  Charge       = 0
  Multiplicity = 1
  Basis Set: AUG-CC-PVTZ
    Blend: AUG-CC-PVTZ
  Basis Set: (AUG-CC-PVTZ AUX)
    Blend: AUG-CC-PVTZ-JKFIT

    Orbital Energies [Eh]
    ---------------------

    Doubly Occupied:

       1A    -20.581021     2A    -11.294841     3A    -11.259915
       4A    -11.234811     5A    -11.233417     6A    -11.231628
       7A    -11.230293     8A    -11.224095     9A    -11.215587
      10A     -1.402767    11A     -1.145326    12A     -1.045647
      13A     -1.012789    14A     -0.967074    15A     -0.923516
      16A     -0.816843    17A     -0.798265    18A     -0.715975
      19A     -0.669878    20A     -0.666239    21A     -0.646310
      22A     -0.613954    23A     -0.580338    24A     -0.572002
      25A     -0.563363    26A     -0.538502    27A     -0.528069
      28A     -0.513612    29A     -0.496083    30A     -0.475766
      31A     -0.465694    32A     -0.331039    33A     -0.304638

  @DF-RHF Final Energy:  -383.71989284431044

   => Energetics <=

    Nuclear Repulsion Energy =            431.0730305018242916
    One-Electron Energy =               -1374.9872518515717275
    Two-Electron Energy =                 560.1943285054369426
    Total Energy =                       -383.7198928443104933
  Basis Set: (AUG-CC-PVTZ AUX)
    Blend: AUG-CC-PVTZ-RI
    Molecular point group: c1

    Geometry (in Angstrom), charge = 0, multiplicity = 1:

       Center              X                  Y                   Z               Mass
    ------------   -----------------  -----------------  -----------------  -----------------
         O            1.778156640338     0.312898342165    -0.001329978673    15.994914619570
         C           -0.464222359662     0.980826342165    -0.001359978673    12.000000000000
         C            0.461432640338    -0.080992657835    -0.001343978673    12.000000000000
         C           -1.823494359662     0.668399342165    -0.001365978673    12.000000000000
         C            0.033290640338    -1.411394657835    -0.001341978673    12.000000000000
         C            0.036008640338     2.398073342165    -0.001355978673    12.000000000000
         C           -2.269168359662    -0.657298657835    -0.001361978673    12.000000000000
         C           -1.337675359662    -1.691569657835    -0.001349978673    12.000000000000
         C            2.758813640338    -0.719707657835    -0.001329978673    12.000000000000
         H           -2.546916359662     1.482176342165    -0.001377978673     1.007825032230
         H            0.743666640338    -2.231243657835    -0.001331978673     1.007825032230
         H           -0.802538359662     3.099510342165    -0.001450978673     1.007825032230
         H            0.657238640338     2.594669342165     0.877614021327     1.007825032230
         H            0.657397640338     2.594616342165    -0.880223978673     1.007825032230
         H           -3.333826359662    -0.876024657835    -0.001368978673     1.007825032230
         H           -1.667905359662    -2.727724657835    -0.001347978673     1.007825032230
         H            2.692285840338    -1.232461457835    -0.732484678673     1.007825032230
         H            2.677423640338    -1.346981657835     0.893117021327     1.007825032230
         H            3.720003640338    -0.206347657835    -0.001325978673     1.007825032230

  Basis Set: AUG-CC-PVTZ
    Blend: AUG-CC-PVTZ
  Basis Set: (AUG-CC-PVTZ AUX)
    Blend: AUG-CC-PVTZ-JKFIT
	 Reference Energy          =    -383.7198928443104364 [Eh]
	 Singles Energy            =      -0.0000000000000000 [Eh]
	 Same-Spin Energy          =      -0.4107493345903356 [Eh]
	 Opposite-Spin Energy      =      -1.3173820622466030 [Eh]
	 Correlation Energy        =      -1.7281313968369387 [Eh]
	 Total Energy              =    -385.4480242411473796 [Eh]

	 ================> DF-SCS-MP2 Energies <==================
	-----------------------------------------------------------
	 SCS Same-Spin Scale       =       0.3333333333333333 [-]
	 SCS Opposite-Spin Scale   =       1.2000000000000000 [-]
	 SCS Same-Spin Energy      =      -0.1369164448634452 [Eh]
	 SCS Opposite-Spin Energy  =      -1.5808584746959236 [Eh]
	 SCS Correlation Energy    =      -1.7177749195593688 [Eh]
	 SCS Total Energy          =    -385.4376677638697970 [Eh]
	-----------------------------------------------------------

  Dipole Moment: [D]
     X:     1.0395      Y:    -0.8008      Z:    -0.0640     Total:     1.3137

*** Psi4 exiting successfully. Buy a developer a beer!
