                               Psi4 1.4a3.dev225

  ==> Input File <==

--------------------------------------------------------------------------
#psi4
#
memory 32 gb

molecule  {
0 1
  O        1.7572910     0.3059760     0.0000180
  C       -0.4850880     0.9739040    -0.0000120
  C        0.4405670    -0.0879150     0.0000040
  C       -1.8443600     0.6614770    -0.0000180
  C        0.0124250    -1.4183170     0.0000060
  C        0.0151430     2.3911510    -0.0000080
  C       -2.2900340    -0.6642210    -0.0000140
  C       -1.3585410    -1.6984920    -0.0000020
  C        2.7517206    -0.7411322     0.0000180
  H       -2.5677820     1.4752540    -0.0000300
  H        0.7228010    -2.2381660     0.0000160
  H       -0.8234040     3.0925880    -0.0001030
  H        0.6363730     2.5877470     0.8789620
  H        0.6365320     2.5876940    -0.8788760
  H       -3.3546920    -0.8829470    -0.0000210
  H       -1.6887710    -2.7346470     0.0000000
  H        2.6565620    -1.3539010    -0.8944310
  H        2.6565580    -1.3539040     0.8944650
  H        3.6991380    -0.2132700     0.0000220
units angstrom
no_reorient  #important for SAPT in psi4, default
symmetry c1  #important for SAPT in psi4, default
}

set PROPERTIES_ORIGIN ["COM"]
properties('MP2/aug-cc-pvtz', properties = ['dipole'])
--------------------------------------------------------------------------

    Molecular point group: c1
  Charge       = 0
  Multiplicity = 1
  Basis Set: AUG-CC-PVTZ
    Blend: AUG-CC-PVTZ
  Basis Set: (AUG-CC-PVTZ AUX)
    Blend: AUG-CC-PVTZ-JKFIT

    Orbital Energies [Eh]
    ---------------------

    Doubly Occupied:

       1A    -20.582486     2A    -11.294333     3A    -11.284526
       4A    -11.234335     5A    -11.233176     6A    -11.231309
       7A    -11.229680     8A    -11.223799     9A    -11.215480
      10A     -1.397708    11A     -1.144369    12A     -1.043944
      13A     -1.008048    14A     -0.949539    15A     -0.920938
      16A     -0.812367    17A     -0.795820    18A     -0.706823
      19A     -0.664980    20A     -0.652508    21A     -0.644745
      22A     -0.613766    23A     -0.578872    24A     -0.568626
      25A     -0.562902    26A     -0.538300    27A     -0.523590
      28A     -0.511123    29A     -0.496017    30A     -0.474648
      31A     -0.464566    32A     -0.330637    33A     -0.304330

  @DF-RHF Final Energy:  -383.75231249159225

   => Energetics <=

    Nuclear Repulsion Energy =            429.7285591011597035
    One-Electron Energy =               -1372.4851635308316418
    Two-Electron Energy =                 559.0042919380797457
    Total Energy =                       -383.7523124915921926
  Basis Set: (AUG-CC-PVTZ AUX)
    Blend: AUG-CC-PVTZ-RI
    Molecular point group: c1

    Geometry (in Angstrom), charge = 0, multiplicity = 1:

       Center              X                  Y                   Z               Mass
    ------------   -----------------  -----------------  -----------------  -----------------
         O            1.776925438262     0.315269376789     0.000018164330    15.994914619570
         C           -0.465453561738     0.983197376789    -0.000011835670    12.000000000000
         C            0.460201438262    -0.078621623211     0.000004164330    12.000000000000
         C           -1.824725561738     0.670770376789    -0.000017835670    12.000000000000
         C            0.032059438262    -1.409023623211     0.000006164330    12.000000000000
         C            0.034777438262     2.400444376789    -0.000007835670    12.000000000000
         C           -2.270399561738    -0.654927623211    -0.000013835670    12.000000000000
         C           -1.338906561738    -1.689198623211    -0.000001835670    12.000000000000
         C            2.771355038262    -0.731838823211     0.000018164330    12.000000000000
         H           -2.548147561738     1.484547376789    -0.000029835670     1.007825032230
         H            0.742435438262    -2.228872623211     0.000016164330     1.007825032230
         H           -0.803769561738     3.101881376789    -0.000102835670     1.007825032230
         H            0.656007438262     2.597040376789     0.878962164330     1.007825032230
         H            0.656166438262     2.596987376789    -0.878875835670     1.007825032230
         H           -3.335057561738    -0.873653623211    -0.000020835670     1.007825032230
         H           -1.669136561738    -2.725353623211     0.000000164330     1.007825032230
         H            2.676196438262    -1.344607623211    -0.894430835670     1.007825032230
         H            2.676192438262    -1.344610623211     0.894465164330     1.007825032230
         H            3.718772438262    -0.203976623211     0.000022164330     1.007825032230

  Basis Set: AUG-CC-PVTZ
    Blend: AUG-CC-PVTZ
  Basis Set: (AUG-CC-PVTZ AUX)
    Blend: AUG-CC-PVTZ-JKFIT
	 Reference Energy          =    -383.7523124915922494 [Eh]
	 Singles Energy            =      -0.0000000000000000 [Eh]
	 Same-Spin Energy          =      -0.4108885661010229 [Eh]
	 Opposite-Spin Energy      =      -1.3184884346166290 [Eh]
	 Correlation Energy        =      -1.7293770007176519 [Eh]
	 Total Energy              =    -385.4816894923098971 [Eh]

	 ================> DF-SCS-MP2 Energies <==================
	-----------------------------------------------------------
	 SCS Same-Spin Scale       =       0.3333333333333333 [-]
	 SCS Opposite-Spin Scale   =       1.2000000000000000 [-]
	 SCS Same-Spin Energy      =      -0.1369628553670076 [Eh]
	 SCS Opposite-Spin Energy  =      -1.5821861215399549 [Eh]
	 SCS Correlation Energy    =      -1.7191489769069626 [Eh]
	 SCS Total Energy          =    -385.4714614684992284 [Eh]
	-----------------------------------------------------------

  Dipole Moment: [D]
     X:     1.0618      Y:    -0.7789      Z:     0.0000     Total:     1.3169

*** Psi4 exiting successfully. Buy a developer a beer!
