                               Psi4 1.4a3.dev225

  ==> Input File <==

--------------------------------------------------------------------------
#psi4
#
memory 32 gb

molecule  {
0 1
  O        1.7572910     0.3059760     0.0000180
  C       -0.4850880     0.9739040    -0.0000120
  C        0.4405670    -0.0879150     0.0000040
  C       -1.8443600     0.6614770    -0.0000180
  C        0.0124250    -1.4183170     0.0000060
  C        0.0151430     2.3911510    -0.0000080
  C       -2.2900340    -0.6642210    -0.0000140
  C       -1.3585410    -1.6984920    -0.0000020
  C        2.6002216    -0.5816078     0.0000180
  H       -2.5677820     1.4752540    -0.0000300
  H        0.7228010    -2.2381660     0.0000160
  H       -0.8234040     3.0925880    -0.0001030
  H        0.6363730     2.5877470     0.8789620
  H        0.6365320     2.5876940    -0.8788760
  H       -3.3546920    -0.8829470    -0.0000210
  H       -1.6887710    -2.7346470     0.0000000
  H        2.6565620    -1.3539010    -0.8944310
  H        2.6565580    -1.3539040     0.8944650
  H        3.6991380    -0.2132700     0.0000220
units angstrom
no_reorient  #important for SAPT in psi4, default
symmetry c1  #important for SAPT in psi4, default
}

set PROPERTIES_ORIGIN ["COM"]
properties('MP2/aug-cc-pvtz', properties = ['dipole'])
--------------------------------------------------------------------------

    Molecular point group: c1
  Charge       = 0
  Multiplicity = 1
  Basis Set: AUG-CC-PVTZ
    Blend: AUG-CC-PVTZ
  Basis Set: (AUG-CC-PVTZ AUX)
    Blend: AUG-CC-PVTZ-JKFIT

    Orbital Energies [Eh]
    ---------------------

    Doubly Occupied:

       1A    -20.600143     2A    -11.304000     3A    -11.290532
       4A    -11.243439     5A    -11.240004     6A    -11.238569
       7A    -11.237524     8A    -11.232749     9A    -11.222918
      10A     -1.491267    11A     -1.157711    12A     -1.054458
      13A     -1.024951    14A     -0.947076    15A     -0.919801
      16A     -0.814492    17A     -0.807506    18A     -0.735168
      19A     -0.696847    20A     -0.684669    21A     -0.659941
      22A     -0.616170    23A     -0.607008    24A     -0.571934
      25A     -0.571132    26A     -0.545792    27A     -0.509698
      28A     -0.495367    29A     -0.494161    30A     -0.459515
      31A     -0.436812    32A     -0.337381    33A     -0.315150

  @DF-RHF Final Energy:  -383.70986124874781

   => Energetics <=

    Nuclear Repulsion Energy =            434.2849648054801719
    One-Electron Energy =               -1380.8618818785057556
    Two-Electron Energy =                 562.8670558242778270
    Total Energy =                       -383.7098612487477567
  Basis Set: (AUG-CC-PVTZ AUX)
    Blend: AUG-CC-PVTZ-RI
    Molecular point group: c1

    Geometry (in Angstrom), charge = 0, multiplicity = 1:

       Center              X                  Y                   Z               Mass
    ------------   -----------------  -----------------  -----------------  -----------------
         O            1.791818047959     0.299587856605     0.000018164330    15.994914619570
         C           -0.450560952041     0.967515856605    -0.000011835670    12.000000000000
         C            0.475094047959    -0.094303143395     0.000004164330    12.000000000000
         C           -1.809832952041     0.655088856605    -0.000017835670    12.000000000000
         C            0.046952047959    -1.424705143395     0.000006164330    12.000000000000
         C            0.049670047959     2.384762856605    -0.000007835670    12.000000000000
         C           -2.255506952041    -0.670609143395    -0.000013835670    12.000000000000
         C           -1.324013952041    -1.704880143395    -0.000001835670    12.000000000000
         C            2.634748647959    -0.587995943395     0.000018164330    12.000000000000
         H           -2.533254952041     1.468865856605    -0.000029835670     1.007825032230
         H            0.757328047959    -2.244554143395     0.000016164330     1.007825032230
         H           -0.788876952041     3.086199856605    -0.000102835670     1.007825032230
         H            0.670900047959     2.581358856605     0.878962164330     1.007825032230
         H            0.671059047959     2.581305856605    -0.878875835670     1.007825032230
         H           -3.320164952041    -0.889335143395    -0.000020835670     1.007825032230
         H           -1.654243952041    -2.741035143395     0.000000164330     1.007825032230
         H            2.691089047959    -1.360289143395    -0.894430835670     1.007825032230
         H            2.691085047959    -1.360292143395     0.894465164330     1.007825032230
         H            3.733665047959    -0.219658143395     0.000022164330     1.007825032230

  Basis Set: AUG-CC-PVTZ
    Blend: AUG-CC-PVTZ
  Basis Set: (AUG-CC-PVTZ AUX)
    Blend: AUG-CC-PVTZ-JKFIT
	 Reference Energy          =    -383.7098612487478135 [Eh]
	 Singles Energy            =      -0.0000000000000000 [Eh]
	 Same-Spin Energy          =      -0.4119584403827986 [Eh]
	 Opposite-Spin Energy      =      -1.3176001775392545 [Eh]
	 Correlation Energy        =      -1.7295586179220530 [Eh]
	 Total Energy              =    -385.4394198666698799 [Eh]

	 ================> DF-SCS-MP2 Energies <==================
	-----------------------------------------------------------
	 SCS Same-Spin Scale       =       0.3333333333333333 [-]
	 SCS Opposite-Spin Scale   =       1.2000000000000000 [-]
	 SCS Same-Spin Energy      =      -0.1373194801275995 [Eh]
	 SCS Opposite-Spin Energy  =      -1.5811202130471054 [Eh]
	 SCS Correlation Energy    =      -1.7184396931747048 [Eh]
	 SCS Total Energy          =    -385.4283009419225436 [Eh]
	-----------------------------------------------------------

  Dipole Moment: [D]
     X:    -0.0538      Y:    -0.1799      Z:     0.0000     Total:     0.1878

*** Psi4 exiting successfully. Buy a developer a beer!
