                               Psi4 1.4a3.dev225

  ==> Input File <==

--------------------------------------------------------------------------
#psi4
#
memory 32 gb

molecule  {
0 1
  O        1.7572910     0.3059760     0.0000180
  C       -0.4850880     0.9739040    -0.0000120
  C        0.4405670    -0.0879150     0.0000040
  C       -1.8443600     0.6614770    -0.0000180
  C        0.0342010    -1.5631568     0.0000067
  C        0.0151430     2.3911510    -0.0000080
  C       -2.2900340    -0.6642210    -0.0000140
  C       -1.3585410    -1.6984920    -0.0000020
  C        2.7379480    -0.7266300     0.0000180
  H       -2.5677820     1.4752540    -0.0000300
  H        0.7228010    -2.2381660     0.0000160
  H       -0.8234040     3.0925880    -0.0001030
  H        0.6363730     2.5877470     0.8789620
  H        0.6365320     2.5876940    -0.8788760
  H       -3.3546920    -0.8829470    -0.0000210
  H       -1.6887710    -2.7346470     0.0000000
  H        2.6565620    -1.3539010    -0.8944310
  H        2.6565580    -1.3539040     0.8944650
  H        3.6991380    -0.2132700     0.0000220
units angstrom
no_reorient  #important for SAPT in psi4, default
symmetry c1  #important for SAPT in psi4, default
}

set PROPERTIES_ORIGIN ["COM"]
properties('MP2/aug-cc-pvtz', properties = ['dipole'])
--------------------------------------------------------------------------

    Molecular point group: c1
  Charge       = 0
  Multiplicity = 1
  Basis Set: AUG-CC-PVTZ
    Blend: AUG-CC-PVTZ
  Basis Set: (AUG-CC-PVTZ AUX)
    Blend: AUG-CC-PVTZ-JKFIT

    Orbital Energies [Eh]
    ---------------------

    Doubly Occupied:

       1A    -20.586151     2A    -11.309432     3A    -11.286186
       4A    -11.238145     5A    -11.236669     6A    -11.234852
       7A    -11.231526     8A    -11.223538     9A    -11.216169
      10A     -1.404709    11A     -1.137054    12A     -1.046298
      13A     -1.002249    14A     -0.952050    15A     -0.915629
      16A     -0.824846    17A     -0.791658    18A     -0.702677
      19A     -0.675918    20A     -0.658587    21A     -0.653489
      22A     -0.614452    23A     -0.584147    24A     -0.567732
      25A     -0.562968    26A     -0.540975    27A     -0.521747
      28A     -0.506054    29A     -0.505111    30A     -0.463169
      31A     -0.461777    32A     -0.332318    33A     -0.296653

  @DF-RHF Final Energy:  -383.72323840982915

   => Energetics <=

    Nuclear Repulsion Energy =            427.6952716564132970
    One-Electron Energy =               -1368.2671481137231240
    Two-Electron Energy =                 556.8486380474806765
    Total Energy =                       -383.7232384098291504
  Basis Set: (AUG-CC-PVTZ AUX)
    Blend: AUG-CC-PVTZ-RI
    Molecular point group: c1

    Geometry (in Angstrom), charge = 0, multiplicity = 1:

       Center              X                  Y                   Z               Mass
    ------------   -----------------  -----------------  -----------------  -----------------
         O            1.776138690412     0.328081784829     0.000018095518    15.994914619570
         C           -0.466240309588     0.996009784829    -0.000011904482    12.000000000000
         C            0.459414690412    -0.065809215171     0.000004095518    12.000000000000
         C           -1.825512309588     0.683582784829    -0.000017904482    12.000000000000
         C            0.053048690412    -1.541051015171     0.000006795518    12.000000000000
         C            0.033990690412     2.413256784829    -0.000007904482    12.000000000000
         C           -2.271186309588    -0.642115215171    -0.000013904482    12.000000000000
         C           -1.339693309588    -1.676386215171    -0.000001904482    12.000000000000
         C            2.756795690412    -0.704524215171     0.000018095518    12.000000000000
         H           -2.548934309588     1.497359784829    -0.000029904482     1.007825032230
         H            0.741648690412    -2.216060215171     0.000016095518     1.007825032230
         H           -0.804556309588     3.114693784829    -0.000102904482     1.007825032230
         H            0.655220690412     2.609852784829     0.878962095518     1.007825032230
         H            0.655379690412     2.609799784829    -0.878875904482     1.007825032230
         H           -3.335844309588    -0.860841215171    -0.000020904482     1.007825032230
         H           -1.669923309588    -2.712541215171     0.000000095518     1.007825032230
         H            2.675409690412    -1.331795215171    -0.894430904482     1.007825032230
         H            2.675405690412    -1.331798215171     0.894465095518     1.007825032230
         H            3.717985690412    -0.191164215171     0.000022095518     1.007825032230

  Basis Set: AUG-CC-PVTZ
    Blend: AUG-CC-PVTZ
  Basis Set: (AUG-CC-PVTZ AUX)
    Blend: AUG-CC-PVTZ-JKFIT
	 Reference Energy          =    -383.7232384098291504 [Eh]
	 Singles Energy            =      -0.0000000000000000 [Eh]
	 Same-Spin Energy          =      -0.4112245267174628 [Eh]
	 Opposite-Spin Energy      =      -1.3203394571864440 [Eh]
	 Correlation Energy        =      -1.7315639839039068 [Eh]
	 Total Energy              =    -385.4548023937330754 [Eh]

	 ================> DF-SCS-MP2 Energies <==================
	-----------------------------------------------------------
	 SCS Same-Spin Scale       =       0.3333333333333333 [-]
	 SCS Opposite-Spin Scale   =       1.2000000000000000 [-]
	 SCS Same-Spin Energy      =      -0.1370748422391543 [Eh]
	 SCS Opposite-Spin Energy  =      -1.5844073486237327 [Eh]
	 SCS Correlation Energy    =      -1.7214821908628870 [Eh]
	 SCS Total Energy          =    -385.4447206006920510 [Eh]
	-----------------------------------------------------------

  Dipole Moment: [D]
     X:     1.0890      Y:    -0.6595      Z:     0.0000     Total:     1.2731

*** Psi4 exiting successfully. Buy a developer a beer!
