                               Psi4 1.4a3.dev225

  ==> Input File <==

--------------------------------------------------------------------------
#psi4
#
memory 32 gb

molecule  {
0 1
  O        1.7089050     0.4414534     0.0000167
  C       -0.4850880     0.9739040    -0.0000120
  C        0.4405670    -0.0879150     0.0000040
  C       -1.8443600     0.6614770    -0.0000180
  C        0.0124250    -1.4183170     0.0000060
  C        0.0151430     2.3911510    -0.0000080
  C       -2.2900340    -0.6642210    -0.0000140
  C       -1.3585410    -1.6984920    -0.0000020
  C        2.7379480    -0.7266300     0.0000180
  H       -2.5677820     1.4752540    -0.0000300
  H        0.7228010    -2.2381660     0.0000160
  H       -0.8234040     3.0925880    -0.0001030
  H        0.6363730     2.5877470     0.8789620
  H        0.6365320     2.5876940    -0.8788760
  H       -3.3546920    -0.8829470    -0.0000210
  H       -1.6887710    -2.7346470     0.0000000
  H        2.6565620    -1.3539010    -0.8944310
  H        2.6565580    -1.3539040     0.8944650
  H        3.6991380    -0.2132700     0.0000220
units angstrom
no_reorient  #important for SAPT in psi4, default
symmetry c1  #important for SAPT in psi4, default
}

set PROPERTIES_ORIGIN ["COM"]
properties('MP2/aug-cc-pvtz', properties = ['dipole'])
--------------------------------------------------------------------------

    Molecular point group: c1
  Charge       = 0
  Multiplicity = 1
  Basis Set: AUG-CC-PVTZ
    Blend: AUG-CC-PVTZ
  Basis Set: (AUG-CC-PVTZ AUX)
    Blend: AUG-CC-PVTZ-JKFIT

    Orbital Energies [Eh]
    ---------------------

    Doubly Occupied:

       1A    -20.590214     2A    -11.297309     3A    -11.291160
       4A    -11.233800     5A    -11.230831     6A    -11.228723
       7A    -11.227405     8A    -11.222017     9A    -11.212259
      10A     -1.379783    11A     -1.139889    12A     -1.041360
      13A     -1.000214    14A     -0.949551    15A     -0.921720
      16A     -0.811424    17A     -0.792043    18A     -0.699798
      19A     -0.660002    20A     -0.638878    21A     -0.638551
      22A     -0.611610    23A     -0.567806    24A     -0.566186
      25A     -0.553158    26A     -0.542241    27A     -0.528279
      28A     -0.516388    29A     -0.491561    30A     -0.474496
      31A     -0.467276    32A     -0.329536    33A     -0.302132

  @DF-RHF Final Energy:  -383.73218912080489

   => Energetics <=

    Nuclear Repulsion Energy =            429.1066082577638099
    One-Electron Energy =               -1371.3623954199299533
    Two-Electron Energy =                 558.5235980413613106
    Total Energy =                       -383.7321891208048328
  Basis Set: (AUG-CC-PVTZ AUX)
    Blend: AUG-CC-PVTZ-RI
    Molecular point group: c1

    Geometry (in Angstrom), charge = 0, multiplicity = 1:

       Center              X                  Y                   Z               Mass
    ------------   -----------------  -----------------  -----------------  -----------------
         O            1.736233194209     0.431569950768     0.000017034665    15.994914619570
         C           -0.457759805791     0.964020550768    -0.000011665335    12.000000000000
         C            0.467895194209    -0.097798449232     0.000004334665    12.000000000000
         C           -1.817031805791     0.651593550768    -0.000017665335    12.000000000000
         C            0.039753194209    -1.428200449232     0.000006334665    12.000000000000
         C            0.042471194209     2.381267550768    -0.000007665335    12.000000000000
         C           -2.262705805791    -0.674104449232    -0.000013665335    12.000000000000
         C           -1.331212805791    -1.708375449232    -0.000001665335    12.000000000000
         C            2.765276194209    -0.736513449232     0.000018334665    12.000000000000
         H           -2.540453805791     1.465370550768    -0.000029665335     1.007825032230
         H            0.750129194209    -2.248049449232     0.000016334665     1.007825032230
         H           -0.796075805791     3.082704550768    -0.000102665335     1.007825032230
         H            0.663701194209     2.577863550768     0.878962334665     1.007825032230
         H            0.663860194209     2.577810550768    -0.878875665335     1.007825032230
         H           -3.327363805791    -0.892830449232    -0.000020665335     1.007825032230
         H           -1.661442805791    -2.744530449232     0.000000334665     1.007825032230
         H            2.683890194209    -1.363784449232    -0.894430665335     1.007825032230
         H            2.683886194209    -1.363787449232     0.894465334665     1.007825032230
         H            3.726466194209    -0.223153449232     0.000022334665     1.007825032230

  Basis Set: AUG-CC-PVTZ
    Blend: AUG-CC-PVTZ
  Basis Set: (AUG-CC-PVTZ AUX)
    Blend: AUG-CC-PVTZ-JKFIT
	 Reference Energy          =    -383.7321891208048896 [Eh]
	 Singles Energy            =      -0.0000000000000000 [Eh]
	 Same-Spin Energy          =      -0.4126536037470012 [Eh]
	 Opposite-Spin Energy      =      -1.3237580349118616 [Eh]
	 Correlation Energy        =      -1.7364116386588628 [Eh]
	 Total Energy              =    -385.4686007594637545 [Eh]

	 ================> DF-SCS-MP2 Energies <==================
	-----------------------------------------------------------
	 SCS Same-Spin Scale       =       0.3333333333333333 [-]
	 SCS Opposite-Spin Scale   =       1.2000000000000000 [-]
	 SCS Same-Spin Energy      =      -0.1375512012490004 [Eh]
	 SCS Opposite-Spin Energy  =      -1.5885096418942339 [Eh]
	 SCS Correlation Energy    =      -1.7260608431432343 [Eh]
	 SCS Total Energy          =    -385.4582499639481057 [Eh]
	-----------------------------------------------------------

  Dipole Moment: [D]
     X:     1.3130      Y:    -1.0250      Z:     0.0000     Total:     1.6657

*** Psi4 exiting successfully. Buy a developer a beer!
