                               Psi4 1.4a3.dev225

  ==> Input File <==

--------------------------------------------------------------------------
#psi4
#
memory 32 gb

molecule  {
0 1
  O        1.7427423     0.3516891     0.0000176
  C       -0.4850880     0.9739040    -0.0000120
  C        0.4405670    -0.0879150     0.0000040
  C       -1.8443600     0.6614770    -0.0000180
  C        0.0124250    -1.4183170     0.0000060
  C        0.0151430     2.3911510    -0.0000080
  C       -2.2900340    -0.6642210    -0.0000140
  C       -1.3585410    -1.6984920    -0.0000020
  C        2.7379480    -0.7266300     0.0000180
  H       -2.5677820     1.4752540    -0.0000300
  H        0.7228010    -2.2381660     0.0000160
  H       -0.8234040     3.0925880    -0.0001030
  H        0.6363730     2.5877470     0.8789620
  H        0.6365320     2.5876940    -0.8788760
  H       -3.3546920    -0.8829470    -0.0000210
  H       -1.6887710    -2.7346470     0.0000000
  H        2.6565620    -1.3539010    -0.8944310
  H        2.6565580    -1.3539040     0.8944650
  H        3.6991380    -0.2132700     0.0000220
units angstrom
no_reorient  #important for SAPT in psi4, default
symmetry c1  #important for SAPT in psi4, default
}

set PROPERTIES_ORIGIN ["COM"]
properties('MP2/aug-cc-pvtz', properties = ['dipole'])
--------------------------------------------------------------------------

    Molecular point group: c1
  Charge       = 0
  Multiplicity = 1
  Basis Set: AUG-CC-PVTZ
    Blend: AUG-CC-PVTZ
  Basis Set: (AUG-CC-PVTZ AUX)
    Blend: AUG-CC-PVTZ-JKFIT

    Orbital Energies [Eh]
    ---------------------

    Doubly Occupied:

       1A    -20.586440     2A    -11.293550     3A    -11.288539
       4A    -11.234431     5A    -11.231987     6A    -11.230494
       7A    -11.230452     8A    -11.223615     9A    -11.214765
      10A     -1.394776    11A     -1.143437    12A     -1.043546
      13A     -1.005856    14A     -0.948365    15A     -0.921467
      16A     -0.812126    17A     -0.795274    18A     -0.705683
      19A     -0.664260    20A     -0.647895    21A     -0.643535
      22A     -0.612676    23A     -0.574279    24A     -0.567836
      25A     -0.561248    26A     -0.538842    27A     -0.525980
      28A     -0.511631    29A     -0.494798    30A     -0.476295
      31A     -0.465785    32A     -0.330584    33A     -0.304213

  @DF-RHF Final Energy:  -383.74896567353812

   => Energetics <=

    Nuclear Repulsion Energy =            429.7222960640676774
    One-Electron Energy =               -1372.4932091530185971
    Two-Electron Energy =                 559.0219474154127965
    Total Energy =                       -383.7489656735381232
  Basis Set: (AUG-CC-PVTZ AUX)
    Blend: AUG-CC-PVTZ-RI
    Molecular point group: c1

    Geometry (in Angstrom), charge = 0, multiplicity = 1:

       Center              X                  Y                   Z               Mass
    ------------   -----------------  -----------------  -----------------  -----------------
         O            1.765636884867     0.353567222733     0.000017816741    15.994914619570
         C           -0.462193415133     0.975782122733    -0.000011783259    12.000000000000
         C            0.463461584867    -0.086036877267     0.000004216741    12.000000000000
         C           -1.821465415133     0.663355122733    -0.000017783259    12.000000000000
         C            0.035319584867    -1.416438877267     0.000006216741    12.000000000000
         C            0.038037584867     2.393029122733    -0.000007783259    12.000000000000
         C           -2.267139415133    -0.662342877267    -0.000013783259    12.000000000000
         C           -1.335646415133    -1.696613877267    -0.000001783259    12.000000000000
         C            2.760842584867    -0.724751877267     0.000018216741    12.000000000000
         H           -2.544887415133     1.477132122733    -0.000029783259     1.007825032230
         H            0.745695584867    -2.236287877267     0.000016216741     1.007825032230
         H           -0.800509415133     3.094466122733    -0.000102783259     1.007825032230
         H            0.659267584867     2.589625122733     0.878962216741     1.007825032230
         H            0.659426584867     2.589572122733    -0.878875783259     1.007825032230
         H           -3.331797415133    -0.881068877267    -0.000020783259     1.007825032230
         H           -1.665876415133    -2.732768877267     0.000000216741     1.007825032230
         H            2.679456584867    -1.352022877267    -0.894430783259     1.007825032230
         H            2.679452584867    -1.352025877267     0.894465216741     1.007825032230
         H            3.722032584867    -0.211391877267     0.000022216741     1.007825032230

  Basis Set: AUG-CC-PVTZ
    Blend: AUG-CC-PVTZ
  Basis Set: (AUG-CC-PVTZ AUX)
    Blend: AUG-CC-PVTZ-JKFIT
	 Reference Energy          =    -383.7489656735381232 [Eh]
	 Singles Energy            =      -0.0000000000000000 [Eh]
	 Same-Spin Energy          =      -0.4113427596882357 [Eh]
	 Opposite-Spin Energy      =      -1.3198100017137411 [Eh]
	 Correlation Energy        =      -1.7311527614019768 [Eh]
	 Total Energy              =    -385.4801184349400955 [Eh]

	 ================> DF-SCS-MP2 Energies <==================
	-----------------------------------------------------------
	 SCS Same-Spin Scale       =       0.3333333333333333 [-]
	 SCS Opposite-Spin Scale   =       1.2000000000000000 [-]
	 SCS Same-Spin Energy      =      -0.1371142532294119 [Eh]
	 SCS Opposite-Spin Energy  =      -1.5837720020564892 [Eh]
	 SCS Correlation Energy    =      -1.7208862552859010 [Eh]
	 SCS Total Energy          =    -385.4698519288240277 [Eh]
	-----------------------------------------------------------

  Dipole Moment: [D]
     X:     1.1006      Y:    -0.8429      Z:     0.0000     Total:     1.3863

*** Psi4 exiting successfully. Buy a developer a beer!
