                               Psi4 1.4a3.dev225

  ==> Input File <==

--------------------------------------------------------------------------
#psi4
#
memory 32 gb

molecule  {
0 1
  O        1.7572910     0.3059760     0.0000180
  C       -0.4850880     0.9739040    -0.0000120
  C        0.4405670    -0.0879150     0.0000040
  C       -1.8443600     0.6614770    -0.0000180
  C        0.0124250    -1.4183170     0.0000060
  C        0.0151430     2.3911510    -0.0000080
  C       -2.2900340    -0.6642210    -0.0000140
  C       -1.3585410    -1.6984920    -0.0000020
  C        2.7379480    -0.7266300     0.0000180
  H       -2.5677820     1.4752540    -0.0000300
  H        0.7228010    -2.2381660     0.0000160
  H       -0.8234040     3.0925880    -0.0001030
  H        0.6363730     2.5877470     0.8789620
  H        0.6365320     2.5876940    -0.8788760
  H       -3.3546920    -0.8829470    -0.0000210
  H       -1.7191368    -2.8299251     0.0000002
  H        2.6565620    -1.3539010    -0.8944310
  H        2.6565580    -1.3539040     0.8944650
  H        3.6991380    -0.2132700     0.0000220
units angstrom
no_reorient  #important for SAPT in psi4, default
symmetry c1  #important for SAPT in psi4, default
}

set PROPERTIES_ORIGIN ["COM"]
properties('MP2/aug-cc-pvtz', properties = ['dipole'])
--------------------------------------------------------------------------

    Molecular point group: c1
  Charge       = 0
  Multiplicity = 1
  Basis Set: AUG-CC-PVTZ
    Blend: AUG-CC-PVTZ
  Basis Set: (AUG-CC-PVTZ AUX)
    Blend: AUG-CC-PVTZ-JKFIT

    Orbital Energies [Eh]
    ---------------------

    Doubly Occupied:

       1A    -20.584530     2A    -11.295857     3A    -11.284562
       4A    -11.246104     5A    -11.234440     6A    -11.232582
       7A    -11.231505     8A    -11.225576     9A    -11.216388
      10A     -1.404453    11A     -1.145643    12A     -1.043506
      13A     -1.009951    14A     -0.948738    15A     -0.918668
      16A     -0.812700    17A     -0.793991    18A     -0.703194
      19A     -0.667175    20A     -0.653901    21A     -0.646484
      22A     -0.611172    23A     -0.577917    24A     -0.568780
      25A     -0.555713    26A     -0.539372    27A     -0.521714
      28A     -0.509413    29A     -0.497135    30A     -0.471825
      31A     -0.464994    32A     -0.331817    33A     -0.305850

  @DF-RHF Final Energy:  -383.74565887060294

   => Energetics <=

    Nuclear Repulsion Energy =            429.6220424849403798
    One-Electron Energy =               -1372.2241056975954052
    Two-Electron Energy =                 558.8564043420520875
    Total Energy =                       -383.7456588706029379
  Basis Set: (AUG-CC-PVTZ AUX)
    Blend: AUG-CC-PVTZ-RI
    Molecular point group: c1

    Geometry (in Angstrom), charge = 0, multiplicity = 1:

       Center              X                  Y                   Z               Mass
    ------------   -----------------  -----------------  -----------------  -----------------
         O            1.778530005600     0.314630393227     0.000018162678    15.994914619570
         C           -0.463848994400     0.982558393227    -0.000011837322    12.000000000000
         C            0.461806005600    -0.079260606773     0.000004162678    12.000000000000
         C           -1.823120994400     0.670131393227    -0.000017837322    12.000000000000
         C            0.033664005600    -1.409662606773     0.000006162678    12.000000000000
         C            0.036382005600     2.399805393227    -0.000007837322    12.000000000000
         C           -2.268794994400    -0.655566606773    -0.000013837322    12.000000000000
         C           -1.337301994400    -1.689837606773    -0.000001837322    12.000000000000
         C            2.759187005600    -0.717975606773     0.000018162678    12.000000000000
         H           -2.546542994400     1.483908393227    -0.000029837322     1.007825032230
         H            0.744040005600    -2.229511606773     0.000016162678     1.007825032230
         H           -0.802164994400     3.101242393227    -0.000102837322     1.007825032230
         H            0.657612005600     2.596401393227     0.878962162678     1.007825032230
         H            0.657771005600     2.596348393227    -0.878875837322     1.007825032230
         H           -3.333452994400    -0.874292606773    -0.000020837322     1.007825032230
         H           -1.697897794400    -2.821270706773     0.000000362678     1.007825032230
         H            2.677801005600    -1.345246606773    -0.894430837322     1.007825032230
         H            2.677797005600    -1.345249606773     0.894465162678     1.007825032230
         H            3.720377005600    -0.204615606773     0.000022162678     1.007825032230

  Basis Set: AUG-CC-PVTZ
    Blend: AUG-CC-PVTZ
  Basis Set: (AUG-CC-PVTZ AUX)
    Blend: AUG-CC-PVTZ-JKFIT
	 Reference Energy          =    -383.7456588706029379 [Eh]
	 Singles Energy            =      -0.0000000000000000 [Eh]
	 Same-Spin Energy          =      -0.4110724335011089 [Eh]
	 Opposite-Spin Energy      =      -1.3191115383433054 [Eh]
	 Correlation Energy        =      -1.7301839718444143 [Eh]
	 Total Energy              =    -385.4758428424473777 [Eh]

	 ================> DF-SCS-MP2 Energies <==================
	-----------------------------------------------------------
	 SCS Same-Spin Scale       =       0.3333333333333333 [-]
	 SCS Opposite-Spin Scale   =       1.2000000000000000 [-]
	 SCS Same-Spin Energy      =      -0.1370241445003696 [Eh]
	 SCS Opposite-Spin Energy  =      -1.5829338460119664 [Eh]
	 SCS Correlation Energy    =      -1.7199579905123361 [Eh]
	 SCS Total Energy          =    -385.4656168611152793 [Eh]
	-----------------------------------------------------------

  Dipole Moment: [D]
     X:     1.0033      Y:    -0.6869      Z:     0.0000     Total:     1.2159

*** Psi4 exiting successfully. Buy a developer a beer!
