                               Psi4 1.4a3.dev225

  ==> Input File <==

--------------------------------------------------------------------------
#psi4
#
memory 32 gb

molecule  {
0 1
  O        1.7572910     0.3059760     0.0000180
  C       -0.4850880     0.9739040    -0.0000120
  C        0.4405670    -0.0879150     0.0000040
  C       -1.8443600     0.6614770    -0.0000180
  C        0.0124250    -1.4183170     0.0000060
  C        0.0151430     2.3911510    -0.0000080
  C       -2.2900340    -0.6642210    -0.0000140
  C       -1.3356574    -1.7934433    -0.0000013
  C        2.7379480    -0.7266300     0.0000180
  H       -2.5677820     1.4752540    -0.0000300
  H        0.7228010    -2.2381660     0.0000160
  H       -0.8234040     3.0925880    -0.0001030
  H        0.6363730     2.5877470     0.8789620
  H        0.6365320     2.5876940    -0.8788760
  H       -3.3546920    -0.8829470    -0.0000210
  H       -1.6887710    -2.7346470     0.0000000
  H        2.6565620    -1.3539010    -0.8944310
  H        2.6565580    -1.3539040     0.8944650
  H        3.6991380    -0.2132700     0.0000220
units angstrom
no_reorient  #important for SAPT in psi4, default
symmetry c1  #important for SAPT in psi4, default
}

set PROPERTIES_ORIGIN ["COM"]
properties('MP2/aug-cc-pvtz', properties = ['dipole'])
--------------------------------------------------------------------------

    Molecular point group: c1
  Charge       = 0
  Multiplicity = 1
  Basis Set: AUG-CC-PVTZ
    Blend: AUG-CC-PVTZ
  Basis Set: (AUG-CC-PVTZ AUX)
    Blend: AUG-CC-PVTZ-JKFIT

    Orbital Energies [Eh]
    ---------------------

    Doubly Occupied:

       1A    -20.584055     2A    -11.294870     3A    -11.283921
       4A    -11.237877     5A    -11.235070     6A    -11.234067
       7A    -11.233297     8A    -11.231761     9A    -11.216466
      10A     -1.403848    11A     -1.138932    12A     -1.042840
      13A     -1.005721    14A     -0.948478    15A     -0.921374
      16A     -0.810809    17A     -0.801229    18A     -0.715245
      19A     -0.666157    20A     -0.653391    21A     -0.641817
      22A     -0.618469    23A     -0.589117    24A     -0.568405
      25A     -0.568096    26A     -0.533658    27A     -0.522523
      28A     -0.507827    29A     -0.493362    30A     -0.474128
      31A     -0.458609    32A     -0.334675    33A     -0.297548

  @DF-RHF Final Energy:  -383.73898611512789

   => Energetics <=

    Nuclear Repulsion Energy =            428.6773155794380727
    One-Electron Energy =               -1370.2973225873940919
    Two-Electron Energy =                 557.8810208928281327
    Total Energy =                       -383.7389861151278865
  Basis Set: (AUG-CC-PVTZ AUX)
    Blend: AUG-CC-PVTZ-RI
    Molecular point group: c1

    Geometry (in Angstrom), charge = 0, multiplicity = 1:

       Center              X                  Y                   Z               Mass
    ------------   -----------------  -----------------  -----------------  -----------------
         O            1.776029811446     0.323177660321     0.000018095518    15.994914619570
         C           -0.466349188554     0.991105660321    -0.000011904482    12.000000000000
         C            0.459305811446    -0.070713339679     0.000004095518    12.000000000000
         C           -1.825621188554     0.678678660321    -0.000017904482    12.000000000000
         C            0.031163811446    -1.401115339679     0.000006095518    12.000000000000
         C            0.033881811446     2.408352660321    -0.000007904482    12.000000000000
         C           -2.271295188554    -0.647019339679    -0.000013904482    12.000000000000
         C           -1.316918588554    -1.776241639679    -0.000001204482    12.000000000000
         C            2.756686811446    -0.709428339679     0.000018095518    12.000000000000
         H           -2.549043188554     1.492455660321    -0.000029904482     1.007825032230
         H            0.741539811446    -2.220964339679     0.000016095518     1.007825032230
         H           -0.804665188554     3.109789660321    -0.000102904482     1.007825032230
         H            0.655111811446     2.604948660321     0.878962095518     1.007825032230
         H            0.655270811446     2.604895660321    -0.878875904482     1.007825032230
         H           -3.335953188554    -0.865745339679    -0.000020904482     1.007825032230
         H           -1.670032188554    -2.717445339679     0.000000095518     1.007825032230
         H            2.675300811446    -1.336699339679    -0.894430904482     1.007825032230
         H            2.675296811446    -1.336702339679     0.894465095518     1.007825032230
         H            3.717876811446    -0.196068339679     0.000022095518     1.007825032230

  Basis Set: AUG-CC-PVTZ
    Blend: AUG-CC-PVTZ
  Basis Set: (AUG-CC-PVTZ AUX)
    Blend: AUG-CC-PVTZ-JKFIT
	 Reference Energy          =    -383.7389861151278865 [Eh]
	 Singles Energy            =      -0.0000000000000000 [Eh]
	 Same-Spin Energy          =      -0.4112251730357581 [Eh]
	 Opposite-Spin Energy      =      -1.3195966276069517 [Eh]
	 Correlation Energy        =      -1.7308218006427099 [Eh]
	 Total Energy              =    -385.4698079157706161 [Eh]

	 ================> DF-SCS-MP2 Energies <==================
	-----------------------------------------------------------
	 SCS Same-Spin Scale       =       0.3333333333333333 [-]
	 SCS Opposite-Spin Scale   =       1.2000000000000000 [-]
	 SCS Same-Spin Energy      =      -0.1370750576785860 [Eh]
	 SCS Opposite-Spin Energy  =      -1.5835159531283420 [Eh]
	 SCS Correlation Energy    =      -1.7205910108069280 [Eh]
	 SCS Total Energy          =    -385.4595771259347998 [Eh]
	-----------------------------------------------------------

  Dipole Moment: [D]
     X:     0.9855      Y:    -0.7567      Z:     0.0000     Total:     1.2425

*** Psi4 exiting successfully. Buy a developer a beer!
