                               Psi4 1.4a3.dev225

  ==> Input File <==

--------------------------------------------------------------------------
#psi4
#
memory 32 gb

molecule  {
0 1
  O        1.7572910     0.3059760     0.0000180
  C       -0.4850880     0.9739040    -0.0000120
  C        0.4405670    -0.0879150     0.0000040
  C       -1.8443600     0.6614770    -0.0000180
  C        0.0124250    -1.4183170     0.0000060
  C       -0.0014988     2.3440018    -0.0000081
  C       -2.2900340    -0.6642210    -0.0000140
  C       -1.3585410    -1.6984920    -0.0000020
  C        2.7379480    -0.7266300     0.0000180
  H       -2.5677820     1.4752540    -0.0000300
  H        0.7228010    -2.2381660     0.0000160
  H       -0.8234040     3.0925880    -0.0001030
  H        0.6363730     2.5877470     0.8789620
  H        0.6365320     2.5876940    -0.8788760
  H       -3.3546920    -0.8829470    -0.0000210
  H       -1.6887710    -2.7346470     0.0000000
  H        2.6565620    -1.3539010    -0.8944310
  H        2.6565580    -1.3539040     0.8944650
  H        3.6991380    -0.2132700     0.0000220
units angstrom
no_reorient  #important for SAPT in psi4, default
symmetry c1  #important for SAPT in psi4, default
}

set PROPERTIES_ORIGIN ["COM"]
properties('MP2/aug-cc-pvtz', properties = ['dipole'])
--------------------------------------------------------------------------

    Molecular point group: c1
  Charge       = 0
  Multiplicity = 1
  Basis Set: AUG-CC-PVTZ
    Blend: AUG-CC-PVTZ
  Basis Set: (AUG-CC-PVTZ AUX)
    Blend: AUG-CC-PVTZ-JKFIT

    Orbital Energies [Eh]
    ---------------------

    Doubly Occupied:

       1A    -20.584360     2A    -11.295320     3A    -11.284453
       4A    -11.235005     5A    -11.232504     6A    -11.231132
       7A    -11.230594     8A    -11.224646     9A    -11.217577
      10A     -1.404360    11A     -1.147390    12A     -1.050184
      13A     -1.009589    14A     -0.949040    15A     -0.919719
      16A     -0.813107    17A     -0.796370    18A     -0.709478
      19A     -0.667919    20A     -0.653771    21A     -0.648888
      22A     -0.614400    23A     -0.581942    24A     -0.569606
      25A     -0.564882    26A     -0.533088    27A     -0.525457
      28A     -0.505588    29A     -0.492047    30A     -0.478923
      31A     -0.464065    32A     -0.330637    33A     -0.304733

  @DF-RHF Final Energy:  -383.74968998709147

   => Energetics <=

    Nuclear Repulsion Energy =            430.9937376250198326
    One-Electron Energy =               -1374.9453046549431292
    Two-Electron Energy =                 560.2018770428319385
    Total Energy =                       -383.7496899870914149
  Basis Set: (AUG-CC-PVTZ AUX)
    Blend: AUG-CC-PVTZ-RI
    Molecular point group: c1

    Geometry (in Angstrom), charge = 0, multiplicity = 1:

       Center              X                  Y                   Z               Mass
    ------------   -----------------  -----------------  -----------------  -----------------
         O            1.779915225576     0.318478632486     0.000018174160    15.994914619570
         C           -0.462463774424     0.986406632486    -0.000011825840    12.000000000000
         C            0.463191225576    -0.075412367514     0.000004174160    12.000000000000
         C           -1.821735774424     0.673979632486    -0.000017825840    12.000000000000
         C            0.035049225576    -1.405814367514     0.000006174160    12.000000000000
         C            0.021125425576     2.356504432486    -0.000007925840    12.000000000000
         C           -2.267409774424    -0.651718367514    -0.000013825840    12.000000000000
         C           -1.335916774424    -1.685989367514    -0.000001825840    12.000000000000
         C            2.760572225576    -0.714127367514     0.000018174160    12.000000000000
         H           -2.545157774424     1.487756632486    -0.000029825840     1.007825032230
         H            0.745425225576    -2.225663367514     0.000016174160     1.007825032230
         H           -0.800779774424     3.105090632486    -0.000102825840     1.007825032230
         H            0.658997225576     2.600249632486     0.878962174160     1.007825032230
         H            0.659156225576     2.600196632486    -0.878875825840     1.007825032230
         H           -3.332067774424    -0.870444367514    -0.000020825840     1.007825032230
         H           -1.666146774424    -2.722144367514     0.000000174160     1.007825032230
         H            2.679186225576    -1.341398367514    -0.894430825840     1.007825032230
         H            2.679182225576    -1.341401367514     0.894465174160     1.007825032230
         H            3.721762225576    -0.200767367514     0.000022174160     1.007825032230

  Basis Set: AUG-CC-PVTZ
    Blend: AUG-CC-PVTZ
  Basis Set: (AUG-CC-PVTZ AUX)
    Blend: AUG-CC-PVTZ-JKFIT
	 Reference Energy          =    -383.7496899870914717 [Eh]
	 Singles Energy            =      -0.0000000000000000 [Eh]
	 Same-Spin Energy          =      -0.4114390443956721 [Eh]
	 Opposite-Spin Energy      =      -1.3187914053738148 [Eh]
	 Correlation Energy        =      -1.7302304497694869 [Eh]
	 Total Energy              =    -385.4799204368609367 [Eh]

	 ================> DF-SCS-MP2 Energies <==================
	-----------------------------------------------------------
	 SCS Same-Spin Scale       =       0.3333333333333333 [-]
	 SCS Opposite-Spin Scale   =       1.2000000000000000 [-]
	 SCS Same-Spin Energy      =      -0.1371463481318907 [Eh]
	 SCS Opposite-Spin Energy  =      -1.5825496864485777 [Eh]
	 SCS Correlation Energy    =      -1.7196960345804684 [Eh]
	 SCS Total Energy          =    -385.4693860216719372 [Eh]
	-----------------------------------------------------------

  Dipole Moment: [D]
     X:     0.9923      Y:    -0.7411      Z:     0.0000     Total:     1.2385

*** Psi4 exiting successfully. Buy a developer a beer!
