                               Psi4 1.4a3.dev225

  ==> Input File <==

--------------------------------------------------------------------------
#psi4
#
memory 32 gb

molecule  {
0 1
  O        1.7572910     0.3059760     0.0000180
  C       -0.4850880     0.9739040    -0.0000120
  C        0.4405670    -0.0879150     0.0000040
  C       -1.8443600     0.6614770    -0.0000180
  C        0.0124250    -1.4183170     0.0000060
  C        0.0151430     2.3911510    -0.0000080
  C       -2.2900340    -0.6642210    -0.0000140
  C       -1.3585410    -1.6984920    -0.0000020
  C        2.7379480    -0.7266300     0.0000180
  H       -2.5677820     1.4752540    -0.0000300
  H        0.7228010    -2.2381660     0.0000160
  H       -0.8234040     3.0925880    -0.0001030
  H        0.6363730     2.5877470     0.8789620
  H        0.6365320     2.5876940    -0.8788760
  H       -3.3546920    -0.8829470    -0.0000210
  H       -1.6887710    -2.7346470     0.0000000
  H        2.6550762    -1.3653527    -0.9107604
  H        2.6565580    -1.3539040     0.8944650
  H        3.6991380    -0.2132700     0.0000220
units angstrom
no_reorient  #important for SAPT in psi4, default
symmetry c1  #important for SAPT in psi4, default
}

set PROPERTIES_ORIGIN ["COM"]
properties('MP2/aug-cc-pvtz', properties = ['dipole'])
--------------------------------------------------------------------------

    Molecular point group: c1
  Charge       = 0
  Multiplicity = 1
  Basis Set: AUG-CC-PVTZ
    Blend: AUG-CC-PVTZ
  Basis Set: (AUG-CC-PVTZ AUX)
    Blend: AUG-CC-PVTZ-JKFIT

    Orbital Energies [Eh]
    ---------------------

    Doubly Occupied:

       1A    -20.584397     2A    -11.295146     3A    -11.286646
       4A    -11.234763     5A    -11.234004     6A    -11.231845
       7A    -11.230379     8A    -11.224530     9A    -11.216108
      10A     -1.404171    11A     -1.145397    12A     -1.044667
      13A     -1.009081    14A     -0.947276    15A     -0.920737
      16A     -0.812352    17A     -0.796780    18A     -0.708609
      19A     -0.667062    20A     -0.652179    21A     -0.645946
      22A     -0.613415    23A     -0.581208    24A     -0.568091
      25A     -0.563369    26A     -0.538942    27A     -0.521641
      28A     -0.507905    29A     -0.496594    30A     -0.475304
      31A     -0.464020    32A     -0.331164    33A     -0.305313

  @DF-RHF Final Energy:  -383.75245350987922

   => Energetics <=

    Nuclear Repulsion Energy =            430.0205769033512979
    One-Electron Energy =               -1373.0279740172566108
    Two-Electron Energy =                 559.2549436040260389
    Total Energy =                       -383.7524535098792740
  Basis Set: (AUG-CC-PVTZ AUX)
    Blend: AUG-CC-PVTZ-RI
    Molecular point group: c1

    Geometry (in Angstrom), charge = 0, multiplicity = 1:

       Center              X                  Y                   Z               Mass
    ------------   -----------------  -----------------  -----------------  -----------------
         O            1.778291574927     0.313938330034     0.000152978382    15.994914619570
         C           -0.464087425073     0.981866330034     0.000122978382    12.000000000000
         C            0.461567574927    -0.079952669966     0.000138978382    12.000000000000
         C           -1.823359425073     0.669439330034     0.000116978382    12.000000000000
         C            0.033425574927    -1.410354669966     0.000140978382    12.000000000000
         C            0.036143574927     2.399113330034     0.000126978382    12.000000000000
         C           -2.269033425073    -0.656258669966     0.000120978382    12.000000000000
         C           -1.337540425073    -1.690529669966     0.000132978382    12.000000000000
         C            2.758948574927    -0.718667669966     0.000152978382    12.000000000000
         H           -2.546781425073     1.483216330034     0.000104978382     1.007825032230
         H            0.743801574927    -2.230203669966     0.000150978382     1.007825032230
         H           -0.802403425073     3.100550330034     0.000031978382     1.007825032230
         H            0.657373574927     2.595709330034     0.879096978382     1.007825032230
         H            0.657532574927     2.595656330034    -0.878741021618     1.007825032230
         H           -3.333691425073    -0.874984669966     0.000113978382     1.007825032230
         H           -1.667770425073    -2.726684669966     0.000134978382     1.007825032230
         H            2.676076774927    -1.357390369966    -0.910625421618     1.007825032230
         H            2.677558574927    -1.345941669966     0.894599978382     1.007825032230
         H            3.720138574927    -0.205307669966     0.000156978382     1.007825032230

  Basis Set: AUG-CC-PVTZ
    Blend: AUG-CC-PVTZ
  Basis Set: (AUG-CC-PVTZ AUX)
    Blend: AUG-CC-PVTZ-JKFIT
	 Reference Energy          =    -383.7524535098792171 [Eh]
	 Singles Energy            =      -0.0000000000000000 [Eh]
	 Same-Spin Energy          =      -0.4108946149250997 [Eh]
	 Opposite-Spin Energy      =      -1.3183432713734469 [Eh]
	 Correlation Energy        =      -1.7292378862985465 [Eh]
	 Total Energy              =    -385.4816913961777800 [Eh]

	 ================> DF-SCS-MP2 Energies <==================
	-----------------------------------------------------------
	 SCS Same-Spin Scale       =       0.3333333333333333 [-]
	 SCS Opposite-Spin Scale   =       1.2000000000000000 [-]
	 SCS Same-Spin Energy      =      -0.1369648716416999 [Eh]
	 SCS Opposite-Spin Energy  =      -1.5820119256481362 [Eh]
	 SCS Correlation Energy    =      -1.7189767972898360 [Eh]
	 SCS Total Energy          =    -385.4714303071690438 [Eh]
	-----------------------------------------------------------

  Dipole Moment: [D]
     X:     0.9737      Y:    -0.7277      Z:     0.0097     Total:     1.2156

*** Psi4 exiting successfully. Buy a developer a beer!
