                               Psi4 1.4a3.dev225

  ==> Input File <==

--------------------------------------------------------------------------
#psi4
#
memory 32 gb

molecule  {
0 1
  O        1.7572910     0.3059760     0.0000180
  C       -0.4850880     0.9739040    -0.0000120
  C        0.4405670    -0.0879150     0.0000040
  C       -1.8443600     0.6614770    -0.0000180
  C        0.0018119    -1.3706417     0.0000057
  C        0.0151430     2.3911510    -0.0000080
  C       -2.2900340    -0.6642210    -0.0000140
  C       -1.3585410    -1.6984920    -0.0000020
  C        2.7379480    -0.7266300     0.0000180
  H       -2.5677820     1.4752540    -0.0000300
  H        0.7228010    -2.2381660     0.0000160
  H       -0.8234040     3.0925880    -0.0001030
  H        0.6363730     2.5877470     0.8789620
  H        0.6365320     2.5876940    -0.8788760
  H       -3.3546920    -0.8829470    -0.0000210
  H       -1.6887710    -2.7346470     0.0000000
  H        2.6565620    -1.3539010    -0.8944310
  H        2.6565580    -1.3539040     0.8944650
  H        3.6991380    -0.2132700     0.0000220
units angstrom
no_reorient  #important for SAPT in psi4, default
symmetry c1  #important for SAPT in psi4, default
}

set PROPERTIES_ORIGIN ["COM"]
properties('MP2/aug-cc-pvtz', properties = ['dipole'])
--------------------------------------------------------------------------

    Molecular point group: c1
  Charge       = 0
  Multiplicity = 1
  Basis Set: AUG-CC-PVTZ
    Blend: AUG-CC-PVTZ
  Basis Set: (AUG-CC-PVTZ AUX)
    Blend: AUG-CC-PVTZ-JKFIT

    Orbital Energies [Eh]
    ---------------------

    Doubly Occupied:

       1A    -20.583384     2A    -11.289606     3A    -11.283490
       4A    -11.234663     5A    -11.234313     6A    -11.230590
       7A    -11.229126     8A    -11.225042     9A    -11.216057
      10A     -1.403697    11A     -1.149289    12A     -1.044299
      13A     -1.012842    14A     -0.947333    15A     -0.923248
      16A     -0.809582    17A     -0.799180    18A     -0.710753
      19A     -0.667004    20A     -0.653526    21A     -0.643670
      22A     -0.611794    23A     -0.580232    24A     -0.568781
      25A     -0.561454    26A     -0.538301    27A     -0.522078
      28A     -0.510713    29A     -0.493029    30A     -0.475347
      31A     -0.464849    32A     -0.332235    33A     -0.307669

  @DF-RHF Final Energy:  -383.75038587195280

   => Energetics <=

    Nuclear Repulsion Energy =            430.9507158411522596
    One-Electron Energy =               -1374.8878606805353684
    Two-Electron Energy =                 560.1867589674302508
    Total Energy =                       -383.7503858719528580
  Basis Set: (AUG-CC-PVTZ AUX)
    Blend: AUG-CC-PVTZ-RI
    Molecular point group: c1

    Geometry (in Angstrom), charge = 0, multiplicity = 1:

       Center              X                  Y                   Z               Mass
    ------------   -----------------  -----------------  -----------------  -----------------
         O            1.779322594100     0.309157222653     0.000018193820    15.994914619570
         C           -0.463056405900     0.977085222653    -0.000011806180    12.000000000000
         C            0.462598594100    -0.084733777347     0.000004193820    12.000000000000
         C           -1.822328405900     0.664658222653    -0.000017806180    12.000000000000
         C            0.023843494100    -1.367460477347     0.000005893820    12.000000000000
         C            0.037174594100     2.394332222653    -0.000007806180    12.000000000000
         C           -2.268002405900    -0.661039777347    -0.000013806180    12.000000000000
         C           -1.336509405900    -1.695310777347    -0.000001806180    12.000000000000
         C            2.759979594100    -0.723448777347     0.000018193820    12.000000000000
         H           -2.545750405900     1.478435222653    -0.000029806180     1.007825032230
         H            0.744832594100    -2.234984777347     0.000016193820     1.007825032230
         H           -0.801372405900     3.095769222653    -0.000102806180     1.007825032230
         H            0.658404594100     2.590928222653     0.878962193820     1.007825032230
         H            0.658563594100     2.590875222653    -0.878875806180     1.007825032230
         H           -3.332660405900    -0.879765777347    -0.000020806180     1.007825032230
         H           -1.666739405900    -2.731465777347     0.000000193820     1.007825032230
         H            2.678593594100    -1.350719777347    -0.894430806180     1.007825032230
         H            2.678589594100    -1.350722777347     0.894465193820     1.007825032230
         H            3.721169594100    -0.210088777347     0.000022193820     1.007825032230

  Basis Set: AUG-CC-PVTZ
    Blend: AUG-CC-PVTZ
  Basis Set: (AUG-CC-PVTZ AUX)
    Blend: AUG-CC-PVTZ-JKFIT
	 Reference Energy          =    -383.7503858719528012 [Eh]
	 Singles Energy            =      -0.0000000000000000 [Eh]
	 Same-Spin Energy          =      -0.4108675001458343 [Eh]
	 Opposite-Spin Energy      =      -1.3180923125686617 [Eh]
	 Correlation Energy        =      -1.7289598127144958 [Eh]
	 Total Energy              =    -385.4793456846672939 [Eh]

	 ================> DF-SCS-MP2 Energies <==================
	-----------------------------------------------------------
	 SCS Same-Spin Scale       =       0.3333333333333333 [-]
	 SCS Opposite-Spin Scale   =       1.2000000000000000 [-]
	 SCS Same-Spin Energy      =      -0.1369558333819448 [Eh]
	 SCS Opposite-Spin Energy  =      -1.5817107750823940 [Eh]
	 SCS Correlation Energy    =      -1.7186666084643387 [Eh]
	 SCS Total Energy          =    -385.4690524804171332 [Eh]
	-----------------------------------------------------------

  Dipole Moment: [D]
     X:     0.9299      Y:    -0.7554      Z:     0.0000     Total:     1.1980

*** Psi4 exiting successfully. Buy a developer a beer!
