                               Psi4 1.4a3.dev225

  ==> Input File <==

--------------------------------------------------------------------------
#psi4
#
memory 32 gb

molecule  {
0 1
  O        1.7572910     0.3059760     0.0000180
  C       -0.4850880     0.9739040    -0.0000120
  C        0.4476419    -0.1108350     0.0000039
  C       -1.8443600     0.6614770    -0.0000180
  C        0.0124250    -1.4183170     0.0000060
  C        0.0151430     2.3911510    -0.0000080
  C       -2.2900340    -0.6642210    -0.0000140
  C       -1.3585410    -1.6984920    -0.0000020
  C        2.7379480    -0.7266300     0.0000180
  H       -2.5677820     1.4752540    -0.0000300
  H        0.7228010    -2.2381660     0.0000160
  H       -0.8234040     3.0925880    -0.0001030
  H        0.6363730     2.5877470     0.8789620
  H        0.6365320     2.5876940    -0.8788760
  H       -3.3546920    -0.8829470    -0.0000210
  H       -1.6887710    -2.7346470     0.0000000
  H        2.6565620    -1.3539010    -0.8944310
  H        2.6565580    -1.3539040     0.8944650
  H        3.6991380    -0.2132700     0.0000220
units angstrom
no_reorient  #important for SAPT in psi4, default
symmetry c1  #important for SAPT in psi4, default
}

set PROPERTIES_ORIGIN ["COM"]
properties('MP2/aug-cc-pvtz', properties = ['dipole'])
--------------------------------------------------------------------------

    Molecular point group: c1
  Charge       = 0
  Multiplicity = 1
  Basis Set: AUG-CC-PVTZ
    Blend: AUG-CC-PVTZ
  Basis Set: (AUG-CC-PVTZ AUX)
    Blend: AUG-CC-PVTZ-JKFIT

    Orbital Energies [Eh]
    ---------------------

    Doubly Occupied:

       1A    -20.585146     2A    -11.295013     3A    -11.283968
       4A    -11.236311     5A    -11.234557     6A    -11.231061
       7A    -11.228227     8A    -11.224533     9A    -11.216353
      10A     -1.405014    11A     -1.144752    12A     -1.043398
      13A     -1.011051    14A     -0.948675    15A     -0.921097
      16A     -0.809324    17A     -0.798524    18A     -0.709821
      19A     -0.666623    20A     -0.654033    21A     -0.645924
      22A     -0.614317    23A     -0.579347    24A     -0.567905
      25A     -0.563326    26A     -0.539493    27A     -0.522530
      28A     -0.509426    29A     -0.494707    30A     -0.476428
      31A     -0.464479    32A     -0.332728    33A     -0.303901

  @DF-RHF Final Energy:  -383.75213976016971

   => Energetics <=

    Nuclear Repulsion Energy =            430.0522290832642511
    One-Electron Energy =               -1373.0847530334092426
    Two-Electron Energy =                 559.2803841899752797
    Total Energy =                       -383.7521397601697117
  Basis Set: (AUG-CC-PVTZ AUX)
    Blend: AUG-CC-PVTZ-RI
    Molecular point group: c1

    Geometry (in Angstrom), charge = 0, multiplicity = 1:

       Center              X                  Y                   Z               Mass
    ------------   -----------------  -----------------  -----------------  -----------------
         O            1.777583833578     0.316096860864     0.000018174160    15.994914619570
         C           -0.464795166422     0.984024860864    -0.000011825840    12.000000000000
         C            0.467934733578    -0.100714139136     0.000004074160    12.000000000000
         C           -1.824067166422     0.671597860864    -0.000017825840    12.000000000000
         C            0.032717833578    -1.408196139136     0.000006174160    12.000000000000
         C            0.035435833578     2.401271860864    -0.000007825840    12.000000000000
         C           -2.269741166422    -0.654100139136    -0.000013825840    12.000000000000
         C           -1.338248166422    -1.688371139136    -0.000001825840    12.000000000000
         C            2.758240833578    -0.716509139136     0.000018174160    12.000000000000
         H           -2.547489166422     1.485374860864    -0.000029825840     1.007825032230
         H            0.743093833578    -2.228045139136     0.000016174160     1.007825032230
         H           -0.803111166422     3.102708860864    -0.000102825840     1.007825032230
         H            0.656665833578     2.597867860864     0.878962174160     1.007825032230
         H            0.656824833578     2.597814860864    -0.878875825840     1.007825032230
         H           -3.334399166422    -0.872826139136    -0.000020825840     1.007825032230
         H           -1.668478166422    -2.724526139136     0.000000174160     1.007825032230
         H            2.676854833578    -1.343780139136    -0.894430825840     1.007825032230
         H            2.676850833578    -1.343783139136     0.894465174160     1.007825032230
         H            3.719430833578    -0.203149139136     0.000022174160     1.007825032230

  Basis Set: AUG-CC-PVTZ
    Blend: AUG-CC-PVTZ
  Basis Set: (AUG-CC-PVTZ AUX)
    Blend: AUG-CC-PVTZ-JKFIT
	 Reference Energy          =    -383.7521397601697117 [Eh]
	 Singles Energy            =      -0.0000000000000000 [Eh]
	 Same-Spin Energy          =      -0.4108221779786854 [Eh]
	 Opposite-Spin Energy      =      -1.3183366549283666 [Eh]
	 Correlation Energy        =      -1.7291588329070520 [Eh]
	 Total Energy              =    -385.4812985930767582 [Eh]

	 ================> DF-SCS-MP2 Energies <==================
	-----------------------------------------------------------
	 SCS Same-Spin Scale       =       0.3333333333333333 [-]
	 SCS Opposite-Spin Scale   =       1.2000000000000000 [-]
	 SCS Same-Spin Energy      =      -0.1369407259928951 [Eh]
	 SCS Opposite-Spin Energy  =      -1.5820039859140398 [Eh]
	 SCS Correlation Energy    =      -1.7189447119069350 [Eh]
	 SCS Total Energy          =    -385.4710844720766545 [Eh]
	-----------------------------------------------------------

  Dipole Moment: [D]
     X:     0.9922      Y:    -0.7330      Z:     0.0000     Total:     1.2336

*** Psi4 exiting successfully. Buy a developer a beer!
