                               Psi4 1.4a3.dev225

  ==> Input File <==

--------------------------------------------------------------------------
#psi4
#
memory 32 gb

molecule  {
0 1
  O        1.7572910     0.3059760     0.0000180
  C       -0.4850880     0.9739040    -0.0000120
  C        0.4405670    -0.0879150     0.0000040
  C       -1.8443600     0.6614770    -0.0000180
  C        0.0124250    -1.4183170     0.0000060
  C        0.0151430     2.3911510    -0.0000080
  C       -2.3131027    -0.6562410    -0.0000143
  C       -1.3585410    -1.6984920    -0.0000020
  C        2.7379480    -0.7266300     0.0000180
  H       -2.5677820     1.4752540    -0.0000300
  H        0.7228010    -2.2381660     0.0000160
  H       -0.8234040     3.0925880    -0.0001030
  H        0.6363730     2.5877470     0.8789620
  H        0.6365320     2.5876940    -0.8788760
  H       -3.3546920    -0.8829470    -0.0000210
  H       -1.6887710    -2.7346470     0.0000000
  H        2.6565620    -1.3539010    -0.8944310
  H        2.6565580    -1.3539040     0.8944650
  H        3.6991380    -0.2132700     0.0000220
units angstrom
no_reorient  #important for SAPT in psi4, default
symmetry c1  #important for SAPT in psi4, default
}

set PROPERTIES_ORIGIN ["COM"]
properties('MP2/aug-cc-pvtz', properties = ['dipole'])
--------------------------------------------------------------------------

    Molecular point group: c1
  Charge       = 0
  Multiplicity = 1
  Basis Set: AUG-CC-PVTZ
    Blend: AUG-CC-PVTZ
  Basis Set: (AUG-CC-PVTZ AUX)
    Blend: AUG-CC-PVTZ-JKFIT

    Orbital Energies [Eh]
    ---------------------

    Doubly Occupied:

       1A    -20.584295     2A    -11.295550     3A    -11.284465
       4A    -11.237435     5A    -11.233703     6A    -11.232021
       7A    -11.230800     8A    -11.225064     9A    -11.215973
      10A     -1.404227    11A     -1.143547    12A     -1.043105
      13A     -1.009763    14A     -0.948803    15A     -0.919686
      16A     -0.811566    17A     -0.799186    18A     -0.708487
      19A     -0.666110    20A     -0.653676    21A     -0.650095
      22A     -0.612897    23A     -0.579942    24A     -0.568252
      25A     -0.563683    26A     -0.537959    27A     -0.523517
      28A     -0.508665    29A     -0.498690    30A     -0.474146
      31A     -0.462806    32A     -0.331745    33A     -0.303558

  @DF-RHF Final Energy:  -383.75195942969344

   => Energetics <=

    Nuclear Repulsion Energy =            429.7101463407677784
    One-Electron Energy =               -1372.3973745277116905
    Two-Electron Energy =                 558.9352687572504692
    Total Energy =                       -383.7519594296934429
  Basis Set: (AUG-CC-PVTZ AUX)
    Blend: AUG-CC-PVTZ-RI
    Molecular point group: c1

    Geometry (in Angstrom), charge = 0, multiplicity = 1:

       Center              X                  Y                   Z               Mass
    ------------   -----------------  -----------------  -----------------  -----------------
         O            1.780547000791     0.313059338242     0.000018193820    15.994914619570
         C           -0.461831999209     0.980987338242    -0.000011806180    12.000000000000
         C            0.463823000791    -0.080831661758     0.000004193820    12.000000000000
         C           -1.821103999209     0.668560338242    -0.000017806180    12.000000000000
         C            0.035681000791    -1.411233661758     0.000006193820    12.000000000000
         C            0.038399000791     2.398234338242    -0.000007806180    12.000000000000
         C           -2.289846699209    -0.649157661758    -0.000014106180    12.000000000000
         C           -1.335284999209    -1.691408661758    -0.000001806180    12.000000000000
         C            2.761204000791    -0.719546661758     0.000018193820    12.000000000000
         H           -2.544525999209     1.482337338242    -0.000029806180     1.007825032230
         H            0.746057000791    -2.231082661758     0.000016193820     1.007825032230
         H           -0.800147999209     3.099671338242    -0.000102806180     1.007825032230
         H            0.659629000791     2.594830338242     0.878962193820     1.007825032230
         H            0.659788000791     2.594777338242    -0.878875806180     1.007825032230
         H           -3.331435999209    -0.875863661758    -0.000020806180     1.007825032230
         H           -1.665514999209    -2.727563661758     0.000000193820     1.007825032230
         H            2.679818000791    -1.346817661758    -0.894430806180     1.007825032230
         H            2.679814000791    -1.346820661758     0.894465193820     1.007825032230
         H            3.722394000791    -0.206186661758     0.000022193820     1.007825032230

  Basis Set: AUG-CC-PVTZ
    Blend: AUG-CC-PVTZ
  Basis Set: (AUG-CC-PVTZ AUX)
    Blend: AUG-CC-PVTZ-JKFIT
	 Reference Energy          =    -383.7519594296934429 [Eh]
	 Singles Energy            =      -0.0000000000000000 [Eh]
	 Same-Spin Energy          =      -0.4108951362735337 [Eh]
	 Opposite-Spin Energy      =      -1.3183894699552057 [Eh]
	 Correlation Energy        =      -1.7292846062287395 [Eh]
	 Total Energy              =    -385.4812440359222023 [Eh]

	 ================> DF-SCS-MP2 Energies <==================
	-----------------------------------------------------------
	 SCS Same-Spin Scale       =       0.3333333333333333 [-]
	 SCS Opposite-Spin Scale   =       1.2000000000000000 [-]
	 SCS Same-Spin Energy      =      -0.1369650454245112 [Eh]
	 SCS Opposite-Spin Energy  =      -1.5820673639462468 [Eh]
	 SCS Correlation Energy    =      -1.7190324093707581 [Eh]
	 SCS Total Energy          =    -385.4709918390641974 [Eh]
	-----------------------------------------------------------

  Dipole Moment: [D]
     X:     0.9861      Y:    -0.7451      Z:     0.0000     Total:     1.2360

*** Psi4 exiting successfully. Buy a developer a beer!
