                               Psi4 1.4a3.dev225

  ==> Input File <==

--------------------------------------------------------------------------
#psi4
#
memory 32 gb

molecule  {
0 1
  O        1.7572910     0.3059760     0.0000180
  C       -0.4850880     0.9739040    -0.0000120
  C        0.4405670    -0.0879150     0.0000040
  C       -1.8930894     0.6502766    -0.0000182
  C        0.0124250    -1.4183170     0.0000060
  C        0.0151430     2.3911510    -0.0000080
  C       -2.2900340    -0.6642210    -0.0000140
  C       -1.3585410    -1.6984920    -0.0000020
  C        2.7379480    -0.7266300     0.0000180
  H       -2.5677820     1.4752540    -0.0000300
  H        0.7228010    -2.2381660     0.0000160
  H       -0.8234040     3.0925880    -0.0001030
  H        0.6363730     2.5877470     0.8789620
  H        0.6365320     2.5876940    -0.8788760
  H       -3.3546920    -0.8829470    -0.0000210
  H       -1.6887710    -2.7346470     0.0000000
  H        2.6565620    -1.3539010    -0.8944310
  H        2.6565580    -1.3539040     0.8944650
  H        3.6991380    -0.2132700     0.0000220
units angstrom
no_reorient  #important for SAPT in psi4, default
symmetry c1  #important for SAPT in psi4, default
}

set PROPERTIES_ORIGIN ["COM"]
properties('MP2/aug-cc-pvtz', properties = ['dipole'])
--------------------------------------------------------------------------

    Molecular point group: c1
  Charge       = 0
  Multiplicity = 1
  Basis Set: AUG-CC-PVTZ
    Blend: AUG-CC-PVTZ
  Basis Set: (AUG-CC-PVTZ AUX)
    Blend: AUG-CC-PVTZ-JKFIT

    Orbital Energies [Eh]
    ---------------------

    Doubly Occupied:

       1A    -20.582992     2A    -11.293630     3A    -11.284070
       4A    -11.237988     5A    -11.235106     6A    -11.232687
       7A    -11.231986     8A    -11.222874     9A    -11.216169
      10A     -1.403159    11A     -1.142727    12A     -1.041942
      13A     -1.012390    14A     -0.949107    15A     -0.918722
      16A     -0.814820    17A     -0.793861    18A     -0.709769
      19A     -0.666173    20A     -0.653035    21A     -0.645578
      22A     -0.618895    23A     -0.580784    24A     -0.567288
      25A     -0.561798    26A     -0.541384    27A     -0.522675
      28A     -0.508500    29A     -0.489429    30A     -0.479025
      31A     -0.464473    32A     -0.329407    33A     -0.304297

  @DF-RHF Final Energy:  -383.74948839024455

   => Energetics <=

    Nuclear Repulsion Energy =            429.4712470181050321
    One-Electron Energy =               -1371.9279930041784610
    Two-Electron Energy =                 558.7072575958288780
    Total Energy =                       -383.7494883902445508
  Basis Set: (AUG-CC-PVTZ AUX)
    Blend: AUG-CC-PVTZ-RI
    Molecular point group: c1

    Geometry (in Angstrom), charge = 0, multiplicity = 1:

       Center              X                  Y                   Z               Mass
    ------------   -----------------  -----------------  -----------------  -----------------
         O            1.783069491300     0.314944804226     0.000018183990    15.994914619570
         C           -0.459309508700     0.982872804226    -0.000011816010    12.000000000000
         C            0.466345491300    -0.078946195774     0.000004183990    12.000000000000
         C           -1.867310908700     0.659245404226    -0.000018016010    12.000000000000
         C            0.038203491300    -1.409348195774     0.000006183990    12.000000000000
         C            0.040921491300     2.400119804226    -0.000007816010    12.000000000000
         C           -2.264255508700    -0.655252195774    -0.000013816010    12.000000000000
         C           -1.332762508700    -1.689523195774    -0.000001816010    12.000000000000
         C            2.763726491300    -0.717661195774     0.000018183990    12.000000000000
         H           -2.542003508700     1.484222804226    -0.000029816010     1.007825032230
         H            0.748579491300    -2.229197195774     0.000016183990     1.007825032230
         H           -0.797625508700     3.101556804226    -0.000102816010     1.007825032230
         H            0.662151491300     2.596715804226     0.878962183990     1.007825032230
         H            0.662310491300     2.596662804226    -0.878875816010     1.007825032230
         H           -3.328913508700    -0.873978195774    -0.000020816010     1.007825032230
         H           -1.662992508700    -2.725678195774     0.000000183990     1.007825032230
         H            2.682340491300    -1.344932195774    -0.894430816010     1.007825032230
         H            2.682336491300    -1.344935195774     0.894465183990     1.007825032230
         H            3.724916491300    -0.204301195774     0.000022183990     1.007825032230

  Basis Set: AUG-CC-PVTZ
    Blend: AUG-CC-PVTZ
  Basis Set: (AUG-CC-PVTZ AUX)
    Blend: AUG-CC-PVTZ-JKFIT
	 Reference Energy          =    -383.7494883902445508 [Eh]
	 Singles Energy            =      -0.0000000000000000 [Eh]
	 Same-Spin Energy          =      -0.4110185892230588 [Eh]
	 Opposite-Spin Energy      =      -1.3185070867208517 [Eh]
	 Correlation Energy        =      -1.7295256759439106 [Eh]
	 Total Energy              =    -385.4790140661884834 [Eh]

	 ================> DF-SCS-MP2 Energies <==================
	-----------------------------------------------------------
	 SCS Same-Spin Scale       =       0.3333333333333333 [-]
	 SCS Opposite-Spin Scale   =       1.2000000000000000 [-]
	 SCS Same-Spin Energy      =      -0.1370061964076863 [Eh]
	 SCS Opposite-Spin Energy  =      -1.5822085040650220 [Eh]
	 SCS Correlation Energy    =      -1.7192147004727083 [Eh]
	 SCS Total Energy          =    -385.4687030907172698 [Eh]
	-----------------------------------------------------------

  Dipole Moment: [D]
     X:     0.9660      Y:    -0.7358      Z:     0.0000     Total:     1.2143

*** Psi4 exiting successfully. Buy a developer a beer!
