                               Psi4 1.4a3.dev225

  ==> Input File <==

--------------------------------------------------------------------------
#psi4
#
memory 32 gb

molecule  {
0 1
  O        1.7572910     0.3059760     0.0000180
  C       -0.4850880     0.9739040    -0.0000120
  C        0.4405670    -0.0879150     0.0000040
  C       -1.8443600     0.6614770    -0.0000180
  C        0.0124250    -1.4183170     0.0000060
  C        0.0151430     2.3911510    -0.0000080
  C       -2.2900340    -0.6642210    -0.0000140
  C       -1.3479279    -1.7461673    -0.0000016
  C        2.7379480    -0.7266300     0.0000180
  H       -2.5677820     1.4752540    -0.0000300
  H        0.7228010    -2.2381660     0.0000160
  H       -0.8234040     3.0925880    -0.0001030
  H        0.6363730     2.5877470     0.8789620
  H        0.6365320     2.5876940    -0.8788760
  H       -3.3546920    -0.8829470    -0.0000210
  H       -1.6887710    -2.7346470     0.0000000
  H        2.6565620    -1.3539010    -0.8944310
  H        2.6565580    -1.3539040     0.8944650
  H        3.6991380    -0.2132700     0.0000220
units angstrom
no_reorient  #important for SAPT in psi4, default
symmetry c1  #important for SAPT in psi4, default
}

set PROPERTIES_ORIGIN ["COM"]
properties('MP2/aug-cc-pvtz', properties = ['dipole'])
--------------------------------------------------------------------------

    Molecular point group: c1
  Charge       = 0
  Multiplicity = 1
  Basis Set: AUG-CC-PVTZ
    Blend: AUG-CC-PVTZ
  Basis Set: (AUG-CC-PVTZ AUX)
    Blend: AUG-CC-PVTZ-JKFIT

    Orbital Energies [Eh]
    ---------------------

    Doubly Occupied:

       1A    -20.584004     2A    -11.294939     3A    -11.284079
       4A    -11.236257     5A    -11.234437     6A    -11.231940
       7A    -11.231646     8A    -11.229209     9A    -11.216221
      10A     -1.403877    11A     -1.141845    12A     -1.043533
      13A     -1.007370    14A     -0.948327    15A     -0.921066
      16A     -0.810953    17A     -0.799523    18A     -0.711991
      19A     -0.666022    20A     -0.653420    21A     -0.643975
      22A     -0.615419    23A     -0.584137    24A     -0.568356
      25A     -0.567387    26A     -0.536194    27A     -0.522297
      28A     -0.508276    29A     -0.494113    30A     -0.476823
      31A     -0.461274    32A     -0.332812    33A     -0.301260

  @DF-RHF Final Energy:  -383.74918571322070

   => Energetics <=

    Nuclear Repulsion Energy =            429.3711542849291618
    One-Electron Energy =               -1371.7147138577627175
    Two-Electron Energy =                 558.5943738596129151
    Total Energy =                       -383.7491857132206405
  Basis Set: (AUG-CC-PVTZ AUX)
    Blend: AUG-CC-PVTZ-RI
    Molecular point group: c1

    Geometry (in Angstrom), charge = 0, multiplicity = 1:

       Center              X                  Y                   Z               Mass
    ------------   -----------------  -----------------  -----------------  -----------------
         O            1.777236022492     0.318530349011     0.000018125009    15.994914619570
         C           -0.465142977508     0.986458349011    -0.000011874991    12.000000000000
         C            0.460512022492    -0.075360650989     0.000004125009    12.000000000000
         C           -1.824414977508     0.674031349011    -0.000017874991    12.000000000000
         C            0.032370022492    -1.405762650989     0.000006125009    12.000000000000
         C            0.035088022492     2.403705349011    -0.000007874991    12.000000000000
         C           -2.270088977508    -0.651666650989    -0.000013874991    12.000000000000
         C           -1.327982877508    -1.733612950989    -0.000001474991    12.000000000000
         C            2.757893022492    -0.714075650989     0.000018125009    12.000000000000
         H           -2.547836977508     1.487808349011    -0.000029874991     1.007825032230
         H            0.742746022492    -2.225611650989     0.000016125009     1.007825032230
         H           -0.803458977508     3.105142349011    -0.000102874991     1.007825032230
         H            0.656318022492     2.600301349011     0.878962125009     1.007825032230
         H            0.656477022492     2.600248349011    -0.878875874991     1.007825032230
         H           -3.334746977508    -0.870392650989    -0.000020874991     1.007825032230
         H           -1.668825977508    -2.722092650989     0.000000125009     1.007825032230
         H            2.676507022492    -1.341346650989    -0.894430874991     1.007825032230
         H            2.676503022492    -1.341349650989     0.894465125009     1.007825032230
         H            3.719083022492    -0.200715650989     0.000022125009     1.007825032230

  Basis Set: AUG-CC-PVTZ
    Blend: AUG-CC-PVTZ
  Basis Set: (AUG-CC-PVTZ AUX)
    Blend: AUG-CC-PVTZ-JKFIT
	 Reference Energy          =    -383.7491857132206974 [Eh]
	 Singles Energy            =      -0.0000000000000000 [Eh]
	 Same-Spin Energy          =      -0.4110111403189063 [Eh]
	 Opposite-Spin Energy      =      -1.3187174995877391 [Eh]
	 Correlation Energy        =      -1.7297286399066454 [Eh]
	 Total Energy              =    -385.4789143531273226 [Eh]

	 ================> DF-SCS-MP2 Energies <==================
	-----------------------------------------------------------
	 SCS Same-Spin Scale       =       0.3333333333333333 [-]
	 SCS Opposite-Spin Scale   =       1.2000000000000000 [-]
	 SCS Same-Spin Energy      =      -0.1370037134396354 [Eh]
	 SCS Opposite-Spin Energy  =      -1.5824609995052870 [Eh]
	 SCS Correlation Energy    =      -1.7194647129449223 [Eh]
	 SCS Total Energy          =    -385.4686504261655955 [Eh]
	-----------------------------------------------------------

  Dipole Moment: [D]
     X:     0.9812      Y:    -0.7515      Z:     0.0000     Total:     1.2359

*** Psi4 exiting successfully. Buy a developer a beer!
