                               Psi4 1.4a3.dev225

  ==> Input File <==

--------------------------------------------------------------------------
#psi4
#
memory 32 gb

molecule  {
0 1
  O        1.7572910     0.3059760     0.0000180
  C       -0.4850880     0.9739040    -0.0000120
  C        0.6321773    -0.0305958     0.0000060
  C       -1.8443600     0.6614770    -0.0000180
  C        0.0124250    -1.4183170     0.0000060
  C        0.0151430     2.3911510    -0.0000080
  C       -2.2900340    -0.6642210    -0.0000140
  C       -1.3585410    -1.6984920    -0.0000020
  C        2.7379480    -0.7266300     0.0000180
  H       -2.5677820     1.4752540    -0.0000300
  H        0.7228010    -2.2381660     0.0000160
  H       -0.8234040     3.0925880    -0.0001030
  H        0.6363730     2.5877470     0.8789620
  H        0.6365320     2.5876940    -0.8788760
  H       -3.3546920    -0.8829470    -0.0000210
  H       -1.6887710    -2.7346470     0.0000000
  H        2.6565620    -1.3539010    -0.8944310
  H        2.6565580    -1.3539040     0.8944650
  H        3.6991380    -0.2132700     0.0000220
units angstrom
no_reorient  #important for SAPT in psi4, default
symmetry c1  #important for SAPT in psi4, default
}

set PROPERTIES_ORIGIN ["COM"]
properties('MP2/aug-cc-pvtz', properties = ['dipole'])
--------------------------------------------------------------------------

    Molecular point group: c1
  Charge       = 0
  Multiplicity = 1
  Basis Set: AUG-CC-PVTZ
    Blend: AUG-CC-PVTZ
  Basis Set: (AUG-CC-PVTZ AUX)
    Blend: AUG-CC-PVTZ-JKFIT

    Orbital Energies [Eh]
    ---------------------

    Doubly Occupied:

       1A    -20.625925     2A    -11.316467     3A    -11.310442
       4A    -11.227958     5A    -11.227321     6A    -11.226392
       7A    -11.224910     8A    -11.209051     9A    -11.208117
      10A     -1.528131    11A     -1.119734    12A     -1.045445
      13A     -1.012257    14A     -0.964156    15A     -0.908078
      16A     -0.811283    17A     -0.794649    18A     -0.736296
      19A     -0.709387    20A     -0.698496    21A     -0.649504
      22A     -0.602403    23A     -0.583080    24A     -0.570316
      25A     -0.555737    26A     -0.550508    27A     -0.540604
      28A     -0.526402    29A     -0.495851    30A     -0.456938
      31A     -0.431738    32A     -0.320366    33A     -0.271267

  @DF-RHF Final Energy:  -383.69483544985945

   => Energetics <=

    Nuclear Repulsion Energy =            430.5063119265798832
    One-Electron Energy =               -1373.4838802376673357
    Two-Electron Energy =                 559.2827328612280553
    Total Energy =                       -383.6948354498593972
  Basis Set: (AUG-CC-PVTZ AUX)
    Blend: AUG-CC-PVTZ-RI
    Molecular point group: c1

    Geometry (in Angstrom), charge = 0, multiplicity = 1:

       Center              X                  Y                   Z               Mass
    ------------   -----------------  -----------------  -----------------  -----------------
         O            1.759443689500     0.308209210860     0.000017967726    15.994914619570
         C           -0.482935310500     0.976137210860    -0.000012032274    12.000000000000
         C            0.634329989500    -0.028362589140     0.000005967726    12.000000000000
         C           -1.842207310500     0.663710210860    -0.000018032274    12.000000000000
         C            0.014577689500    -1.416083789140     0.000005967726    12.000000000000
         C            0.017295689500     2.393384210860    -0.000008032274    12.000000000000
         C           -2.287881310500    -0.661987789140    -0.000014032274    12.000000000000
         C           -1.356388310500    -1.696258789140    -0.000002032274    12.000000000000
         C            2.740100689500    -0.724396789140     0.000017967726    12.000000000000
         H           -2.565629310500     1.477487210860    -0.000030032274     1.007825032230
         H            0.724953689500    -2.235932789140     0.000015967726     1.007825032230
         H           -0.821251310500     3.094821210860    -0.000103032274     1.007825032230
         H            0.638525689500     2.589980210860     0.878961967726     1.007825032230
         H            0.638684689500     2.589927210860    -0.878876032274     1.007825032230
         H           -3.352539310500    -0.880713789140    -0.000021032274     1.007825032230
         H           -1.686618310500    -2.732413789140    -0.000000032274     1.007825032230
         H            2.658714689500    -1.351667789140    -0.894431032274     1.007825032230
         H            2.658710689500    -1.351670789140     0.894464967726     1.007825032230
         H            3.701290689500    -0.211036789140     0.000021967726     1.007825032230

  Basis Set: AUG-CC-PVTZ
    Blend: AUG-CC-PVTZ
  Basis Set: (AUG-CC-PVTZ AUX)
    Blend: AUG-CC-PVTZ-JKFIT
	 Reference Energy          =    -383.6948354498594540 [Eh]
	 Singles Energy            =      -0.0000000000000000 [Eh]
	 Same-Spin Energy          =      -0.4122591076816721 [Eh]
	 Opposite-Spin Energy      =      -1.3191023092606531 [Eh]
	 Correlation Energy        =      -1.7313614169423253 [Eh]
	 Total Energy              =    -385.4261968668017744 [Eh]

	 ================> DF-SCS-MP2 Energies <==================
	-----------------------------------------------------------
	 SCS Same-Spin Scale       =       0.3333333333333333 [-]
	 SCS Opposite-Spin Scale   =       1.2000000000000000 [-]
	 SCS Same-Spin Energy      =      -0.1374197025605574 [Eh]
	 SCS Opposite-Spin Energy  =      -1.5829227711127836 [Eh]
	 SCS Correlation Energy    =      -1.7203424736733410 [Eh]
	 SCS Total Energy          =    -385.4151779235327808 [Eh]
	-----------------------------------------------------------

  Dipole Moment: [D]
     X:     2.6236      Y:    -0.5950      Z:     0.0000     Total:     2.6902

*** Psi4 exiting successfully. Buy a developer a beer!
