                               Psi4 1.4a3.dev225

  ==> Input File <==

--------------------------------------------------------------------------
#psi4
#
memory 32 gb

molecule  {
0 1
  O        1.7572910     0.3059760     0.0000180
  C       -0.4850880     0.9739040    -0.0000120
  C        0.4551157    -0.1336281     0.0000038
  C       -1.8443600     0.6614770    -0.0000180
  C        0.0124250    -1.4183170     0.0000060
  C        0.0151430     2.3911510    -0.0000080
  C       -2.2900340    -0.6642210    -0.0000140
  C       -1.3585410    -1.6984920    -0.0000020
  C        2.7379480    -0.7266300     0.0000180
  H       -2.5677820     1.4752540    -0.0000300
  H        0.7228010    -2.2381660     0.0000160
  H       -0.8234040     3.0925880    -0.0001030
  H        0.6363730     2.5877470     0.8789620
  H        0.6365320     2.5876940    -0.8788760
  H       -3.3546920    -0.8829470    -0.0000210
  H       -1.6887710    -2.7346470     0.0000000
  H        2.6565620    -1.3539010    -0.8944310
  H        2.6565580    -1.3539040     0.8944650
  H        3.6991380    -0.2132700     0.0000220
units angstrom
no_reorient  #important for SAPT in psi4, default
symmetry c1  #important for SAPT in psi4, default
}

set PROPERTIES_ORIGIN ["COM"]
properties('MP2/aug-cc-pvtz', properties = ['dipole'])
--------------------------------------------------------------------------

    Molecular point group: c1
  Charge       = 0
  Multiplicity = 1
  Basis Set: AUG-CC-PVTZ
    Blend: AUG-CC-PVTZ
  Basis Set: (AUG-CC-PVTZ AUX)
    Blend: AUG-CC-PVTZ-JKFIT

    Orbital Energies [Eh]
    ---------------------

    Doubly Occupied:

       1A    -20.586284     2A    -11.294776     3A    -11.283699
       4A    -11.238617     5A    -11.234341     6A    -11.230192
       7A    -11.226032     8A    -11.224653     9A    -11.216644
      10A     -1.406060    11A     -1.144308    12A     -1.042391
      13A     -1.012800    14A     -0.948919    15A     -0.921201
      16A     -0.806117    17A     -0.799966    18A     -0.710681
      19A     -0.666365    20A     -0.654614    21A     -0.645748
      22A     -0.615010    23A     -0.577617    24A     -0.567444
      25A     -0.563282    26A     -0.540077    27A     -0.523111
      28A     -0.509983    29A     -0.493512    30A     -0.476220
      31A     -0.464665    32A     -0.334700    33A     -0.302453

  @DF-RHF Final Energy:  -383.74981200074046

   => Energetics <=

    Nuclear Repulsion Energy =            430.0051543727815329
    One-Electron Energy =               -1372.9849676036481014
    Two-Electron Energy =                 559.2300012301260494
    Total Energy =                       -383.7498120007404623
  Basis Set: (AUG-CC-PVTZ AUX)
    Blend: AUG-CC-PVTZ-RI
    Molecular point group: c1

    Geometry (in Angstrom), charge = 0, multiplicity = 1:

       Center              X                  Y                   Z               Mass
    ------------   -----------------  -----------------  -----------------  -----------------
         O            1.776849146310     0.318337461410     0.000018183990    15.994914619570
         C           -0.465529853690     0.986265461410    -0.000011816010    12.000000000000
         C            0.474673846310    -0.121266638590     0.000003983990    12.000000000000
         C           -1.824801853690     0.673838461410    -0.000017816010    12.000000000000
         C            0.031983146310    -1.405955538590     0.000006183990    12.000000000000
         C            0.034701146310     2.403512461410    -0.000007816010    12.000000000000
         C           -2.270475853690    -0.651859538590    -0.000013816010    12.000000000000
         C           -1.338982853690    -1.686130538590    -0.000001816010    12.000000000000
         C            2.757506146310    -0.714268538590     0.000018183990    12.000000000000
         H           -2.548223853690     1.487615461410    -0.000029816010     1.007825032230
         H            0.742359146310    -2.225804538590     0.000016183990     1.007825032230
         H           -0.803845853690     3.104949461410    -0.000102816010     1.007825032230
         H            0.655931146310     2.600108461410     0.878962183990     1.007825032230
         H            0.656090146310     2.600055461410    -0.878875816010     1.007825032230
         H           -3.335133853690    -0.870585538590    -0.000020816010     1.007825032230
         H           -1.669212853690    -2.722285538590     0.000000183990     1.007825032230
         H            2.676120146310    -1.341539538590    -0.894430816010     1.007825032230
         H            2.676116146310    -1.341542538590     0.894465183990     1.007825032230
         H            3.718696146310    -0.200908538590     0.000022183990     1.007825032230

  Basis Set: AUG-CC-PVTZ
    Blend: AUG-CC-PVTZ
  Basis Set: (AUG-CC-PVTZ AUX)
    Blend: AUG-CC-PVTZ-JKFIT
	 Reference Energy          =    -383.7498120007404623 [Eh]
	 Singles Energy            =      -0.0000000000000000 [Eh]
	 Same-Spin Energy          =      -0.4107438790618619 [Eh]
	 Opposite-Spin Energy      =      -1.3185353114682461 [Eh]
	 Correlation Energy        =      -1.7292791905301079 [Eh]
	 Total Energy              =    -385.4790911912705837 [Eh]

	 ================> DF-SCS-MP2 Energies <==================
	-----------------------------------------------------------
	 SCS Same-Spin Scale       =       0.3333333333333333 [-]
	 SCS Opposite-Spin Scale   =       1.2000000000000000 [-]
	 SCS Same-Spin Energy      =      -0.1369146263539540 [Eh]
	 SCS Opposite-Spin Energy  =      -1.5822423737618954 [Eh]
	 SCS Correlation Energy    =      -1.7191570001158494 [Eh]
	 SCS Total Energy          =    -385.4689690008563048 [Eh]
	-----------------------------------------------------------

  Dipole Moment: [D]
     X:     1.0026      Y:    -0.7305      Z:     0.0000     Total:     1.2405

*** Psi4 exiting successfully. Buy a developer a beer!
