                               Psi4 1.4a3.dev225

  ==> Input File <==

--------------------------------------------------------------------------
#psi4
#
memory 32 gb

molecule  {
0 1
  O        1.7572910     0.3059760     0.0000180
  C       -0.4850880     0.9739040    -0.0000120
  C        0.5363722    -0.0592554     0.0000050
  C       -1.8443600     0.6614770    -0.0000180
  C        0.0124250    -1.4183170     0.0000060
  C        0.0151430     2.3911510    -0.0000080
  C       -2.2900340    -0.6642210    -0.0000140
  C       -1.3585410    -1.6984920    -0.0000020
  C        2.7379480    -0.7266300     0.0000180
  H       -2.5677820     1.4752540    -0.0000300
  H        0.7228010    -2.2381660     0.0000160
  H       -0.8234040     3.0925880    -0.0001030
  H        0.6363730     2.5877470     0.8789620
  H        0.6365320     2.5876940    -0.8788760
  H       -3.3546920    -0.8829470    -0.0000210
  H       -1.6887710    -2.7346470     0.0000000
  H        2.6565620    -1.3539010    -0.8944310
  H        2.6565580    -1.3539040     0.8944650
  H        3.6991380    -0.2132700     0.0000220
units angstrom
no_reorient  #important for SAPT in psi4, default
symmetry c1  #important for SAPT in psi4, default
}

set PROPERTIES_ORIGIN ["COM"]
properties('MP2/aug-cc-pvtz', properties = ['dipole'])
--------------------------------------------------------------------------

    Molecular point group: c1
  Charge       = 0
  Multiplicity = 1
  Basis Set: AUG-CC-PVTZ
    Blend: AUG-CC-PVTZ
  Basis Set: (AUG-CC-PVTZ AUX)
    Blend: AUG-CC-PVTZ-JKFIT

    Orbital Energies [Eh]
    ---------------------

    Doubly Occupied:

       1A    -20.602952     2A    -11.304631     3A    -11.296123
       4A    -11.231500     5A    -11.231269     6A    -11.229295
       7A    -11.228568     8A    -11.217653     9A    -11.212561
      10A     -1.458137    11A     -1.132141    12A     -1.041175
      13A     -1.006786    14A     -0.961322    15A     -0.915394
      16A     -0.806839    17A     -0.795777    18A     -0.722735
      19A     -0.679056    20A     -0.676790    21A     -0.650720
      22A     -0.607324    23A     -0.582959    24A     -0.567339
      25A     -0.560047    26A     -0.538014    27A     -0.531000
      28A     -0.522530    29A     -0.498596    30A     -0.463022
      31A     -0.457000    32A     -0.325594    33A     -0.289349

  @DF-RHF Final Energy:  -383.74055069405006

   => Energetics <=

    Nuclear Repulsion Energy =            430.1629666497033213
    One-Electron Energy =               -1373.1186404619706991
    Two-Electron Energy =                 559.2151231182173206
    Total Energy =                       -383.7405506940500572
  Basis Set: (AUG-CC-PVTZ AUX)
    Blend: AUG-CC-PVTZ-RI
    Molecular point group: c1

    Geometry (in Angstrom), charge = 0, multiplicity = 1:

       Center              X                  Y                   Z               Mass
    ------------   -----------------  -----------------  -----------------  -----------------
         O            1.768861493983     0.311026498346     0.000018066028    15.994914619570
         C           -0.473517506017     0.978954498346    -0.000011933972    12.000000000000
         C            0.547942693983    -0.054204901654     0.000005066028    12.000000000000
         C           -1.832789506017     0.666527498346    -0.000017933972    12.000000000000
         C            0.023995493983    -1.413266501654     0.000006066028    12.000000000000
         C            0.026713493983     2.396201498346    -0.000007933972    12.000000000000
         C           -2.278463506017    -0.659170501654    -0.000013933972    12.000000000000
         C           -1.346970506017    -1.693441501654    -0.000001933972    12.000000000000
         C            2.749518493983    -0.721579501654     0.000018066028    12.000000000000
         H           -2.556211506017     1.480304498346    -0.000029933972     1.007825032230
         H            0.734371493983    -2.233115501654     0.000016066028     1.007825032230
         H           -0.811833506017     3.097638498346    -0.000102933972     1.007825032230
         H            0.647943493983     2.592797498346     0.878962066028     1.007825032230
         H            0.648102493983     2.592744498346    -0.878875933972     1.007825032230
         H           -3.343121506017    -0.877896501654    -0.000020933972     1.007825032230
         H           -1.677200506017    -2.729596501654     0.000000066028     1.007825032230
         H            2.668132493983    -1.348850501654    -0.894430933972     1.007825032230
         H            2.668128493983    -1.348853501654     0.894465066028     1.007825032230
         H            3.710708493983    -0.208219501654     0.000022066028     1.007825032230

  Basis Set: AUG-CC-PVTZ
    Blend: AUG-CC-PVTZ
  Basis Set: (AUG-CC-PVTZ AUX)
    Blend: AUG-CC-PVTZ-JKFIT
	 Reference Energy          =    -383.7405506940500572 [Eh]
	 Singles Energy            =      -0.0000000000000000 [Eh]
	 Same-Spin Energy          =      -0.4113719749665022 [Eh]
	 Opposite-Spin Energy      =      -1.3181969909030493 [Eh]
	 Correlation Energy        =      -1.7295689658695514 [Eh]
	 Total Energy              =    -385.4701196599195896 [Eh]

	 ================> DF-SCS-MP2 Energies <==================
	-----------------------------------------------------------
	 SCS Same-Spin Scale       =       0.3333333333333333 [-]
	 SCS Opposite-Spin Scale   =       1.2000000000000000 [-]
	 SCS Same-Spin Energy      =      -0.1371239916555007 [Eh]
	 SCS Opposite-Spin Energy  =      -1.5818363890836591 [Eh]
	 SCS Correlation Energy    =      -1.7189603807391598 [Eh]
	 SCS Total Energy          =    -385.4595110747891908 [Eh]
	-----------------------------------------------------------

  Dipole Moment: [D]
     X:     1.7410      Y:    -0.6760      Z:     0.0000     Total:     1.8676

*** Psi4 exiting successfully. Buy a developer a beer!
