                               Psi4 1.4a3.dev225

  ==> Input File <==

--------------------------------------------------------------------------
#psi4
#
memory 32 gb

molecule  {
0 1
  O        1.7572910     0.3059760     0.0000180
  C       -0.4850880     0.9739040    -0.0000120
  C        0.4405670    -0.0879150     0.0000040
  C       -1.8443600     0.6614770    -0.0000180
  C        0.0124250    -1.4183170     0.0000060
  C        0.0151430     2.3911510    -0.0000080
  C       -2.2900340    -0.6642210    -0.0000140
  C       -1.3585410    -1.6984920    -0.0000020
  C        2.7379480    -0.7266300     0.0000180
  H       -2.5677820     1.4752540    -0.0000300
  H        0.7228010    -2.2381660     0.0000160
  H       -0.8234040     3.0925880    -0.0001030
  H        0.6363730     2.5877470     0.8789620
  H        0.6365320     2.5876940    -0.8788760
  H       -3.3546920    -0.8829470    -0.0000210
  H       -1.6887710    -2.7346470     0.0000000
  H        2.6565620    -1.3539010    -0.8944310
  H        2.6565580    -1.3539040     0.8944650
  H        3.8755533    -0.1190487     0.0000227
units angstrom
no_reorient  #important for SAPT in psi4, default
symmetry c1  #important for SAPT in psi4, default
}

set PROPERTIES_ORIGIN ["COM"]
properties('MP2/aug-cc-pvtz', properties = ['dipole'])
--------------------------------------------------------------------------

    Molecular point group: c1
  Charge       = 0
  Multiplicity = 1
  Basis Set: AUG-CC-PVTZ
    Blend: AUG-CC-PVTZ
  Basis Set: (AUG-CC-PVTZ AUX)
    Blend: AUG-CC-PVTZ-JKFIT

    Orbital Energies [Eh]
    ---------------------

    Doubly Occupied:

       1A    -20.586688     2A    -11.306772     3A    -11.296934
       4A    -11.235933     5A    -11.235219     6A    -11.232938
       7A    -11.231897     8A    -11.225626     9A    -11.216729
      10A     -1.406042    11A     -1.146415    12A     -1.045433
      13A     -1.008405    14A     -0.940559    15A     -0.919417
      16A     -0.810683    17A     -0.798240    18A     -0.710272
      19A     -0.663316    20A     -0.656380    21A     -0.647566
      22A     -0.608667    23A     -0.573923    24A     -0.569475
      25A     -0.559659    26A     -0.539703    27A     -0.510896
      28A     -0.507654    29A     -0.493119    30A     -0.472682
      31A     -0.465911    32A     -0.332358    33A     -0.306588

  @DF-RHF Final Energy:  -383.73220785539638

   => Energetics <=

    Nuclear Repulsion Energy =            429.2554540376406749
    One-Electron Energy =               -1371.4511221798725273
    Two-Electron Energy =                 558.4634602868354705
    Total Energy =                       -383.7322078553963820
  Basis Set: (AUG-CC-PVTZ AUX)
    Blend: AUG-CC-PVTZ-RI
    Molecular point group: c1

    Geometry (in Angstrom), charge = 0, multiplicity = 1:

       Center              X                  Y                   Z               Mass
    ------------   -----------------  -----------------  -----------------  -----------------
         O            1.776822839501     0.313065903283     0.000018158550    15.994914619570
         C           -0.465556160499     0.980993903283    -0.000011841450    12.000000000000
         C            0.460098839501    -0.080825096717     0.000004158550    12.000000000000
         C           -1.824828160499     0.668566903283    -0.000017841450    12.000000000000
         C            0.031956839501    -1.411227096717     0.000006158550    12.000000000000
         C            0.034674839501     2.398240903283    -0.000007841450    12.000000000000
         C           -2.270502160499    -0.657131096717    -0.000013841450    12.000000000000
         C           -1.339009160499    -1.691402096717    -0.000001841450    12.000000000000
         C            2.757479839501    -0.719540096717     0.000018158550    12.000000000000
         H           -2.548250160499     1.482343903283    -0.000029841450     1.007825032230
         H            0.742332839501    -2.231076096717     0.000016158550     1.007825032230
         H           -0.803872160499     3.099677903283    -0.000102841450     1.007825032230
         H            0.655904839501     2.594836903283     0.878962158550     1.007825032230
         H            0.656063839501     2.594783903283    -0.878875841450     1.007825032230
         H           -3.335160160499    -0.875857096717    -0.000020841450     1.007825032230
         H           -1.669239160499    -2.727557096717     0.000000158550     1.007825032230
         H            2.676093839501    -1.346811096717    -0.894430841450     1.007825032230
         H            2.676089839501    -1.346814096717     0.894465158550     1.007825032230
         H            3.895085139501    -0.111958796717     0.000022858550     1.007825032230

  Basis Set: AUG-CC-PVTZ
    Blend: AUG-CC-PVTZ
  Basis Set: (AUG-CC-PVTZ AUX)
    Blend: AUG-CC-PVTZ-JKFIT
	 Reference Energy          =    -383.7322078553963820 [Eh]
	 Singles Energy            =      -0.0000000000000000 [Eh]
	 Same-Spin Energy          =      -0.4109639854200554 [Eh]
	 Opposite-Spin Energy      =      -1.3199419359556028 [Eh]
	 Correlation Energy        =      -1.7309059213756584 [Eh]
	 Total Energy              =    -385.4631137767720475 [Eh]

	 ================> DF-SCS-MP2 Energies <==================
	-----------------------------------------------------------
	 SCS Same-Spin Scale       =       0.3333333333333333 [-]
	 SCS Opposite-Spin Scale   =       1.2000000000000000 [-]
	 SCS Same-Spin Energy      =      -0.1369879951400185 [Eh]
	 SCS Opposite-Spin Energy  =      -1.5839303231467234 [Eh]
	 SCS Correlation Energy    =      -1.7209183182867418 [Eh]
	 SCS Total Energy          =    -385.4531261736831311 [Eh]
	-----------------------------------------------------------

  Dipole Moment: [D]
     X:     0.8185      Y:    -0.7424      Z:     0.0000     Total:     1.1050

*** Psi4 exiting successfully. Buy a developer a beer!
