                               Psi4 1.4a3.dev225

  ==> Input File <==

--------------------------------------------------------------------------
#psi4
#
memory 32 gb

molecule  {
0 1
  O        1.7572910     0.3059760     0.0000180
  C       -0.4850880     0.9739040    -0.0000120
  C        0.4405670    -0.0879150     0.0000040
  C       -1.8443600     0.6614770    -0.0000180
  C        0.0124250    -1.4183170     0.0000060
  C        0.0151430     2.3911510    -0.0000080
  C       -2.2900340    -0.6642210    -0.0000140
  C       -1.3632219    -1.6745227    -0.0000022
  C        2.7379480    -0.7266300     0.0000180
  H       -2.5677820     1.4752540    -0.0000300
  H        0.7228010    -2.2381660     0.0000160
  H       -0.8234040     3.0925880    -0.0001030
  H        0.6363730     2.5877470     0.8789620
  H        0.6365320     2.5876940    -0.8788760
  H       -3.3546920    -0.8829470    -0.0000210
  H       -1.6887710    -2.7346470     0.0000000
  H        2.6565620    -1.3539010    -0.8944310
  H        2.6565580    -1.3539040     0.8944650
  H        3.6991380    -0.2132700     0.0000220
units angstrom
no_reorient  #important for SAPT in psi4, default
symmetry c1  #important for SAPT in psi4, default
}

set PROPERTIES_ORIGIN ["COM"]
properties('MP2/aug-cc-pvtz', properties = ['dipole'])
--------------------------------------------------------------------------

    Molecular point group: c1
  Charge       = 0
  Multiplicity = 1
  Basis Set: AUG-CC-PVTZ
    Blend: AUG-CC-PVTZ
  Basis Set: (AUG-CC-PVTZ AUX)
    Blend: AUG-CC-PVTZ-JKFIT

    Orbital Energies [Eh]
    ---------------------

    Doubly Occupied:

       1A    -20.584007     2A    -11.295218     3A    -11.284366
       4A    -11.234065     5A    -11.233731     6A    -11.231821
       7A    -11.229858     8A    -11.222027     9A    -11.215986
      10A     -1.404011    11A     -1.147378    12A     -1.045436
      13A     -1.010171    14A     -0.948548    15A     -0.921097
      16A     -0.813669    17A     -0.795535    18A     -0.707558
      19A     -0.667707    20A     -0.653545    21A     -0.647310
      22A     -0.612901    23A     -0.580882    24A     -0.568461
      25A     -0.559925    26A     -0.540233    27A     -0.521688
      28A     -0.509320    29A     -0.498014    30A     -0.473299
      31A     -0.465939    32A     -0.330394    33A     -0.307304

  @DF-RHF Final Energy:  -383.75251414069800

   => Energetics <=

    Nuclear Repulsion Energy =            430.4854162041584118
    One-Electron Energy =               -1373.9530518638825924
    Two-Electron Energy =                 559.7151215190261837
    Total Energy =                       -383.7525141406980538
  Basis Set: (AUG-CC-PVTZ AUX)
    Blend: AUG-CC-PVTZ-RI
    Molecular point group: c1

    Geometry (in Angstrom), charge = 0, multiplicity = 1:

       Center              X                  Y                   Z               Mass
    ------------   -----------------  -----------------  -----------------  -----------------
         O            1.778739448737     0.311487562823     0.000018183990    15.994914619570
         C           -0.463639551263     0.979415562823    -0.000011816010    12.000000000000
         C            0.462015448737    -0.082403437177     0.000004183990    12.000000000000
         C           -1.822911551263     0.666988562823    -0.000017816010    12.000000000000
         C            0.033873448737    -1.412805437177     0.000006183990    12.000000000000
         C            0.036591448737     2.396662562823    -0.000007816010    12.000000000000
         C           -2.268585551263    -0.658709437177    -0.000013816010    12.000000000000
         C           -1.341773451263    -1.669011137177    -0.000002016010    12.000000000000
         C            2.759396448737    -0.721118437177     0.000018183990    12.000000000000
         H           -2.546333551263     1.480765562823    -0.000029816010     1.007825032230
         H            0.744249448737    -2.232654437177     0.000016183990     1.007825032230
         H           -0.801955551263     3.098099562823    -0.000102816010     1.007825032230
         H            0.657821448737     2.593258562823     0.878962183990     1.007825032230
         H            0.657980448737     2.593205562823    -0.878875816010     1.007825032230
         H           -3.333243551263    -0.877435437177    -0.000020816010     1.007825032230
         H           -1.667322551263    -2.729135437177     0.000000183990     1.007825032230
         H            2.678010448737    -1.348389437177    -0.894430816010     1.007825032230
         H            2.678006448737    -1.348392437177     0.894465183990     1.007825032230
         H            3.720586448737    -0.207758437177     0.000022183990     1.007825032230

  Basis Set: AUG-CC-PVTZ
    Blend: AUG-CC-PVTZ
  Basis Set: (AUG-CC-PVTZ AUX)
    Blend: AUG-CC-PVTZ-JKFIT
	 Reference Energy          =    -383.7525141406979969 [Eh]
	 Singles Energy            =      -0.0000000000000000 [Eh]
	 Same-Spin Energy          =      -0.4108206279533307 [Eh]
	 Opposite-Spin Energy      =      -1.3180538714548746 [Eh]
	 Correlation Energy        =      -1.7288744994082053 [Eh]
	 Total Energy              =    -385.4813886401062177 [Eh]

	 ================> DF-SCS-MP2 Energies <==================
	-----------------------------------------------------------
	 SCS Same-Spin Scale       =       0.3333333333333333 [-]
	 SCS Opposite-Spin Scale   =       1.2000000000000000 [-]
	 SCS Same-Spin Energy      =      -0.1369402093177769 [Eh]
	 SCS Opposite-Spin Energy  =      -1.5816646457458494 [Eh]
	 SCS Correlation Energy    =      -1.7186048550636264 [Eh]
	 SCS Total Energy          =    -385.4711189957616284 [Eh]
	-----------------------------------------------------------

  Dipole Moment: [D]
     X:     0.9834      Y:    -0.7249      Z:     0.0000     Total:     1.2217

*** Psi4 exiting successfully. Buy a developer a beer!
