                               Psi4 1.4a3.dev225

  ==> Input File <==

--------------------------------------------------------------------------
#psi4
#
memory 32 gb

molecule  {
0 1
  O        1.7572910     0.3059760     0.0000180
  C       -0.4850880     0.9739040    -0.0000120
  C        0.4405670    -0.0879150     0.0000040
  C       -1.8248683     0.6659572    -0.0000179
  C        0.0124250    -1.4183170     0.0000060
  C        0.0151430     2.3911510    -0.0000080
  C       -2.2900340    -0.6642210    -0.0000140
  C       -1.3585410    -1.6984920    -0.0000020
  C        2.7379480    -0.7266300     0.0000180
  H       -2.5677820     1.4752540    -0.0000300
  H        0.7228010    -2.2381660     0.0000160
  H       -0.8234040     3.0925880    -0.0001030
  H        0.6363730     2.5877470     0.8789620
  H        0.6365320     2.5876940    -0.8788760
  H       -3.3546920    -0.8829470    -0.0000210
  H       -1.6887710    -2.7346470     0.0000000
  H        2.6565620    -1.3539010    -0.8944310
  H        2.6565580    -1.3539040     0.8944650
  H        3.6991380    -0.2132700     0.0000220
units angstrom
no_reorient  #important for SAPT in psi4, default
symmetry c1  #important for SAPT in psi4, default
}

set PROPERTIES_ORIGIN ["COM"]
properties('MP2/aug-cc-pvtz', properties = ['dipole'])
--------------------------------------------------------------------------

    Molecular point group: c1
  Charge       = 0
  Multiplicity = 1
  Basis Set: AUG-CC-PVTZ
    Blend: AUG-CC-PVTZ
  Basis Set: (AUG-CC-PVTZ AUX)
    Blend: AUG-CC-PVTZ-JKFIT

    Orbital Energies [Eh]
    ---------------------

    Doubly Occupied:

       1A    -20.584406     2A    -11.295696     3A    -11.284344
       4A    -11.234632     5A    -11.232419     6A    -11.231056
       7A    -11.229726     8A    -11.225131     9A    -11.215989
      10A     -1.404278    11A     -1.146665    12A     -1.045910
      13A     -1.007967    14A     -0.948093    15A     -0.922065
      16A     -0.811823    17A     -0.797996    18A     -0.708742
      19A     -0.667323    20A     -0.653683    21A     -0.646393
      22A     -0.611346    23A     -0.581251    24A     -0.568897
      25A     -0.564144    26A     -0.538161    27A     -0.521479
      28A     -0.509093    29A     -0.498871    30A     -0.473281
      31A     -0.464304    32A     -0.332678    33A     -0.305074

  @DF-RHF Final Energy:  -383.75274281572473

   => Energetics <=

    Nuclear Repulsion Energy =            430.3677526475365767
    One-Electron Energy =               -1373.7151543695065357
    Two-Electron Energy =                 559.5946589062451721
    Total Energy =                       -383.7527428157247869
  Basis Set: (AUG-CC-PVTZ AUX)
    Blend: AUG-CC-PVTZ-RI
    Molecular point group: c1

    Geometry (in Angstrom), charge = 0, multiplicity = 1:

       Center              X                  Y                   Z               Mass
    ------------   -----------------  -----------------  -----------------  -----------------
         O            1.776363240992     0.313403374543     0.000018154499    15.994914619570
         C           -0.466015759008     0.981331374543    -0.000011845501    12.000000000000
         C            0.459639240992    -0.080487625457     0.000004154499    12.000000000000
         C           -1.805796059008     0.673384574543    -0.000017745501    12.000000000000
         C            0.031497240992    -1.410889625457     0.000006154499    12.000000000000
         C            0.034215240992     2.398578374543    -0.000007845501    12.000000000000
         C           -2.270961759008    -0.656793625457    -0.000013845501    12.000000000000
         C           -1.339468759008    -1.691064625457    -0.000001845501    12.000000000000
         C            2.757020240992    -0.719202625457     0.000018154499    12.000000000000
         H           -2.548709759008     1.482681374543    -0.000029845501     1.007825032230
         H            0.741873240992    -2.230738625457     0.000016154499     1.007825032230
         H           -0.804331759008     3.100015374543    -0.000102845501     1.007825032230
         H            0.655445240992     2.595174374543     0.878962154499     1.007825032230
         H            0.655604240992     2.595121374543    -0.878875845501     1.007825032230
         H           -3.335619759008    -0.875519625457    -0.000020845501     1.007825032230
         H           -1.669698759008    -2.727219625457     0.000000154499     1.007825032230
         H            2.675634240992    -1.346473625457    -0.894430845501     1.007825032230
         H            2.675630240992    -1.346476625457     0.894465154499     1.007825032230
         H            3.718210240992    -0.205842625457     0.000022154499     1.007825032230

  Basis Set: AUG-CC-PVTZ
    Blend: AUG-CC-PVTZ
  Basis Set: (AUG-CC-PVTZ AUX)
    Blend: AUG-CC-PVTZ-JKFIT
	 Reference Energy          =    -383.7527428157247300 [Eh]
	 Singles Energy            =      -0.0000000000000000 [Eh]
	 Same-Spin Energy          =      -0.4107848432612766 [Eh]
	 Opposite-Spin Energy      =      -1.3181337295038373 [Eh]
	 Correlation Energy        =      -1.7289185727651140 [Eh]
	 Total Energy              =    -385.4816613884898402 [Eh]

	 ================> DF-SCS-MP2 Energies <==================
	-----------------------------------------------------------
	 SCS Same-Spin Scale       =       0.3333333333333333 [-]
	 SCS Opposite-Spin Scale   =       1.2000000000000000 [-]
	 SCS Same-Spin Energy      =      -0.1369282810870922 [Eh]
	 SCS Opposite-Spin Energy  =      -1.5817604754046048 [Eh]
	 SCS Correlation Energy    =      -1.7186887564916971 [Eh]
	 SCS Total Energy          =    -385.4714315722164315 [Eh]
	-----------------------------------------------------------

  Dipole Moment: [D]
     X:     0.9877      Y:    -0.7382      Z:     0.0000     Total:     1.2331

*** Psi4 exiting successfully. Buy a developer a beer!
