                               Psi4 1.4a3.dev225

  ==> Input File <==

--------------------------------------------------------------------------
#psi4
#
memory 32 gb

molecule  {
0 1
  O        1.7572910     0.3059760     0.0000180
  C       -0.4850880     0.9739040    -0.0000120
  C        0.2489567    -0.1452342     0.0000020
  C       -1.8443600     0.6614770    -0.0000180
  C        0.0124250    -1.4183170     0.0000060
  C        0.0151430     2.3911510    -0.0000080
  C       -2.2900340    -0.6642210    -0.0000140
  C       -1.3585410    -1.6984920    -0.0000020
  C        2.7379480    -0.7266300     0.0000180
  H       -2.5677820     1.4752540    -0.0000300
  H        0.7228010    -2.2381660     0.0000160
  H       -0.8234040     3.0925880    -0.0001030
  H        0.6363730     2.5877470     0.8789620
  H        0.6365320     2.5876940    -0.8788760
  H       -3.3546920    -0.8829470    -0.0000210
  H       -1.6887710    -2.7346470     0.0000000
  H        2.6565620    -1.3539010    -0.8944310
  H        2.6565580    -1.3539040     0.8944650
  H        3.6991380    -0.2132700     0.0000220
units angstrom
no_reorient  #important for SAPT in psi4, default
symmetry c1  #important for SAPT in psi4, default
}

set PROPERTIES_ORIGIN ["COM"]
properties('MP2/aug-cc-pvtz', properties = ['dipole'])
--------------------------------------------------------------------------

    Molecular point group: c1
  Charge       = 0
  Multiplicity = 1
  Basis Set: AUG-CC-PVTZ
    Blend: AUG-CC-PVTZ
  Basis Set: (AUG-CC-PVTZ AUX)
    Blend: AUG-CC-PVTZ-JKFIT

    Orbital Energies [Eh]
    ---------------------

    Doubly Occupied:

       1A    -20.548998     2A    -11.286795     3A    -11.264171
       4A    -11.242594     5A    -11.239845     6A    -11.238489
       7A    -11.233391     8A    -11.230975     9A    -11.223260
      10A     -1.329162    11A     -1.175396    12A     -1.060147
      13A     -1.021241    14A     -0.939596    15A     -0.910789
      16A     -0.831986    17A     -0.800413    18A     -0.705127
      19A     -0.662368    20A     -0.629546    21A     -0.621943
      22A     -0.615942    23A     -0.579764    24A     -0.573277
      25A     -0.559538    26A     -0.544232    27A     -0.516552
      28A     -0.512835    29A     -0.506078    30A     -0.449576
      31A     -0.443248    32A     -0.346032    33A     -0.327433

  @DF-RHF Final Energy:  -383.70932381950547

   => Energetics <=

    Nuclear Repulsion Energy =            430.5734888419812023
    One-Electron Energy =               -1374.2241450421322497
    Two-Electron Energy =                 559.9413323806455764
    Total Energy =                       -383.7093238195054710
  Basis Set: (AUG-CC-PVTZ AUX)
    Blend: AUG-CC-PVTZ-RI
    Molecular point group: c1

    Geometry (in Angstrom), charge = 0, multiplicity = 1:

       Center              X                  Y                   Z               Mass
    ------------   -----------------  -----------------  -----------------  -----------------
         O            1.797114927091     0.319478360805     0.000018360933    15.994914619570
         C           -0.445264072909     0.987406360805    -0.000011639067    12.000000000000
         C            0.288780627091    -0.131731839195     0.000002360933    12.000000000000
         C           -1.804536072909     0.674979360805    -0.000017639067    12.000000000000
         C            0.052248927091    -1.404814639195     0.000006360933    12.000000000000
         C            0.054966927091     2.404653360805    -0.000007639067    12.000000000000
         C           -2.250210072909    -0.650718639195    -0.000013639067    12.000000000000
         C           -1.318717072909    -1.684989639195    -0.000001639067    12.000000000000
         C            2.777771927091    -0.713127639195     0.000018360933    12.000000000000
         H           -2.527958072909     1.488756360805    -0.000029639067     1.007825032230
         H            0.762624927091    -2.224663639195     0.000016360933     1.007825032230
         H           -0.783580072909     3.106090360805    -0.000102639067     1.007825032230
         H            0.676196927091     2.601249360805     0.878962360933     1.007825032230
         H            0.676355927091     2.601196360805    -0.878875639067     1.007825032230
         H           -3.314868072909    -0.869444639195    -0.000020639067     1.007825032230
         H           -1.648947072909    -2.721144639195     0.000000360933     1.007825032230
         H            2.696385927091    -1.340398639195    -0.894430639067     1.007825032230
         H            2.696381927091    -1.340401639195     0.894465360933     1.007825032230
         H            3.738961927091    -0.199767639195     0.000022360933     1.007825032230

  Basis Set: AUG-CC-PVTZ
    Blend: AUG-CC-PVTZ
  Basis Set: (AUG-CC-PVTZ AUX)
    Blend: AUG-CC-PVTZ-JKFIT
	 Reference Energy          =    -383.7093238195054710 [Eh]
	 Singles Energy            =      -0.0000000000000000 [Eh]
	 Same-Spin Energy          =      -0.4122837476347085 [Eh]
	 Opposite-Spin Energy      =      -1.3222608942588170 [Eh]
	 Correlation Energy        =      -1.7345446418935255 [Eh]
	 Total Energy              =    -385.4438684613990063 [Eh]

	 ================> DF-SCS-MP2 Energies <==================
	-----------------------------------------------------------
	 SCS Same-Spin Scale       =       0.3333333333333333 [-]
	 SCS Opposite-Spin Scale   =       1.2000000000000000 [-]
	 SCS Same-Spin Energy      =      -0.1374279158782362 [Eh]
	 SCS Opposite-Spin Energy  =      -1.5867130731105803 [Eh]
	 SCS Correlation Energy    =      -1.7241409889888164 [Eh]
	 SCS Total Energy          =    -385.4334648084943069 [Eh]
	-----------------------------------------------------------

  Dipole Moment: [D]
     X:    -0.2668      Y:    -0.8115      Z:    -0.0000     Total:     0.8542

*** Psi4 exiting successfully. Buy a developer a beer!
