                               Psi4 1.4a3.dev225

  ==> Input File <==

--------------------------------------------------------------------------
#psi4
#
memory 32 gb

molecule  {
0 1
  O        1.7572910     0.3059760     0.0000180
  C       -0.4850880     0.9739040    -0.0000120
  C        0.4276225    -0.0417220     0.0000043
  C       -1.8443600     0.6614770    -0.0000180
  C        0.0124250    -1.4183170     0.0000060
  C        0.0151430     2.3911510    -0.0000080
  C       -2.2900340    -0.6642210    -0.0000140
  C       -1.3585410    -1.6984920    -0.0000020
  C        2.7379480    -0.7266300     0.0000180
  H       -2.5677820     1.4752540    -0.0000300
  H        0.7228010    -2.2381660     0.0000160
  H       -0.8234040     3.0925880    -0.0001030
  H        0.6363730     2.5877470     0.8789620
  H        0.6365320     2.5876940    -0.8788760
  H       -3.3546920    -0.8829470    -0.0000210
  H       -1.6887710    -2.7346470     0.0000000
  H        2.6565620    -1.3539010    -0.8944310
  H        2.6565580    -1.3539040     0.8944650
  H        3.6991380    -0.2132700     0.0000220
units angstrom
no_reorient  #important for SAPT in psi4, default
symmetry c1  #important for SAPT in psi4, default
}

set PROPERTIES_ORIGIN ["COM"]
properties('MP2/aug-cc-pvtz', properties = ['dipole'])
--------------------------------------------------------------------------

    Molecular point group: c1
  Charge       = 0
  Multiplicity = 1
  Basis Set: AUG-CC-PVTZ
    Blend: AUG-CC-PVTZ
  Basis Set: (AUG-CC-PVTZ AUX)
    Blend: AUG-CC-PVTZ-JKFIT

    Orbital Energies [Eh]
    ---------------------

    Doubly Occupied:

       1A    -20.581640     2A    -11.294786     3A    -11.284915
       4A    -11.235368     5A    -11.234102     6A    -11.233747
       7A    -11.228239     8A    -11.224566     9A    -11.215407
      10A     -1.401774    11A     -1.147108    12A     -1.047871
      13A     -1.005379    14A     -0.947850    15A     -0.921068
      16A     -0.819054    17A     -0.793358    18A     -0.707339
      19A     -0.667825    20A     -0.652520    21A     -0.646908
      22A     -0.611350    23A     -0.584381    24A     -0.569515
      25A     -0.563529    26A     -0.537639    27A     -0.520754
      28A     -0.508017    29A     -0.500791    30A     -0.470649
      31A     -0.463914    32A     -0.329601    33A     -0.307120

  @DF-RHF Final Energy:  -383.75037490007571

   => Energetics <=

    Nuclear Repulsion Energy =            430.2239245809378190
    One-Electron Energy =               -1373.4324351180719077
    Two-Electron Energy =                 559.4581356370583762
    Total Energy =                       -383.7503749000757125
  Basis Set: (AUG-CC-PVTZ AUX)
    Blend: AUG-CC-PVTZ-RI
    Molecular point group: c1

    Geometry (in Angstrom), charge = 0, multiplicity = 1:

       Center              X                  Y                   Z               Mass
    ------------   -----------------  -----------------  -----------------  -----------------
         O            1.779551774690     0.309302935267     0.000018134839    15.994914619570
         C           -0.462827225310     0.977230935267    -0.000011865161    12.000000000000
         C            0.449883274690    -0.038395064733     0.000004434839    12.000000000000
         C           -1.822099225310     0.664803935267    -0.000017865161    12.000000000000
         C            0.034685774690    -1.414990064733     0.000006134839    12.000000000000
         C            0.037403774690     2.394477935267    -0.000007865161    12.000000000000
         C           -2.267773225310    -0.660894064733    -0.000013865161    12.000000000000
         C           -1.336280225310    -1.695165064733    -0.000001865161    12.000000000000
         C            2.760208774690    -0.723303064733     0.000018134839    12.000000000000
         H           -2.545521225310     1.478580935267    -0.000029865161     1.007825032230
         H            0.745061774690    -2.234839064733     0.000016134839     1.007825032230
         H           -0.801143225310     3.095914935267    -0.000102865161     1.007825032230
         H            0.658633774690     2.591073935267     0.878962134839     1.007825032230
         H            0.658792774690     2.591020935267    -0.878875865161     1.007825032230
         H           -3.332431225310    -0.879620064733    -0.000020865161     1.007825032230
         H           -1.666510225310    -2.731320064733     0.000000134839     1.007825032230
         H            2.678822774690    -1.350574064733    -0.894430865161     1.007825032230
         H            2.678818774690    -1.350577064733     0.894465134839     1.007825032230
         H            3.721398774690    -0.209943064733     0.000022134839     1.007825032230

  Basis Set: AUG-CC-PVTZ
    Blend: AUG-CC-PVTZ
  Basis Set: (AUG-CC-PVTZ AUX)
    Blend: AUG-CC-PVTZ-JKFIT
	 Reference Energy          =    -383.7503749000757125 [Eh]
	 Singles Energy            =      -0.0000000000000000 [Eh]
	 Same-Spin Energy          =      -0.4108319124969084 [Eh]
	 Opposite-Spin Energy      =      -1.3180444566175156 [Eh]
	 Correlation Energy        =      -1.7288763691144240 [Eh]
	 Total Energy              =    -385.4792512691901152 [Eh]

	 ================> DF-SCS-MP2 Energies <==================
	-----------------------------------------------------------
	 SCS Same-Spin Scale       =       0.3333333333333333 [-]
	 SCS Opposite-Spin Scale   =       1.2000000000000000 [-]
	 SCS Same-Spin Energy      =      -0.1369439708323028 [Eh]
	 SCS Opposite-Spin Energy  =      -1.5816533479410186 [Eh]
	 SCS Correlation Energy    =      -1.7185973187733214 [Eh]
	 SCS Total Energy          =    -385.4689722188490464 [Eh]
	-----------------------------------------------------------

  Dipole Moment: [D]
     X:     0.9587      Y:    -0.7461      Z:     0.0000     Total:     1.2148

*** Psi4 exiting successfully. Buy a developer a beer!
