                               Psi4 1.4a3.dev225

  ==> Input File <==

--------------------------------------------------------------------------
#psi4
#
memory 32 gb

molecule  {
0 1
  O        1.7572910     0.3059760     0.0000180
  C       -0.4850880     0.9739040    -0.0000120
  C        0.4405670    -0.0879150     0.0000040
  C       -1.8443600     0.6614770    -0.0000180
  C       -0.0243716    -1.2765469     0.0000052
  C        0.0151430     2.3911510    -0.0000080
  C       -2.2900340    -0.6642210    -0.0000140
  C       -1.3585410    -1.6984920    -0.0000020
  C        2.7379480    -0.7266300     0.0000180
  H       -2.5677820     1.4752540    -0.0000300
  H        0.7228010    -2.2381660     0.0000160
  H       -0.8234040     3.0925880    -0.0001030
  H        0.6363730     2.5877470     0.8789620
  H        0.6365320     2.5876940    -0.8788760
  H       -3.3546920    -0.8829470    -0.0000210
  H       -1.6887710    -2.7346470     0.0000000
  H        2.6565620    -1.3539010    -0.8944310
  H        2.6565580    -1.3539040     0.8944650
  H        3.6991380    -0.2132700     0.0000220
units angstrom
no_reorient  #important for SAPT in psi4, default
symmetry c1  #important for SAPT in psi4, default
}

set PROPERTIES_ORIGIN ["COM"]
properties('MP2/aug-cc-pvtz', properties = ['dipole'])
--------------------------------------------------------------------------

    Molecular point group: c1
  Charge       = 0
  Multiplicity = 1
  Basis Set: AUG-CC-PVTZ
    Blend: AUG-CC-PVTZ
  Basis Set: (AUG-CC-PVTZ AUX)
    Blend: AUG-CC-PVTZ-JKFIT

    Orbital Energies [Eh]
    ---------------------

    Doubly Occupied:

       1A    -20.582513     2A    -11.281826     3A    -11.278416
       4A    -11.236643     5A    -11.234408     6A    -11.228478
       7A    -11.227181     8A    -11.226515     9A    -11.216273
      10A     -1.403306    11A     -1.159293    12A     -1.043840
      13A     -1.022053    14A     -0.945490    15A     -0.927804
      16A     -0.808726    17A     -0.799798    18A     -0.714037
      19A     -0.669479    20A     -0.653830    21A     -0.642452
      22A     -0.608012    23A     -0.580144    24A     -0.569972
      25A     -0.555073    26A     -0.537240    27A     -0.522524
      28A     -0.515385    29A     -0.492041    30A     -0.466203
      31A     -0.461551    32A     -0.337340    33A     -0.311120

  @DF-RHF Final Energy:  -383.72570733437135

   => Energetics <=

    Nuclear Repulsion Energy =            432.6978580106188019
    One-Electron Energy =               -1378.3291959246062106
    Two-Electron Energy =                 561.9056305796160586
    Total Energy =                       -383.7257073343713500
  Basis Set: (AUG-CC-PVTZ AUX)
    Blend: AUG-CC-PVTZ-RI
    Molecular point group: c1

    Geometry (in Angstrom), charge = 0, multiplicity = 1:

       Center              X                  Y                   Z               Mass
    ------------   -----------------  -----------------  -----------------  -----------------
         O            1.781896476739     0.299907543573     0.000018242971    15.994914619570
         C           -0.460482523261     0.967835543573    -0.000011757029    12.000000000000
         C            0.465172476739    -0.093983456427     0.000004242971    12.000000000000
         C           -1.819754523261     0.655408543573    -0.000017757029    12.000000000000
         C            0.000233876739    -1.282615356427     0.000005442971    12.000000000000
         C            0.039748476739     2.385082543573    -0.000007757029    12.000000000000
         C           -2.265428523261    -0.670289456427    -0.000013757029    12.000000000000
         C           -1.333935523261    -1.704560456427    -0.000001757029    12.000000000000
         C            2.762553476739    -0.732698456427     0.000018242971    12.000000000000
         H           -2.543176523261     1.469185543573    -0.000029757029     1.007825032230
         H            0.747406476739    -2.244234456427     0.000016242971     1.007825032230
         H           -0.798798523261     3.086519543573    -0.000102757029     1.007825032230
         H            0.660978476739     2.581678543573     0.878962242971     1.007825032230
         H            0.661137476739     2.581625543573    -0.878875757029     1.007825032230
         H           -3.330086523261    -0.889015456427    -0.000020757029     1.007825032230
         H           -1.664165523261    -2.740715456427     0.000000242971     1.007825032230
         H            2.681167476739    -1.359969456427    -0.894430757029     1.007825032230
         H            2.681163476739    -1.359972456427     0.894465242971     1.007825032230
         H            3.723743476739    -0.219338456427     0.000022242971     1.007825032230

  Basis Set: AUG-CC-PVTZ
    Blend: AUG-CC-PVTZ
  Basis Set: (AUG-CC-PVTZ AUX)
    Blend: AUG-CC-PVTZ-JKFIT
	 Reference Energy          =    -383.7257073343713500 [Eh]
	 Singles Energy            =      -0.0000000000000000 [Eh]
	 Same-Spin Energy          =      -0.4110907012292413 [Eh]
	 Opposite-Spin Energy      =      -1.3187576658400668 [Eh]
	 Correlation Energy        =      -1.7298483670693081 [Eh]
	 Total Energy              =    -385.4555557014406304 [Eh]

	 ================> DF-SCS-MP2 Energies <==================
	-----------------------------------------------------------
	 SCS Same-Spin Scale       =       0.3333333333333333 [-]
	 SCS Opposite-Spin Scale   =       1.2000000000000000 [-]
	 SCS Same-Spin Energy      =      -0.1370302337430804 [Eh]
	 SCS Opposite-Spin Energy  =      -1.5825091990080802 [Eh]
	 SCS Correlation Energy    =      -1.7195394327511606 [Eh]
	 SCS Total Energy          =    -385.4452467671225122 [Eh]
	-----------------------------------------------------------

  Dipole Moment: [D]
     X:     0.8021      Y:    -0.7703      Z:     0.0000     Total:     1.1121

*** Psi4 exiting successfully. Buy a developer a beer!
