                               Psi4 1.4a3.dev225

  ==> Input File <==

--------------------------------------------------------------------------
#psi4
#
memory 32 gb

molecule  {
0 1
  O        1.7572910     0.3059760     0.0000180
  C       -0.4850880     0.9739040    -0.0000120
  C        0.4214060    -0.0936469     0.0000038
  C       -1.8443600     0.6614770    -0.0000180
  C        0.0124250    -1.4183170     0.0000060
  C        0.0151430     2.3911510    -0.0000080
  C       -2.2900340    -0.6642210    -0.0000140
  C       -1.3585410    -1.6984920    -0.0000020
  C        2.7379480    -0.7266300     0.0000180
  H       -2.5677820     1.4752540    -0.0000300
  H        0.7228010    -2.2381660     0.0000160
  H       -0.8234040     3.0925880    -0.0001030
  H        0.6363730     2.5877470     0.8789620
  H        0.6365320     2.5876940    -0.8788760
  H       -3.3546920    -0.8829470    -0.0000210
  H       -1.6887710    -2.7346470     0.0000000
  H        2.6565620    -1.3539010    -0.8944310
  H        2.6565580    -1.3539040     0.8944650
  H        3.6991380    -0.2132700     0.0000220
units angstrom
no_reorient  #important for SAPT in psi4, default
symmetry c1  #important for SAPT in psi4, default
}

set PROPERTIES_ORIGIN ["COM"]
properties('MP2/aug-cc-pvtz', properties = ['dipole'])
--------------------------------------------------------------------------

    Molecular point group: c1
  Charge       = 0
  Multiplicity = 1
  Basis Set: AUG-CC-PVTZ
    Blend: AUG-CC-PVTZ
  Basis Set: (AUG-CC-PVTZ AUX)
    Blend: AUG-CC-PVTZ-JKFIT

    Orbital Energies [Eh]
    ---------------------

    Doubly Occupied:

       1A    -20.580500     2A    -11.293569     3A    -11.282114
       4A    -11.235428     5A    -11.234394     6A    -11.232450
       7A    -11.230425     8A    -11.225579     9A    -11.216743
      10A     -1.394745    11A     -1.148130    12A     -1.045748
      13A     -1.010310    14A     -0.945689    15A     -0.921756
      16A     -0.814283    17A     -0.797174    18A     -0.707067
      19A     -0.665421    20A     -0.649624    21A     -0.644504
      22A     -0.614591    23A     -0.580518    24A     -0.568774
      25A     -0.563824    26A     -0.539693    27A     -0.520242
      28A     -0.507491    29A     -0.495719    30A     -0.477398
      31A     -0.463550    32A     -0.332363    33A     -0.308046

  @DF-RHF Final Energy:  -383.75233984373176

   => Energetics <=

    Nuclear Repulsion Energy =            430.1204108409892228
    One-Electron Energy =               -1373.2497779632801667
    Two-Electron Energy =                 559.3770272785591260
    Total Energy =                       -383.7523398437317610
  Basis Set: (AUG-CC-PVTZ AUX)
    Blend: AUG-CC-PVTZ-RI
    Molecular point group: c1

    Geometry (in Angstrom), charge = 0, multiplicity = 1:

       Center              X                  Y                   Z               Mass
    ------------   -----------------  -----------------  -----------------  -----------------
         O            1.780162867226     0.314407241363     0.000018183990    15.994914619570
         C           -0.462216132774     0.982335241363    -0.000011816010    12.000000000000
         C            0.444277867226    -0.085215658637     0.000003983990    12.000000000000
         C           -1.821488132774     0.669908241363    -0.000017816010    12.000000000000
         C            0.035296867226    -1.409885758637     0.000006183990    12.000000000000
         C            0.038014867226     2.399582241363    -0.000007816010    12.000000000000
         C           -2.267162132774    -0.655789758637    -0.000013816010    12.000000000000
         C           -1.335669132774    -1.690060758637    -0.000001816010    12.000000000000
         C            2.760819867226    -0.718198758637     0.000018183990    12.000000000000
         H           -2.544910132774     1.483685241363    -0.000029816010     1.007825032230
         H            0.745672867226    -2.229734758637     0.000016183990     1.007825032230
         H           -0.800532132774     3.101019241363    -0.000102816010     1.007825032230
         H            0.659244867226     2.596178241363     0.878962183990     1.007825032230
         H            0.659403867226     2.596125241363    -0.878875816010     1.007825032230
         H           -3.331820132774    -0.874515758637    -0.000020816010     1.007825032230
         H           -1.665899132774    -2.726215758637     0.000000183990     1.007825032230
         H            2.679433867226    -1.345469758637    -0.894430816010     1.007825032230
         H            2.679429867226    -1.345472758637     0.894465183990     1.007825032230
         H            3.722009867226    -0.204838758637     0.000022183990     1.007825032230

  Basis Set: AUG-CC-PVTZ
    Blend: AUG-CC-PVTZ
  Basis Set: (AUG-CC-PVTZ AUX)
    Blend: AUG-CC-PVTZ-JKFIT
	 Reference Energy          =    -383.7523398437317610 [Eh]
	 Singles Energy            =      -0.0000000000000000 [Eh]
	 Same-Spin Energy          =      -0.4108511704451357 [Eh]
	 Opposite-Spin Energy      =      -1.3183426696589851 [Eh]
	 Correlation Energy        =      -1.7291938401041209 [Eh]
	 Total Energy              =    -385.4815336838358917 [Eh]

	 ================> DF-SCS-MP2 Energies <==================
	-----------------------------------------------------------
	 SCS Same-Spin Scale       =       0.3333333333333333 [-]
	 SCS Opposite-Spin Scale   =       1.2000000000000000 [-]
	 SCS Same-Spin Energy      =      -0.1369503901483786 [Eh]
	 SCS Opposite-Spin Energy  =      -1.5820112035907821 [Eh]
	 SCS Correlation Energy    =      -1.7189615937391607 [Eh]
	 SCS Total Energy          =    -385.4713014374709132 [Eh]
	-----------------------------------------------------------

  Dipole Moment: [D]
     X:     0.8429      Y:    -0.7466      Z:     0.0000     Total:     1.1260

*** Psi4 exiting successfully. Buy a developer a beer!
