                               Psi4 1.4a3.dev225

  ==> Input File <==

--------------------------------------------------------------------------
#psi4
#
memory 32 gb

molecule  {
0 1
  O        1.7266071     0.3968665     0.0000171
  C       -0.4850880     0.9739040    -0.0000120
  C        0.4405670    -0.0879150     0.0000040
  C       -1.8443600     0.6614770    -0.0000180
  C        0.0124250    -1.4183170     0.0000060
  C        0.0151430     2.3911510    -0.0000080
  C       -2.2900340    -0.6642210    -0.0000140
  C       -1.3585410    -1.6984920    -0.0000020
  C        2.7379480    -0.7266300     0.0000180
  H       -2.5677820     1.4752540    -0.0000300
  H        0.7228010    -2.2381660     0.0000160
  H       -0.8234040     3.0925880    -0.0001030
  H        0.6363730     2.5877470     0.8789620
  H        0.6365320     2.5876940    -0.8788760
  H       -3.3546920    -0.8829470    -0.0000210
  H       -1.6887710    -2.7346470     0.0000000
  H        2.6565620    -1.3539010    -0.8944310
  H        2.6565580    -1.3539040     0.8944650
  H        3.6991380    -0.2132700     0.0000220
units angstrom
no_reorient  #important for SAPT in psi4, default
symmetry c1  #important for SAPT in psi4, default
}

set PROPERTIES_ORIGIN ["COM"]
properties('MP2/aug-cc-pvtz', properties = ['dipole'])
--------------------------------------------------------------------------

    Molecular point group: c1
  Charge       = 0
  Multiplicity = 1
  Basis Set: AUG-CC-PVTZ
    Blend: AUG-CC-PVTZ
  Basis Set: (AUG-CC-PVTZ AUX)
    Blend: AUG-CC-PVTZ-JKFIT

    Orbital Energies [Eh]
    ---------------------

    Doubly Occupied:

       1A    -20.588519     2A    -11.292901     3A    -11.292249
       4A    -11.234113     5A    -11.230653     6A    -11.230238
       7A    -11.229001     8A    -11.222798     9A    -11.213506
      10A     -1.386736    11A     -1.141616    12A     -1.042443
      13A     -1.002874    14A     -0.948745    15A     -0.921696
      16A     -0.811754    17A     -0.793639    18A     -0.702611
      19A     -0.661965    20A     -0.643031    21A     -0.640989
      22A     -0.612065    23A     -0.569096    24A     -0.567618
      25A     -0.557638    26A     -0.540037    27A     -0.528440
      28A     -0.514197    29A     -0.493124    30A     -0.475978
      31A     -0.466734    32A     -0.330050    33A     -0.303178

  @DF-RHF Final Energy:  -383.74188919468071

   => Energetics <=

    Nuclear Repulsion Energy =            429.3892559347639803
    One-Electron Energy =               -1371.8818284858850802
    Two-Electron Energy =                 558.7506833564405042
    Total Energy =                       -383.7418891946806525
  Basis Set: (AUG-CC-PVTZ AUX)
    Blend: AUG-CC-PVTZ-RI
    Molecular point group: c1

    Geometry (in Angstrom), charge = 0, multiplicity = 1:

       Center              X                  Y                   Z               Mass
    ------------   -----------------  -----------------  -----------------  -----------------
         O            1.751615836216     0.392825150946     0.000017382254    15.994914619570
         C           -0.460079263784     0.969862650946    -0.000011717746    12.000000000000
         C            0.465575736216    -0.091956349054     0.000004282254    12.000000000000
         C           -1.819351263784     0.657435650946    -0.000017717746    12.000000000000
         C            0.037433736216    -1.422358349054     0.000006282254    12.000000000000
         C            0.040151736216     2.387109650946    -0.000007717746    12.000000000000
         C           -2.265025263784    -0.668262349054    -0.000013717746    12.000000000000
         C           -1.333532263784    -1.702533349054    -0.000001717746    12.000000000000
         C            2.762956736216    -0.730671349054     0.000018282254    12.000000000000
         H           -2.542773263784     1.471212650946    -0.000029717746     1.007825032230
         H            0.747809736216    -2.242207349054     0.000016282254     1.007825032230
         H           -0.798395263784     3.088546650946    -0.000102717746     1.007825032230
         H            0.661381736216     2.583705650946     0.878962282254     1.007825032230
         H            0.661540736216     2.583652650946    -0.878875717746     1.007825032230
         H           -3.329683263784    -0.886988349054    -0.000020717746     1.007825032230
         H           -1.663762263784    -2.738688349054     0.000000282254     1.007825032230
         H            2.681570736216    -1.357942349054    -0.894430717746     1.007825032230
         H            2.681566736216    -1.357945349054     0.894465282254     1.007825032230
         H            3.724146736216    -0.217311349054     0.000022282254     1.007825032230

  Basis Set: AUG-CC-PVTZ
    Blend: AUG-CC-PVTZ
  Basis Set: (AUG-CC-PVTZ AUX)
    Blend: AUG-CC-PVTZ-JKFIT
	 Reference Energy          =    -383.7418891946807094 [Eh]
	 Singles Energy            =      -0.0000000000000000 [Eh]
	 Same-Spin Energy          =      -0.4119403757868047 [Eh]
	 Opposite-Spin Energy      =      -1.3216710909327793 [Eh]
	 Correlation Energy        =      -1.7336114667195841 [Eh]
	 Total Energy              =    -385.4755006614003037 [Eh]

	 ================> DF-SCS-MP2 Energies <==================
	-----------------------------------------------------------
	 SCS Same-Spin Scale       =       0.3333333333333333 [-]
	 SCS Opposite-Spin Scale   =       1.2000000000000000 [-]
	 SCS Same-Spin Energy      =      -0.1373134585956016 [Eh]
	 SCS Opposite-Spin Energy  =      -1.5860053091193351 [Eh]
	 SCS Correlation Energy    =      -1.7233187677149366 [Eh]
	 SCS Total Energy          =    -385.4652079623956524 [Eh]
	-----------------------------------------------------------

  Dipole Moment: [D]
     X:     1.2110      Y:    -0.9389      Z:     0.0000     Total:     1.5323

*** Psi4 exiting successfully. Buy a developer a beer!
