                               Psi4 1.4a3.dev225

  ==> Input File <==

--------------------------------------------------------------------------
#psi4
#
memory 32 gb

molecule  {
0 1
  O        1.7572910     0.3059760     0.0000180
  C       -0.4850880     0.9739040    -0.0000120
  C        0.4405670    -0.0879150     0.0000040
  C       -1.8443600     0.6614770    -0.0000180
  C        0.0124250    -1.4183170     0.0000060
  C        0.0151430     2.3911510    -0.0000080
  C       -2.2900340    -0.6642210    -0.0000140
  C       -1.3585410    -1.6984920    -0.0000020
  C        2.7379480    -0.7266300     0.0000180
  H       -2.5677820     1.4752540    -0.0000300
  H        0.7228010    -2.2381660     0.0000160
  H       -0.8234040     3.0925880    -0.0001030
  H        0.6363730     2.5877470     0.8789620
  H        0.6365320     2.5876940    -0.8788760
  H       -3.4036691    -0.8930090    -0.0000213
  H       -1.6887710    -2.7346470     0.0000000
  H        2.6565620    -1.3539010    -0.8944310
  H        2.6565580    -1.3539040     0.8944650
  H        3.6991380    -0.2132700     0.0000220
units angstrom
no_reorient  #important for SAPT in psi4, default
symmetry c1  #important for SAPT in psi4, default
}

set PROPERTIES_ORIGIN ["COM"]
properties('MP2/aug-cc-pvtz', properties = ['dipole'])
--------------------------------------------------------------------------

    Molecular point group: c1
  Charge       = 0
  Multiplicity = 1
  Basis Set: AUG-CC-PVTZ
    Blend: AUG-CC-PVTZ
  Basis Set: (AUG-CC-PVTZ AUX)
    Blend: AUG-CC-PVTZ-JKFIT

    Orbital Energies [Eh]
    ---------------------

    Doubly Occupied:

       1A    -20.584163     2A    -11.295320     3A    -11.284406
       4A    -11.235309     5A    -11.234330     6A    -11.232430
       7A    -11.230751     8A    -11.230148     9A    -11.216274
      10A     -1.404128    11A     -1.145474    12A     -1.044717
      13A     -1.008443    14A     -0.948238    15A     -0.920976
      16A     -0.812717    17A     -0.794192    18A     -0.709060
      19A     -0.667109    20A     -0.653658    21A     -0.639771
      22A     -0.613545    23A     -0.581356    24A     -0.568620
      25A     -0.563293    26A     -0.538065    27A     -0.521087
      28A     -0.509133    29A     -0.493758    30A     -0.475579
      31A     -0.464621    32A     -0.331481    33A     -0.305502

  @DF-RHF Final Energy:  -383.75056277709803

   => Energetics <=

    Nuclear Repulsion Energy =            429.8569001063247583
    One-Electron Energy =               -1372.6996231512582654
    Two-Electron Energy =                 559.0921602678355384
    Total Energy =                       -383.7505627770980254
  Basis Set: (AUG-CC-PVTZ AUX)
    Blend: AUG-CC-PVTZ-RI
    Molecular point group: c1

    Geometry (in Angstrom), charge = 0, multiplicity = 1:

       Center              X                  Y                   Z               Mass
    ------------   -----------------  -----------------  -----------------  -----------------
         O            1.778683658813     0.313926856796     0.000018166806    15.994914619570
         C           -0.463695341187     0.981854856796    -0.000011833194    12.000000000000
         C            0.461959658813    -0.079964143204     0.000004166806    12.000000000000
         C           -1.822967341187     0.669427856796    -0.000017833194    12.000000000000
         C            0.033817658813    -1.410366143204     0.000006166806    12.000000000000
         C            0.036535658813     2.399101856796    -0.000007833194    12.000000000000
         C           -2.268641341187    -0.656270143204    -0.000013833194    12.000000000000
         C           -1.337148341187    -1.690541143204    -0.000001833194    12.000000000000
         C            2.759340658813    -0.718679143204     0.000018166806    12.000000000000
         H           -2.546389341187     1.483204856796    -0.000029833194     1.007825032230
         H            0.744193658813    -2.230215143204     0.000016166806     1.007825032230
         H           -0.802011341187     3.100538856796    -0.000102833194     1.007825032230
         H            0.657765658813     2.595697856796     0.878962166806     1.007825032230
         H            0.657924658813     2.595644856796    -0.878875833194     1.007825032230
         H           -3.382276441187    -0.885058143204    -0.000021133194     1.007825032230
         H           -1.667378341187    -2.726696143204     0.000000166806     1.007825032230
         H            2.677954658813    -1.345950143204    -0.894430833194     1.007825032230
         H            2.677950658813    -1.345953143204     0.894465166806     1.007825032230
         H            3.720530658813    -0.205319143204     0.000022166806     1.007825032230

  Basis Set: AUG-CC-PVTZ
    Blend: AUG-CC-PVTZ
  Basis Set: (AUG-CC-PVTZ AUX)
    Blend: AUG-CC-PVTZ-JKFIT
	 Reference Energy          =    -383.7505627770980254 [Eh]
	 Singles Energy            =      -0.0000000000000000 [Eh]
	 Same-Spin Energy          =      -0.4109574706625027 [Eh]
	 Opposite-Spin Energy      =      -1.3186180761851163 [Eh]
	 Correlation Energy        =      -1.7295755468476190 [Eh]
	 Total Energy              =    -385.4801383239456527 [Eh]

	 ================> DF-SCS-MP2 Energies <==================
	-----------------------------------------------------------
	 SCS Same-Spin Scale       =       0.3333333333333333 [-]
	 SCS Opposite-Spin Scale   =       1.2000000000000000 [-]
	 SCS Same-Spin Energy      =      -0.1369858235541676 [Eh]
	 SCS Opposite-Spin Energy  =      -1.5823416914221395 [Eh]
	 SCS Correlation Energy    =      -1.7193275149763072 [Eh]
	 SCS Total Energy          =    -385.4698902920743535 [Eh]
	-----------------------------------------------------------

  Dipole Moment: [D]
     X:     1.0059      Y:    -0.7296      Z:     0.0000     Total:     1.2426

*** Psi4 exiting successfully. Buy a developer a beer!
