                               Psi4 1.4a3.dev225

  ==> Input File <==

--------------------------------------------------------------------------
#psi4
#
memory 32 gb

molecule  {
0 1
  O        1.7572910     0.3059760     0.0000180
  C       -0.4850880     0.9739040    -0.0000120
  C        0.4405670    -0.0879150     0.0000040
  C       -1.8443600     0.6614770    -0.0000180
  C        0.0124250    -1.4183170     0.0000060
  C        0.0151430     2.3911510    -0.0000080
  C       -2.2900340    -0.6642210    -0.0000140
  C       -1.3585410    -1.6984920    -0.0000020
  C        2.7379480    -0.7266300     0.0000180
  H       -2.5677820     1.4752540    -0.0000300
  H        0.7228010    -2.2381660     0.0000160
  H       -0.8234040     3.0925880    -0.0001030
  H        0.6363730     2.5877470     0.8789620
  H        0.6365320     2.5876940    -0.8788760
  H       -3.3546920    -0.8829470    -0.0000210
  H       -1.6887710    -2.7346470     0.0000000
  H        2.6565620    -1.3539010    -0.8944310
  H        2.6565580    -1.3539040     0.8944650
  H        3.6814965    -0.2226921     0.0000219
units angstrom
no_reorient  #important for SAPT in psi4, default
symmetry c1  #important for SAPT in psi4, default
}

set PROPERTIES_ORIGIN ["COM"]
properties('MP2/aug-cc-pvtz', properties = ['dipole'])
--------------------------------------------------------------------------

    Molecular point group: c1
  Charge       = 0
  Multiplicity = 1
  Basis Set: AUG-CC-PVTZ
    Blend: AUG-CC-PVTZ
  Basis Set: (AUG-CC-PVTZ AUX)
    Blend: AUG-CC-PVTZ-JKFIT

    Orbital Energies [Eh]
    ---------------------

    Doubly Occupied:

       1A    -20.583791     2A    -11.294960     3A    -11.281861
       4A    -11.234672     5A    -11.233833     6A    -11.231730
       7A    -11.230242     8A    -11.224389     9A    -11.215993
      10A     -1.403823    11A     -1.145302    12A     -1.044662
      13A     -1.009462    14A     -0.949732    15A     -0.921215
      16A     -0.812931    17A     -0.796797    18A     -0.708901
      19A     -0.667630    20A     -0.653287    21A     -0.646084
      22A     -0.614386    23A     -0.582142    24A     -0.568322
      25A     -0.563616    26A     -0.538828    27A     -0.523140
      28A     -0.508774    29A     -0.496603    30A     -0.475407
      31A     -0.464175    32A     -0.331052    33A     -0.305129

  @DF-RHF Final Energy:  -383.75306209546943

   => Energetics <=

    Nuclear Repulsion Energy =            430.2002244562860369
    One-Electron Energy =               -1373.3808333589904578
    Two-Electron Energy =                 559.4275468072349895
    Total Energy =                       -383.7530620954694314
  Basis Set: (AUG-CC-PVTZ AUX)
    Blend: AUG-CC-PVTZ-RI
    Molecular point group: c1

    Geometry (in Angstrom), charge = 0, multiplicity = 1:

       Center              X                  Y                   Z               Mass
    ------------   -----------------  -----------------  -----------------  -----------------
         O            1.778424954928     0.313921573839     0.000018165155    15.994914619570
         C           -0.463954045072     0.981849573839    -0.000011834845    12.000000000000
         C            0.461700954928    -0.079969426161     0.000004165155    12.000000000000
         C           -1.823226045072     0.669422573839    -0.000017834845    12.000000000000
         C            0.033558954928    -1.410371426161     0.000006165155    12.000000000000
         C            0.036276954928     2.399096573839    -0.000007834845    12.000000000000
         C           -2.268900045072    -0.656275426161    -0.000013834845    12.000000000000
         C           -1.337407045072    -1.690546426161    -0.000001834845    12.000000000000
         C            2.759081954928    -0.718684426161     0.000018165155    12.000000000000
         H           -2.546648045072     1.483199573839    -0.000029834845     1.007825032230
         H            0.743934954928    -2.230220426161     0.000016165155     1.007825032230
         H           -0.802270045072     3.100533573839    -0.000102834845     1.007825032230
         H            0.657506954928     2.595692573839     0.878962165155     1.007825032230
         H            0.657665954928     2.595639573839    -0.878875834845     1.007825032230
         H           -3.333558045072    -0.875001426161    -0.000020834845     1.007825032230
         H           -1.667637045072    -2.726701426161     0.000000165155     1.007825032230
         H            2.677695954928    -1.345955426161    -0.894430834845     1.007825032230
         H            2.677691954928    -1.345958426161     0.894465165155     1.007825032230
         H            3.702630454928    -0.214746526161     0.000022065155     1.007825032230

  Basis Set: AUG-CC-PVTZ
    Blend: AUG-CC-PVTZ
  Basis Set: (AUG-CC-PVTZ AUX)
    Blend: AUG-CC-PVTZ-JKFIT
	 Reference Energy          =    -383.7530620954694314 [Eh]
	 Singles Energy            =      -0.0000000000000000 [Eh]
	 Same-Spin Energy          =      -0.4108610285817300 [Eh]
	 Opposite-Spin Energy      =      -1.3180571793399476 [Eh]
	 Correlation Energy        =      -1.7289182079216776 [Eh]
	 Total Energy              =    -385.4819803033910830 [Eh]

	 ================> DF-SCS-MP2 Energies <==================
	-----------------------------------------------------------
	 SCS Same-Spin Scale       =       0.3333333333333333 [-]
	 SCS Opposite-Spin Scale   =       1.2000000000000000 [-]
	 SCS Same-Spin Energy      =      -0.1369536761939100 [Eh]
	 SCS Opposite-Spin Energy  =      -1.5816686152079371 [Eh]
	 SCS Correlation Energy    =      -1.7186222914018472 [Eh]
	 SCS Total Energy          =    -385.4716843868712886 [Eh]
	-----------------------------------------------------------

  Dipole Moment: [D]
     X:     0.9937      Y:    -0.7369      Z:     0.0000     Total:     1.2371

*** Psi4 exiting successfully. Buy a developer a beer!
