                               Psi4 1.4a3.dev225

  ==> Input File <==

--------------------------------------------------------------------------
#psi4
#
memory 32 gb

molecule  {
0 1
  O        1.7572910     0.3059760     0.0000180
  C       -0.4850880     0.9739040    -0.0000120
  C        0.4405670    -0.0879150     0.0000040
  C       -1.7469013     0.6838778    -0.0000176
  C        0.0124250    -1.4183170     0.0000060
  C        0.0151430     2.3911510    -0.0000080
  C       -2.2900340    -0.6642210    -0.0000140
  C       -1.3585410    -1.6984920    -0.0000020
  C        2.7379480    -0.7266300     0.0000180
  H       -2.5677820     1.4752540    -0.0000300
  H        0.7228010    -2.2381660     0.0000160
  H       -0.8234040     3.0925880    -0.0001030
  H        0.6363730     2.5877470     0.8789620
  H        0.6365320     2.5876940    -0.8788760
  H       -3.3546920    -0.8829470    -0.0000210
  H       -1.6887710    -2.7346470     0.0000000
  H        2.6565620    -1.3539010    -0.8944310
  H        2.6565580    -1.3539040     0.8944650
  H        3.6991380    -0.2132700     0.0000220
units angstrom
no_reorient  #important for SAPT in psi4, default
symmetry c1  #important for SAPT in psi4, default
}

set PROPERTIES_ORIGIN ["COM"]
properties('MP2/aug-cc-pvtz', properties = ['dipole'])
--------------------------------------------------------------------------

    Molecular point group: c1
  Charge       = 0
  Multiplicity = 1
  Basis Set: AUG-CC-PVTZ
    Blend: AUG-CC-PVTZ
  Basis Set: (AUG-CC-PVTZ AUX)
    Blend: AUG-CC-PVTZ-JKFIT

    Orbital Energies [Eh]
    ---------------------

    Doubly Occupied:

       1A    -20.586105     2A    -11.298139     3A    -11.284699
       4A    -11.234177     5A    -11.229683     6A    -11.227722
       7A    -11.227356     8A    -11.222900     9A    -11.215776
      10A     -1.405621    11A     -1.153593    12A     -1.051503
      13A     -1.003470    14A     -0.946565    15A     -0.926682
      16A     -0.811337    17A     -0.799362    18A     -0.708374
      19A     -0.668622    20A     -0.654522    21A     -0.647009
      22A     -0.603505    23A     -0.582166    24A     -0.571309
      25A     -0.567858    26A     -0.536988    27A     -0.519577
      28A     -0.509931    29A     -0.504946    30A     -0.464914
      31A     -0.461466    32A     -0.342513    33A     -0.302523

  @DF-RHF Final Energy:  -383.74019932537720

   => Energetics <=

    Nuclear Repulsion Energy =            431.4908951793424876
    One-Electron Energy =               -1375.9203622163388445
    Two-Electron Energy =                 560.6892677116192090
    Total Energy =                       -383.7401993253771479
  Basis Set: (AUG-CC-PVTZ AUX)
    Blend: AUG-CC-PVTZ-RI
    Molecular point group: c1

    Geometry (in Angstrom), charge = 0, multiplicity = 1:

       Center              X                  Y                   Z               Mass
    ------------   -----------------  -----------------  -----------------  -----------------
         O            1.768698952117     0.311641749044     0.000018125009    15.994914619570
         C           -0.473680047883     0.979569749044    -0.000011874991    12.000000000000
         C            0.451974952117    -0.082249250956     0.000004125009    12.000000000000
         C           -1.735493347883     0.689543549044    -0.000017474991    12.000000000000
         C            0.023832952117    -1.412651250956     0.000006125009    12.000000000000
         C            0.026550952117     2.396816749044    -0.000007874991    12.000000000000
         C           -2.278626047883    -0.658555250956    -0.000013874991    12.000000000000
         C           -1.347133047883    -1.692826250956    -0.000001874991    12.000000000000
         C            2.749355952117    -0.720964250956     0.000018125009    12.000000000000
         H           -2.556374047883     1.480919749044    -0.000029874991     1.007825032230
         H            0.734208952117    -2.232500250956     0.000016125009     1.007825032230
         H           -0.811996047883     3.098253749044    -0.000102874991     1.007825032230
         H            0.647780952117     2.593412749044     0.878962125009     1.007825032230
         H            0.647939952117     2.593359749044    -0.878875874991     1.007825032230
         H           -3.343284047883    -0.877281250956    -0.000020874991     1.007825032230
         H           -1.677363047883    -2.728981250956     0.000000125009     1.007825032230
         H            2.667969952117    -1.348235250956    -0.894430874991     1.007825032230
         H            2.667965952117    -1.348238250956     0.894465125009     1.007825032230
         H            3.710545952117    -0.207604250956     0.000022125009     1.007825032230

  Basis Set: AUG-CC-PVTZ
    Blend: AUG-CC-PVTZ
  Basis Set: (AUG-CC-PVTZ AUX)
    Blend: AUG-CC-PVTZ-JKFIT
	 Reference Energy          =    -383.7401993253772048 [Eh]
	 Singles Energy            =      -0.0000000000000000 [Eh]
	 Same-Spin Energy          =      -0.4103634965513119 [Eh]
	 Opposite-Spin Energy      =      -1.3183213165010248 [Eh]
	 Correlation Energy        =      -1.7286848130523367 [Eh]
	 Total Energy              =    -385.4688841384295301 [Eh]

	 ================> DF-SCS-MP2 Energies <==================
	-----------------------------------------------------------
	 SCS Same-Spin Scale       =       0.3333333333333333 [-]
	 SCS Opposite-Spin Scale   =       1.2000000000000000 [-]
	 SCS Same-Spin Energy      =      -0.1367878321837706 [Eh]
	 SCS Opposite-Spin Energy  =      -1.5819855798012297 [Eh]
	 SCS Correlation Energy    =      -1.7187734119850002 [Eh]
	 SCS Total Energy          =    -385.4589727373622168 [Eh]
	-----------------------------------------------------------

  Dipole Moment: [D]
     X:     1.0160      Y:    -0.7510      Z:     0.0000     Total:     1.2634

*** Psi4 exiting successfully. Buy a developer a beer!
