                               Psi4 1.4a3.dev225

  ==> Input File <==

--------------------------------------------------------------------------
#psi4
#
memory 32 gb

molecule  {
0 1
  O        1.7639648     0.2829360     0.0000182
  C       -0.4850880     0.9739040    -0.0000120
  C        0.4405670    -0.0879150     0.0000040
  C       -1.8443600     0.6614770    -0.0000180
  C        0.0124250    -1.4183170     0.0000060
  C        0.0151430     2.3911510    -0.0000080
  C       -2.2900340    -0.6642210    -0.0000140
  C       -1.3585410    -1.6984920    -0.0000020
  C        2.7379480    -0.7266300     0.0000180
  H       -2.5677820     1.4752540    -0.0000300
  H        0.7228010    -2.2381660     0.0000160
  H       -0.8234040     3.0925880    -0.0001030
  H        0.6363730     2.5877470     0.8789620
  H        0.6365320     2.5876940    -0.8788760
  H       -3.3546920    -0.8829470    -0.0000210
  H       -1.6887710    -2.7346470     0.0000000
  H        2.6565620    -1.3539010    -0.8944310
  H        2.6565580    -1.3539040     0.8944650
  H        3.6991380    -0.2132700     0.0000220
units angstrom
no_reorient  #important for SAPT in psi4, default
symmetry c1  #important for SAPT in psi4, default
}

set PROPERTIES_ORIGIN ["COM"]
properties('MP2/aug-cc-pvtz', properties = ['dipole'])
--------------------------------------------------------------------------

    Molecular point group: c1
  Charge       = 0
  Multiplicity = 1
  Basis Set: AUG-CC-PVTZ
    Blend: AUG-CC-PVTZ
  Basis Set: (AUG-CC-PVTZ AUX)
    Blend: AUG-CC-PVTZ-JKFIT

    Orbital Energies [Eh]
    ---------------------

    Doubly Occupied:

       1A    -20.582644     2A    -11.295979     3A    -11.282172
       4A    -11.234961     5A    -11.234933     6A    -11.232484
       7A    -11.230312     8A    -11.224926     9A    -11.216696
      10A     -1.408979    11A     -1.146373    12A     -1.045264
      13A     -1.011013    14A     -0.948587    15A     -0.920756
      16A     -0.812910    17A     -0.797682    18A     -0.710687
      19A     -0.668468    20A     -0.656568    21A     -0.647545
      22A     -0.613956    23A     -0.584622    24A     -0.568792
      25A     -0.564158    26A     -0.539147    27A     -0.519784
      28A     -0.507575    29A     -0.497402    30A     -0.474337
      31A     -0.463300    32A     -0.331439    33A     -0.305732

  @DF-RHF Final Energy:  -383.75378253298527

   => Energetics <=

    Nuclear Repulsion Energy =            430.3129867940232884
    One-Electron Energy =               -1373.5731702912987657
    Two-Electron Energy =                 559.5064009642901510
    Total Energy =                       -383.7537825329852694
  Basis Set: (AUG-CC-PVTZ AUX)
    Blend: AUG-CC-PVTZ-RI
    Molecular point group: c1

    Geometry (in Angstrom), charge = 0, multiplicity = 1:

       Center              X                  Y                   Z               Mass
    ------------   -----------------  -----------------  -----------------  -----------------
         O            1.784078658442     0.293822654336     0.000018338124    15.994914619570
         C           -0.464974141558     0.984790654336    -0.000011861876    12.000000000000
         C            0.460680858442    -0.077028345664     0.000004138124    12.000000000000
         C           -1.824246141558     0.672363654336    -0.000017861876    12.000000000000
         C            0.032538858442    -1.407430345664     0.000006138124    12.000000000000
         C            0.035256858442     2.402037654336    -0.000007861876    12.000000000000
         C           -2.269920141558    -0.653334345664    -0.000013861876    12.000000000000
         C           -1.338427141558    -1.687605345664    -0.000001861876    12.000000000000
         C            2.758061858442    -0.715743345664     0.000018138124    12.000000000000
         H           -2.547668141558     1.486140654336    -0.000029861876     1.007825032230
         H            0.742914858442    -2.227279345664     0.000016138124     1.007825032230
         H           -0.803290141558     3.103474654336    -0.000102861876     1.007825032230
         H            0.656486858442     2.598633654336     0.878962138124     1.007825032230
         H            0.656645858442     2.598580654336    -0.878875861876     1.007825032230
         H           -3.334578141558    -0.872060345664    -0.000020861876     1.007825032230
         H           -1.668657141558    -2.723760345664     0.000000138124     1.007825032230
         H            2.676675858442    -1.343014345664    -0.894430861876     1.007825032230
         H            2.676671858442    -1.343017345664     0.894465138124     1.007825032230
         H            3.719251858442    -0.202383345664     0.000022138124     1.007825032230

  Basis Set: AUG-CC-PVTZ
    Blend: AUG-CC-PVTZ
  Basis Set: (AUG-CC-PVTZ AUX)
    Blend: AUG-CC-PVTZ-JKFIT
	 Reference Energy          =    -383.7537825329852694 [Eh]
	 Singles Energy            =      -0.0000000000000000 [Eh]
	 Same-Spin Energy          =      -0.4106748689985696 [Eh]
	 Opposite-Spin Energy      =      -1.3174718220086037 [Eh]
	 Correlation Energy        =      -1.7281466910071732 [Eh]
	 Total Energy              =    -385.4819292239924380 [Eh]

	 ================> DF-SCS-MP2 Energies <==================
	-----------------------------------------------------------
	 SCS Same-Spin Scale       =       0.3333333333333333 [-]
	 SCS Opposite-Spin Scale   =       1.2000000000000000 [-]
	 SCS Same-Spin Energy      =      -0.1368916229995232 [Eh]
	 SCS Opposite-Spin Energy  =      -1.5809661864103244 [Eh]
	 SCS Correlation Energy    =      -1.7178578094098476 [Eh]
	 SCS Total Energy          =    -385.4716403423951192 [Eh]
	-----------------------------------------------------------

  Dipole Moment: [D]
     X:     0.9183      Y:    -0.6796      Z:     0.0000     Total:     1.1425

*** Psi4 exiting successfully. Buy a developer a beer!
