                               Psi4 1.3.2 release

  ==> Input File <==

--------------------------------------------------------------------------
#psi4
#
memory 32 gb

molecule  {
0 1
  O       -1.4315460    -0.9343010     0.0017330
  O        1.4315440    -0.9343040     0.0014650
  C        0.0000000     1.0463400     0.0064820
  C       -1.3046400     0.2786040    -0.0052460
  C        1.3046430     0.2786040    -0.0050280
  H       -0.0000810     1.7100180     0.8850940
  H        0.0000800     1.7395660    -0.8486310
  H       -2.1993610     0.9396366     0.0800022
  H        2.1981330     0.9389860    -0.0193030
units angstrom
no_reorient  #important for SAPT in psi4, default
symmetry c1  #important for SAPT in psi4, default
}

set PROPERTIES_ORIGIN ["COM"]
properties('MP2/aug-cc-pvtz', properties = ['dipole'])
--------------------------------------------------------------------------

    Molecular point group: c1
  Charge       = 0
  Multiplicity = 1
  Basis Set: AUG-CC-PVTZ
    Blend: AUG-CC-PVTZ
  Basis Set: (AUG-CC-PVTZ AUX)
    Blend: AUG-CC-PVTZ-JKFIT

    Orbital Energies [Eh]
    ---------------------

    Doubly Occupied:

       1A    -20.571090     2A    -20.570912     3A    -11.352767
       4A    -11.352339     5A    -11.280154     6A     -1.401497
       7A     -1.389582     8A     -1.073298     9A     -0.878154
      10A     -0.774882    11A     -0.707312    12A     -0.650911
      13A     -0.645794    14A     -0.642207    15A     -0.604780
      16A     -0.524588    17A     -0.503971    18A     -0.463984
      19A     -0.415511

  @DF-RHF Final Energy:  -265.72244608702073

   => Energetics <=

    Nuclear Repulsion Energy =            158.7251600878146860
    One-Electron Energy =                -677.2877438430189159
    Two-Electron Energy =                 252.8401376681835586
    Total Energy =                       -265.7224460870207281
  Basis Set: (AUG-CC-PVTZ AUX)
    Blend: AUG-CC-PVTZ-RI
    Molecular point group: c1

    Geometry (in Angstrom), charge = 0, multiplicity = 1:

       Center              X                  Y                   Z               Mass
    ------------   -----------------  -----------------  -----------------  -----------------
         O           -1.431528857714    -0.861048865652     0.000294946540    15.994914619570
         O            1.431561142286    -0.861051865652     0.000026946540    15.994914619570
         C            0.000017142286     1.119592134348     0.005043946540    12.000000000000
         C           -1.304622857714     0.351856134348    -0.006684053460    12.000000000000
         C            1.304660142286     0.351856134348    -0.006466053460    12.000000000000
         H           -0.000063857714     1.783270134348     0.883655946540     1.007825032230
         H            0.000097142286     1.812818134348    -0.850069053460     1.007825032230
         H           -2.199343857714     1.012888734348     0.078564146540     1.007825032230
         H            2.198150142286     1.012238134348    -0.020741053460     1.007825032230

  Basis Set: AUG-CC-PVTZ
    Blend: AUG-CC-PVTZ
  Basis Set: (AUG-CC-PVTZ AUX)
    Blend: AUG-CC-PVTZ-JKFIT
	 Reference Energy          =    -265.7224460870207281 [Eh]
	 Singles Energy            =      -0.0000000000000000 [Eh]
	 Same-Spin Energy          =      -0.2510635310347641 [Eh]
	 Opposite-Spin Energy      =      -0.7945880487888375 [Eh]
	 Correlation Energy        =      -1.0456515798236017 [Eh]
	 Total Energy              =    -266.7680976668443122 [Eh]

	 ================> DF-SCS-MP2 Energies <==================
	-----------------------------------------------------------
	 SCS Same-Spin Scale       =       0.3333333333333333 [-]
	 SCS Opposite-Spin Scale   =       1.2000000000000000 [-]
	 SCS Same-Spin Energy      =      -0.0836878436782547 [Eh]
	 SCS Opposite-Spin Energy  =      -0.9535056585466050 [Eh]
	 SCS Correlation Energy    =      -1.0371935022248597 [Eh]
	 SCS Total Energy          =    -266.7596395892455803 [Eh]
	-----------------------------------------------------------

  Dipole Moment: [D]
     X:     0.0068      Y:     4.8803      Z:     0.0237     Total:     4.8803

*** Psi4 exiting successfully. Buy a developer a beer!
