                               Psi4 1.3.2 release

  ==> Input File <==

--------------------------------------------------------------------------
#psi4
#
memory 32 gb

molecule  {
0 1
  O       -1.4315460    -0.9343010     0.0017330
  O        1.4315440    -0.9343040     0.0014650
  C        0.0000000     1.0463400     0.0064820
  C       -1.3046400     0.2786040    -0.0052460
  C        1.3046430     0.2786040    -0.0050280
  H       -0.0000810     1.7100180     0.8850940
  H        0.0000800     1.7395660    -0.8486310
  H       -2.2012150     0.9406170     0.2299876
  H        2.1981330     0.9389860    -0.0193030
units angstrom
no_reorient  #important for SAPT in psi4, default
symmetry c1  #important for SAPT in psi4, default
}

set PROPERTIES_ORIGIN ["COM"]
properties('MP2/aug-cc-pvtz', properties = ['dipole'])
--------------------------------------------------------------------------

    Molecular point group: c1
  Charge       = 0
  Multiplicity = 1
  Basis Set: AUG-CC-PVTZ
    Blend: AUG-CC-PVTZ
  Basis Set: (AUG-CC-PVTZ AUX)
    Blend: AUG-CC-PVTZ-JKFIT

    Orbital Energies [Eh]
    ---------------------

    Doubly Occupied:

       1A    -20.572329     2A    -20.571242     3A    -11.355194
       4A    -11.352692     5A    -11.280752     6A     -1.402069
       7A     -1.390141     8A     -1.073384     9A     -0.876158
      10A     -0.772224    11A     -0.706954    12A     -0.652083
      13A     -0.647244    14A     -0.638961    15A     -0.604446
      16A     -0.524993    17A     -0.504461    18A     -0.463772
      19A     -0.414865

  @DF-RHF Final Energy:  -265.71933759635715

   => Energetics <=

    Nuclear Repulsion Energy =            158.6404169869698819
    One-Electron Energy =                -677.1115865273507097
    Two-Electron Energy =                 252.7518319440237349
    Total Energy =                       -265.7193375963571498
  Basis Set: (AUG-CC-PVTZ AUX)
    Blend: AUG-CC-PVTZ-RI
    Molecular point group: c1

    Geometry (in Angstrom), charge = 0, multiplicity = 1:

       Center              X                  Y                   Z               Mass
    ------------   -----------------  -----------------  -----------------  -----------------
         O           -1.431502913833    -0.861062584844    -0.001803868654    15.994914619570
         O            1.431587086167    -0.861065584844    -0.002071868654    15.994914619570
         C            0.000043086167     1.119578415156     0.002945131346    12.000000000000
         C           -1.304596913833     0.351842415156    -0.008782868654    12.000000000000
         C            1.304686086167     0.351842415156    -0.008564868654    12.000000000000
         H           -0.000037913833     1.783256415156     0.881557131346     1.007825032230
         H            0.000123086167     1.812804415156    -0.852167868654     1.007825032230
         H           -2.201171913833     1.013855415156     0.226450731346     1.007825032230
         H            2.198176086167     1.012224415156    -0.022839868654     1.007825032230

  Basis Set: AUG-CC-PVTZ
    Blend: AUG-CC-PVTZ
  Basis Set: (AUG-CC-PVTZ AUX)
    Blend: AUG-CC-PVTZ-JKFIT
	 Reference Energy          =    -265.7193375963571498 [Eh]
	 Singles Energy            =      -0.0000000000000000 [Eh]
	 Same-Spin Energy          =      -0.2512464877766771 [Eh]
	 Opposite-Spin Energy      =      -0.7950303432385335 [Eh]
	 Correlation Energy        =      -1.0462768310152106 [Eh]
	 Total Energy              =    -266.7656144273723839 [Eh]

	 ================> DF-SCS-MP2 Energies <==================
	-----------------------------------------------------------
	 SCS Same-Spin Scale       =       0.3333333333333333 [-]
	 SCS Opposite-Spin Scale   =       1.2000000000000000 [-]
	 SCS Same-Spin Energy      =      -0.0837488292588924 [Eh]
	 SCS Opposite-Spin Energy  =      -0.9540364118862401 [Eh]
	 SCS Correlation Energy    =      -1.0377852411451325 [Eh]
	 SCS Total Energy          =    -266.7571228375022656 [Eh]
	-----------------------------------------------------------

  Dipole Moment: [D]
     X:     0.0461      Y:     4.8447      Z:     0.0652     Total:     4.8454

*** Psi4 exiting successfully. Buy a developer a beer!
