                               Psi4 1.3.2 release

  ==> Input File <==

--------------------------------------------------------------------------
#psi4
#
memory 32 gb

molecule  {
0 1
  O       -1.4315460    -0.9343010     0.0017330
  O        1.4315440    -0.9343040     0.0014650
  C        0.0000000     1.0463400     0.0064820
  C       -1.3046400     0.2786040    -0.0052460
  C        1.3046430     0.2786040    -0.0050280
  H       -0.0000810     1.7100180     0.8850940
  H        0.0000800     1.7395660    -0.8486310
  H       -2.1987430     0.9393098     0.0300071
  H        2.1981330     0.9389860    -0.0193030
units angstrom
no_reorient  #important for SAPT in psi4, default
symmetry c1  #important for SAPT in psi4, default
}

set PROPERTIES_ORIGIN ["COM"]
properties('MP2/aug-cc-pvtz', properties = ['dipole'])
--------------------------------------------------------------------------

    Molecular point group: c1
  Charge       = 0
  Multiplicity = 1
  Basis Set: AUG-CC-PVTZ
    Blend: AUG-CC-PVTZ
  Basis Set: (AUG-CC-PVTZ AUX)
    Blend: AUG-CC-PVTZ-JKFIT

    Orbital Energies [Eh]
    ---------------------

    Doubly Occupied:

       1A    -20.570913     2A    -20.570867     3A    -11.352412
       4A    -11.352296     5A    -11.280066     6A     -1.401418
       7A     -1.389503     8A     -1.073289     9A     -0.878468
      10A     -0.775291    11A     -0.707361    12A     -0.650714
      13A     -0.645262    14A     -0.643043    15A     -0.604810
      16A     -0.524526    17A     -0.503912    18A     -0.464005
      19A     -0.415607

  @DF-RHF Final Energy:  -265.72285659817521

   => Energetics <=

    Nuclear Repulsion Energy =            158.7377673332356096
    One-Electron Energy =                -677.3137186055823804
    Two-Electron Energy =                 252.8530946741715297
    Total Energy =                       -265.7228565981752126
  Basis Set: (AUG-CC-PVTZ AUX)
    Blend: AUG-CC-PVTZ-RI
    Molecular point group: c1

    Geometry (in Angstrom), charge = 0, multiplicity = 1:

       Center              X                  Y                   Z               Mass
    ------------   -----------------  -----------------  -----------------  -----------------
         O           -1.431537505674    -0.861044292589     0.000994551138    15.994914619570
         O            1.431552494326    -0.861047292589     0.000726551138    15.994914619570
         C            0.000008494326     1.119596707411     0.005743551138    12.000000000000
         C           -1.304631505674     0.351860707411    -0.005984448862    12.000000000000
         C            1.304651494326     0.351860707411    -0.005766448862    12.000000000000
         H           -0.000072505674     1.783274707411     0.884355551138     1.007825032230
         H            0.000088494326     1.812822707411    -0.849369448862     1.007825032230
         H           -2.198734505674     1.012566507411     0.029268651138     1.007825032230
         H            2.198141494326     1.012242707411    -0.020041448862     1.007825032230

  Basis Set: AUG-CC-PVTZ
    Blend: AUG-CC-PVTZ
  Basis Set: (AUG-CC-PVTZ AUX)
    Blend: AUG-CC-PVTZ-JKFIT
	 Reference Energy          =    -265.7228565981752126 [Eh]
	 Singles Energy            =      -0.0000000000000000 [Eh]
	 Same-Spin Energy          =      -0.2510384818336507 [Eh]
	 Opposite-Spin Energy      =      -0.7945275901742892 [Eh]
	 Correlation Energy        =      -1.0455660720079401 [Eh]
	 Total Energy              =    -266.7684226701831562 [Eh]

	 ================> DF-SCS-MP2 Energies <==================
	-----------------------------------------------------------
	 SCS Same-Spin Scale       =       0.3333333333333333 [-]
	 SCS Opposite-Spin Scale   =       1.2000000000000000 [-]
	 SCS Same-Spin Energy      =      -0.0836794939445502 [Eh]
	 SCS Opposite-Spin Energy  =      -0.9534331082091470 [Eh]
	 SCS Correlation Energy    =      -1.0371126021536972 [Eh]
	 SCS Total Energy          =    -266.7599692003288965 [Eh]
	-----------------------------------------------------------

  Dipole Moment: [D]
     X:     0.0015      Y:     4.8853      Z:     0.0083     Total:     4.8853

*** Psi4 exiting successfully. Buy a developer a beer!
