                               Psi4 1.3.2 release

  ==> Input File <==

--------------------------------------------------------------------------
#psi4
#
memory 32 gb

molecule  {
0 1
  O       -1.4315460    -0.9343010     0.0017330
  O        1.4315440    -0.9343040     0.0014650
  C        0.0000000     1.0463400     0.0064820
  C       -1.3046400     0.2786040    -0.0052460
  C        1.3046430     0.2786040    -0.0050280
  H       -0.0000810     1.7100180     0.8850940
  H        0.0000800     1.7395660    -0.8486310
  H       -2.2018330     0.9409438     0.2799827
  H        2.1981330     0.9389860    -0.0193030
units angstrom
no_reorient  #important for SAPT in psi4, default
symmetry c1  #important for SAPT in psi4, default
}

set PROPERTIES_ORIGIN ["COM"]
properties('MP2/aug-cc-pvtz', properties = ['dipole'])
--------------------------------------------------------------------------

    Molecular point group: c1
  Charge       = 0
  Multiplicity = 1
  Basis Set: AUG-CC-PVTZ
    Blend: AUG-CC-PVTZ
  Basis Set: (AUG-CC-PVTZ AUX)
    Blend: AUG-CC-PVTZ-JKFIT

    Orbital Energies [Eh]
    ---------------------

    Doubly Occupied:

       1A    -20.572979     2A    -20.571419     3A    -11.356438
       4A    -11.352887     5A    -11.281066     6A     -1.402375
       7A     -1.390434     8A     -1.073446     9A     -0.875243
      10A     -0.770940    11A     -0.706766    12A     -0.652576
      13A     -0.647679    14A     -0.637754    15A     -0.604231
      16A     -0.525208    17A     -0.504729    18A     -0.463652
      19A     -0.414514

  @DF-RHF Final Energy:  -265.71756839163368

   => Energetics <=

    Nuclear Repulsion Energy =            158.5977463048953098
    One-Electron Energy =                -677.0219606666332766
    Two-Electron Energy =                 252.7066459701042902
    Total Energy =                       -265.7175683916336766
  Basis Set: (AUG-CC-PVTZ AUX)
    Blend: AUG-CC-PVTZ-RI
    Molecular point group: c1

    Geometry (in Angstrom), charge = 0, multiplicity = 1:

       Center              X                  Y                   Z               Mass
    ------------   -----------------  -----------------  -----------------  -----------------
         O           -1.431494265873    -0.861067157908    -0.002503473252    15.994914619570
         O            1.431595734127    -0.861070157908    -0.002771473252    15.994914619570
         C            0.000051734127     1.119573842092     0.002245526748    12.000000000000
         C           -1.304588265873     0.351837842092    -0.009482473252    12.000000000000
         C            1.304694734127     0.351837842092    -0.009264473252    12.000000000000
         H           -0.000029265873     1.783251842092     0.880857526748     1.007825032230
         H            0.000131734127     1.812799842092    -0.852867473252     1.007825032230
         H           -2.201781265873     1.014177642092     0.275746226748     1.007825032230
         H            2.198184734127     1.012219842092    -0.023539473252     1.007825032230

  Basis Set: AUG-CC-PVTZ
    Blend: AUG-CC-PVTZ
  Basis Set: (AUG-CC-PVTZ AUX)
    Blend: AUG-CC-PVTZ-JKFIT
	 Reference Energy          =    -265.7175683916336766 [Eh]
	 Singles Energy            =      -0.0000000000000000 [Eh]
	 Same-Spin Energy          =      -0.2513434521361554 [Eh]
	 Opposite-Spin Energy      =      -0.7952725128794642 [Eh]
	 Correlation Energy        =      -1.0466159650156197 [Eh]
	 Total Energy              =    -266.7641843566493094 [Eh]

	 ================> DF-SCS-MP2 Energies <==================
	-----------------------------------------------------------
	 SCS Same-Spin Scale       =       0.3333333333333333 [-]
	 SCS Opposite-Spin Scale   =       1.2000000000000000 [-]
	 SCS Same-Spin Energy      =      -0.0837811507120518 [Eh]
	 SCS Opposite-Spin Energy  =      -0.9543270154553570 [Eh]
	 SCS Correlation Energy    =      -1.0381081661674088 [Eh]
	 SCS Total Energy          =    -266.7556765578011095 [Eh]
	-----------------------------------------------------------

  Dipole Moment: [D]
     X:     0.0672      Y:     4.8261      Z:     0.0764     Total:     4.8272

*** Psi4 exiting successfully. Buy a developer a beer!
