                               Psi4 1.3.2 release

  ==> Input File <==

--------------------------------------------------------------------------
#psi4
#
memory 32 gb

molecule  {
0 1
  O       -1.4315460    -0.9343010     0.0017330
  O        1.4315440    -0.9343040     0.0014650
  C        0.0000000     1.0463400     0.0064820
  C       -1.3046400     0.2786040    -0.0052460
  C        1.3046430     0.2786040    -0.0050280
  H       -0.0000810     1.7100180     0.8850940
  H        0.0000800     1.7395660    -0.8486310
  H       -2.2005970     0.9402902     0.1799924
  H        2.1981330     0.9389860    -0.0193030
units angstrom
no_reorient  #important for SAPT in psi4, default
symmetry c1  #important for SAPT in psi4, default
}

set PROPERTIES_ORIGIN ["COM"]
properties('MP2/aug-cc-pvtz', properties = ['dipole'])
--------------------------------------------------------------------------

    Molecular point group: c1
  Charge       = 0
  Multiplicity = 1
  Basis Set: AUG-CC-PVTZ
    Blend: AUG-CC-PVTZ
  Basis Set: (AUG-CC-PVTZ AUX)
    Blend: AUG-CC-PVTZ-JKFIT

    Orbital Energies [Eh]
    ---------------------

    Doubly Occupied:

       1A    -20.571798     2A    -20.571099     3A    -11.354163
       4A    -11.352536     5A    -11.280496     6A     -1.401822
       7A     -1.389902     8A     -1.073342     9A     -0.876971
      10A     -0.773328    11A     -0.707108    12A     -0.651623
      13A     -0.646796    14A     -0.640121    15A     -0.604604
      16A     -0.524819    17A     -0.504245    18A     -0.463867
      19A     -0.415144

  @DF-RHF Final Energy:  -265.72071670218872

   => Energetics <=

    Nuclear Repulsion Energy =            158.6761614236384048
    One-Electron Energy =                -677.1861921311940478
    Two-Electron Energy =                 252.7893140053669470
    Total Energy =                       -265.7207167021887244
  Basis Set: (AUG-CC-PVTZ AUX)
    Blend: AUG-CC-PVTZ-RI
    Molecular point group: c1

    Geometry (in Angstrom), charge = 0, multiplicity = 1:

       Center              X                  Y                   Z               Mass
    ------------   -----------------  -----------------  -----------------  -----------------
         O           -1.431511561793    -0.861058011780    -0.001104262657    15.994914619570
         O            1.431578438207    -0.861061011780    -0.001372262657    15.994914619570
         C            0.000034438207     1.119582988220     0.003644737343    12.000000000000
         C           -1.304605561793     0.351846988220    -0.008083262657    12.000000000000
         C            1.304677438207     0.351846988220    -0.007865262657    12.000000000000
         H           -0.000046561793     1.783260988220     0.882256737343     1.007825032230
         H            0.000114438207     1.812808988220    -0.851468262657     1.007825032230
         H           -2.200562561793     1.013533188220     0.177155137343     1.007825032230
         H            2.198167438207     1.012228988220    -0.022140262657     1.007825032230

  Basis Set: AUG-CC-PVTZ
    Blend: AUG-CC-PVTZ
  Basis Set: (AUG-CC-PVTZ AUX)
    Blend: AUG-CC-PVTZ-JKFIT
	 Reference Energy          =    -265.7207167021887244 [Eh]
	 Singles Energy            =      -0.0000000000000000 [Eh]
	 Same-Spin Energy          =      -0.2511675010477190 [Eh]
	 Opposite-Spin Energy      =      -0.7948371106380253 [Eh]
	 Correlation Energy        =      -1.0460046116857442 [Eh]
	 Total Energy              =    -266.7667213138744842 [Eh]

	 ================> DF-SCS-MP2 Energies <==================
	-----------------------------------------------------------
	 SCS Same-Spin Scale       =       0.3333333333333333 [-]
	 SCS Opposite-Spin Scale   =       1.2000000000000000 [-]
	 SCS Same-Spin Energy      =      -0.0837225003492397 [Eh]
	 SCS Opposite-Spin Energy  =      -0.9538045327656304 [Eh]
	 SCS Correlation Energy    =      -1.0375270331148700 [Eh]
	 SCS Total Energy          =    -266.7582437353036084 [Eh]
	-----------------------------------------------------------

  Dipole Moment: [D]
     X:     0.0291      Y:     4.8600      Z:     0.0524     Total:     4.8603

*** Psi4 exiting successfully. Buy a developer a beer!
