                               Psi4 1.3.2 release

  ==> Input File <==

--------------------------------------------------------------------------
#psi4
#
memory 32 gb

molecule  {
0 1
  O       -1.4315460    -0.9343010     0.0017330
  O        1.4315440    -0.9343040     0.0014650
  C        0.0000000     1.0463400     0.0064820
  C       -1.3046400     0.2786040    -0.0052460
  C        1.3046430     0.2786040    -0.0050280
  H       -0.0000810     1.7100180     0.8850940
  H        0.0000800     1.7395660    -0.8486310
  H       -2.1999790     0.9399634     0.1299973
  H        2.1981330     0.9389860    -0.0193030
units angstrom
no_reorient  #important for SAPT in psi4, default
symmetry c1  #important for SAPT in psi4, default
}

set PROPERTIES_ORIGIN ["COM"]
properties('MP2/aug-cc-pvtz', properties = ['dipole'])
--------------------------------------------------------------------------

    Molecular point group: c1
  Charge       = 0
  Multiplicity = 1
  Basis Set: AUG-CC-PVTZ
    Blend: AUG-CC-PVTZ
  Basis Set: (AUG-CC-PVTZ AUX)
    Blend: AUG-CC-PVTZ-JKFIT

    Orbital Energies [Eh]
    ---------------------

    Doubly Occupied:

       1A    -20.571385     2A    -20.570989     3A    -11.353352
       4A    -11.352419     5A    -11.280297     6A     -1.401631
       7A     -1.389715     8A     -1.073315     9A     -0.877646
      10A     -0.774222    11A     -0.707227    12A     -0.651223
      13A     -0.646316    14A     -0.641212    15A     -0.604713
      16A     -0.524685    17A     -0.504083    18A     -0.463937
      19A     -0.415358

  @DF-RHF Final Energy:  -265.72174176493650

   => Energetics <=

    Nuclear Repulsion Energy =            158.7045323943119968
    One-Electron Energy =                -677.2450969187800638
    Two-Electron Energy =                 252.8188227595315709
    Total Energy =                       -265.7217417649364961
  Basis Set: (AUG-CC-PVTZ AUX)
    Blend: AUG-CC-PVTZ-RI
    Molecular point group: c1

    Geometry (in Angstrom), charge = 0, multiplicity = 1:

       Center              X                  Y                   Z               Mass
    ------------   -----------------  -----------------  -----------------  -----------------
         O           -1.431520209754    -0.861053438716    -0.000404658058    15.994914619570
         O            1.431569790246    -0.861056438716    -0.000672658058    15.994914619570
         C            0.000025790246     1.119587561284     0.004344341942    12.000000000000
         C           -1.304614209754     0.351851561284    -0.007383658058    12.000000000000
         C            1.304668790246     0.351851561284    -0.007165658058    12.000000000000
         H           -0.000055209754     1.783265561284     0.882956341942     1.007825032230
         H            0.000105790246     1.812813561284    -0.850768658058     1.007825032230
         H           -2.199953209754     1.013210961284     0.127859641942     1.007825032230
         H            2.198158790246     1.012233561284    -0.021440658058     1.007825032230

  Basis Set: AUG-CC-PVTZ
    Blend: AUG-CC-PVTZ
  Basis Set: (AUG-CC-PVTZ AUX)
    Blend: AUG-CC-PVTZ-JKFIT
	 Reference Energy          =    -265.7217417649364961 [Eh]
	 Singles Energy            =      -0.0000000000000000 [Eh]
	 Same-Spin Energy          =      -0.2511065221308382 [Eh]
	 Opposite-Spin Energy      =      -0.7946904929608769 [Eh]
	 Correlation Energy        =      -1.0457970150917151 [Eh]
	 Total Energy              =    -266.7675387800281896 [Eh]

	 ================> DF-SCS-MP2 Energies <==================
	-----------------------------------------------------------
	 SCS Same-Spin Scale       =       0.3333333333333333 [-]
	 SCS Opposite-Spin Scale   =       1.2000000000000000 [-]
	 SCS Same-Spin Energy      =      -0.0837021740436127 [Eh]
	 SCS Opposite-Spin Energy  =      -0.9536285915530522 [Eh]
	 SCS Correlation Energy    =      -1.0373307655966650 [Eh]
	 SCS Total Energy          =    -266.7590725305331603 [Eh]
	-----------------------------------------------------------

  Dipole Moment: [D]
     X:     0.0160      Y:     4.8718      Z:     0.0385     Total:     4.8720

*** Psi4 exiting successfully. Buy a developer a beer!
