                               Psi4 1.3.2 release

  ==> Input File <==

--------------------------------------------------------------------------
#psi4
#
memory 32 gb

molecule  {
0 1
  O        1.2124500     1.3700530     0.1515380
  N        0.1427500    -0.6487220     0.1416610
  C       -1.0476789     0.0305633     0.5515497
  C       -1.8677030     0.7309230    -0.4520330
  C       -2.3504550    -0.6533510    -0.1177550
  C        1.2591160     0.1464980     0.0338830
  C        2.5505780    -0.6050550    -0.2234900
  H       -1.1925980     0.1934600     1.5874600
  H       -1.3884710     0.8830910    -1.4118110
  H       -2.4217970     1.5840980    -0.0766820
  H       -3.2439410    -0.7654290     0.4871790
  H       -2.2070070    -1.4283180    -0.8637610
  H        0.2699340    -1.6514040     0.2090110
  H        2.3939820    -1.5096060    -0.8170840
  H        3.2379790     0.0608480    -0.7453890
  H        3.0059730    -0.8892320     0.7302270
units angstrom
no_reorient  #important for SAPT in psi4, default
symmetry c1  #important for SAPT in psi4, default
}

set PROPERTIES_ORIGIN ["COM"]
properties('MP2/aug-cc-pvtz', properties = ['dipole'])
--------------------------------------------------------------------------

    Molecular point group: c1
  Charge       = 0
  Multiplicity = 1
  Basis Set: AUG-CC-PVTZ
    Blend: AUG-CC-PVTZ
  Basis Set: (AUG-CC-PVTZ AUX)
    Blend: AUG-CC-PVTZ-JKFIT

    Orbital Energies [Eh]
    ---------------------

    Doubly Occupied:

       1A    -20.516997     2A    -15.588563     3A    -11.348702
       4A    -11.271667     5A    -11.237624     6A    -11.231846
       7A    -11.230758     8A     -1.373314     9A     -1.239017
      10A     -1.113274    11A     -1.001619    12A     -0.841417
      13A     -0.831306    14A     -0.773983    15A     -0.708873
      16A     -0.670871    17A     -0.645063    18A     -0.607795
      19A     -0.594894    20A     -0.574168    21A     -0.548847
      22A     -0.521398    23A     -0.517006    24A     -0.465337
      25A     -0.422847    26A     -0.401080    27A     -0.381465

  @DF-RHF Final Energy:  -323.97979195999170

   => Energetics <=

    Nuclear Repulsion Energy =            302.0027702241639531
    One-Electron Energy =               -1038.6456635256129175
    Two-Electron Energy =                 412.6631013414573204
    Total Energy =                       -323.9797919599917009
  Basis Set: (AUG-CC-PVTZ AUX)
    Blend: AUG-CC-PVTZ-RI
    Molecular point group: c1

    Geometry (in Angstrom), charge = 0, multiplicity = 1:

       Center              X                  Y                   Z               Mass
    ------------   -----------------  -----------------  -----------------  -----------------
         O            1.188625906385     1.318829180308     0.141388609108    15.994914619570
         N            0.118925906385    -0.699945819692     0.131511609108    14.003074004430
         C           -1.071502993615    -0.020660519692     0.541400309108    12.000000000000
         C           -1.891527093615     0.679699180308    -0.462182390892    12.000000000000
         C           -2.374279093615    -0.704574819692    -0.127904390892    12.000000000000
         C            1.235291906385     0.095274180308     0.023733609108    12.000000000000
         C            2.526753906385    -0.656278819692    -0.233639390892    12.000000000000
         H           -1.216422093615     0.142236180308     1.577310609108     1.007825032230
         H           -1.412295093615     0.831867180308    -1.421960390892     1.007825032230
         H           -2.445621093615     1.532874180308    -0.086831390892     1.007825032230
         H           -3.267765093615    -0.816652819692     0.477029609108     1.007825032230
         H           -2.230831093615    -1.479541819692    -0.873910390892     1.007825032230
         H            0.246109906385    -1.702627819692     0.198861609108     1.007825032230
         H            2.370157906385    -1.560829819692    -0.827233390892     1.007825032230
         H            3.214154906385     0.009624180308    -0.755538390892     1.007825032230
         H            2.982148906385    -0.940455819692     0.720077609108     1.007825032230

  Basis Set: AUG-CC-PVTZ
    Blend: AUG-CC-PVTZ
  Basis Set: (AUG-CC-PVTZ AUX)
    Blend: AUG-CC-PVTZ-JKFIT
	 Reference Energy          =    -323.9797919599917009 [Eh]
	 Singles Energy            =      -0.0000000000000000 [Eh]
	 Same-Spin Energy          =      -0.3342730947953743 [Eh]
	 Opposite-Spin Energy      =      -1.0908749007495422 [Eh]
	 Correlation Energy        =      -1.4251479955449164 [Eh]
	 Total Energy              =    -325.4049399555366335 [Eh]

	 ================> DF-SCS-MP2 Energies <==================
	-----------------------------------------------------------
	 SCS Same-Spin Scale       =       0.3333333333333333 [-]
	 SCS Opposite-Spin Scale   =       1.2000000000000000 [-]
	 SCS Same-Spin Energy      =      -0.1114243649317914 [Eh]
	 SCS Opposite-Spin Energy  =      -1.3090498808994506 [Eh]
	 SCS Correlation Energy    =      -1.4204742458312420 [Eh]
	 SCS Total Energy          =    -325.4002662058229589 [Eh]
	-----------------------------------------------------------

  Dipole Moment: [D]
     X:    -0.6330      Y:    -3.3514      Z:     0.0654     Total:     3.4113

*** Psi4 exiting successfully. Buy a developer a beer!
