                               Psi4 1.3.2 release

  ==> Input File <==

--------------------------------------------------------------------------
#psi4
#
memory 32 gb

molecule  {
0 1
  O        1.2124500     1.3700530     0.1515380
  N        0.1427500    -0.6487220     0.1416610
  C       -1.2050801    -0.0635981     0.5702144
  C       -1.8677030     0.7309230    -0.4520330
  C       -2.3504550    -0.6533510    -0.1177550
  C        1.2591160     0.1464980     0.0338830
  C        2.5505780    -0.6050550    -0.2234900
  H       -1.1925980     0.1934600     1.5874600
  H       -1.3884710     0.8830910    -1.4118110
  H       -2.4217970     1.5840980    -0.0766820
  H       -3.2439410    -0.7654290     0.4871790
  H       -2.2070070    -1.4283180    -0.8637610
  H        0.2699340    -1.6514040     0.2090110
  H        2.3939820    -1.5096060    -0.8170840
  H        3.2379790     0.0608480    -0.7453890
  H        3.0059730    -0.8892320     0.7302270
units angstrom
no_reorient  #important for SAPT in psi4, default
symmetry c1  #important for SAPT in psi4, default
}

set PROPERTIES_ORIGIN ["COM"]
properties('MP2/aug-cc-pvtz', properties = ['dipole'])
--------------------------------------------------------------------------

    Molecular point group: c1
  Charge       = 0
  Multiplicity = 1
  Basis Set: AUG-CC-PVTZ
    Blend: AUG-CC-PVTZ
  Basis Set: (AUG-CC-PVTZ AUX)
    Blend: AUG-CC-PVTZ-JKFIT

    Orbital Energies [Eh]
    ---------------------

    Doubly Occupied:

       1A    -20.511284     2A    -15.582594     3A    -11.346158
       4A    -11.271673     5A    -11.235318     6A    -11.233137
       7A    -11.226755     8A     -1.365113     9A     -1.225000
      10A     -1.138672    11A     -0.996147    12A     -0.838674
      13A     -0.832597    14A     -0.768972    15A     -0.698648
      16A     -0.673718    17A     -0.652276    18A     -0.605875
      19A     -0.596991    20A     -0.567385    21A     -0.533217
      22A     -0.521949    23A     -0.512616    24A     -0.448296
      25A     -0.445652    26A     -0.414185    27A     -0.387942

  @DF-RHF Final Energy:  -323.98434993610016

   => Energetics <=

    Nuclear Repulsion Energy =            301.1984799025799475
    One-Electron Energy =               -1037.1039743097346673
    Two-Electron Energy =                 411.9211444710545607
    Total Energy =                       -323.9843499361001591
  Basis Set: (AUG-CC-PVTZ AUX)
    Blend: AUG-CC-PVTZ-RI
    Molecular point group: c1

    Geometry (in Angstrom), charge = 0, multiplicity = 1:

       Center              X                  Y                   Z               Mass
    ------------   -----------------  -----------------  -----------------  -----------------
         O            1.207691664333     1.330234801487     0.139127783572    15.994914619570
         N            0.137991664333    -0.688540198513     0.129250783572    14.003074004430
         C           -1.209838435667    -0.103416298513     0.557804183572    12.000000000000
         C           -1.872461335667     0.691104801487    -0.464443216428    12.000000000000
         C           -2.355213335667    -0.693169198513    -0.130165216428    12.000000000000
         C            1.254357664333     0.106679801487     0.021472783572    12.000000000000
         C            2.545819664333    -0.644873198513    -0.235900216428    12.000000000000
         H           -1.197356335667     0.153641801487     1.575049783572     1.007825032230
         H           -1.393229335667     0.843272801487    -1.424221216428     1.007825032230
         H           -2.426555335667     1.544279801487    -0.089092216428     1.007825032230
         H           -3.248699335667    -0.805247198513     0.474768783572     1.007825032230
         H           -2.211765335667    -1.468136198513    -0.876171216428     1.007825032230
         H            0.265175664333    -1.691222198513     0.196600783572     1.007825032230
         H            2.389223664333    -1.549424198513    -0.829494216428     1.007825032230
         H            3.233220664333     0.021029801487    -0.757799216428     1.007825032230
         H            3.001214664333    -0.929050198513     0.717816783572     1.007825032230

  Basis Set: AUG-CC-PVTZ
    Blend: AUG-CC-PVTZ
  Basis Set: (AUG-CC-PVTZ AUX)
    Blend: AUG-CC-PVTZ-JKFIT
	 Reference Energy          =    -323.9843499361001591 [Eh]
	 Singles Energy            =      -0.0000000000000000 [Eh]
	 Same-Spin Energy          =      -0.3333534725964633 [Eh]
	 Opposite-Spin Energy      =      -1.0887757323591369 [Eh]
	 Correlation Energy        =      -1.4221292049556002 [Eh]
	 Total Energy              =    -325.4064791410557405 [Eh]

	 ================> DF-SCS-MP2 Energies <==================
	-----------------------------------------------------------
	 SCS Same-Spin Scale       =       0.3333333333333333 [-]
	 SCS Opposite-Spin Scale   =       1.2000000000000000 [-]
	 SCS Same-Spin Energy      =      -0.1111178241988211 [Eh]
	 SCS Opposite-Spin Energy  =      -1.3065308788309642 [Eh]
	 SCS Correlation Energy    =      -1.4176487030297853 [Eh]
	 SCS Total Energy          =    -325.4019986391299426 [Eh]
	-----------------------------------------------------------

  Dipole Moment: [D]
     X:    -0.9913      Y:    -3.4142      Z:     0.1327     Total:     3.5576

*** Psi4 exiting successfully. Buy a developer a beer!
