                               Psi4 1.3.2 release

  ==> Input File <==

--------------------------------------------------------------------------
#psi4
#
memory 32 gb

molecule  {
0 1
  O        1.2124500     1.3700530     0.1515380
  N        0.1427500    -0.6487220     0.1416610
  C       -1.0954054    -0.0569580     0.5458202
  C       -1.8677030     0.7309230    -0.4520330
  C       -2.3504550    -0.6533510    -0.1177550
  C        1.2591160     0.1464980     0.0338830
  C        2.5505780    -0.6050550    -0.2234900
  H       -1.1925980     0.1934600     1.5874600
  H       -1.3884710     0.8830910    -1.4118110
  H       -2.4217970     1.5840980    -0.0766820
  H       -3.2439410    -0.7654290     0.4871790
  H       -2.2070070    -1.4283180    -0.8637610
  H        0.2699340    -1.6514040     0.2090110
  H        2.3939820    -1.5096060    -0.8170840
  H        3.2379790     0.0608480    -0.7453890
  H        3.0059730    -0.8892320     0.7302270
units angstrom
no_reorient  #important for SAPT in psi4, default
symmetry c1  #important for SAPT in psi4, default
}

set PROPERTIES_ORIGIN ["COM"]
properties('MP2/aug-cc-pvtz', properties = ['dipole'])
--------------------------------------------------------------------------

    Molecular point group: c1
  Charge       = 0
  Multiplicity = 1
  Basis Set: AUG-CC-PVTZ
    Blend: AUG-CC-PVTZ
  Basis Set: (AUG-CC-PVTZ AUX)
    Blend: AUG-CC-PVTZ-JKFIT

    Orbital Energies [Eh]
    ---------------------

    Doubly Occupied:

       1A    -20.516252     2A    -15.587469     3A    -11.349598
       4A    -11.268742     5A    -11.237947     6A    -11.232305
       7A    -11.227998     8A     -1.371667     9A     -1.239443
      10A     -1.120606    11A     -1.001928    12A     -0.841158
      13A     -0.831844    14A     -0.772513    15A     -0.704804
      16A     -0.672456    17A     -0.649580    18A     -0.608223
      19A     -0.594188    20A     -0.572398    21A     -0.547515
      22A     -0.520434    23A     -0.516379    24A     -0.452998
      25A     -0.426266    26A     -0.412192    27A     -0.387914

  @DF-RHF Final Energy:  -323.99174340961787

   => Energetics <=

    Nuclear Repulsion Energy =            301.9769604207488669
    One-Electron Energy =               -1038.6077791547068045
    Two-Electron Energy =                 412.6390753243401264
    Total Energy =                       -323.9917434096178681
  Basis Set: (AUG-CC-PVTZ AUX)
    Blend: AUG-CC-PVTZ-RI
    Molecular point group: c1

    Geometry (in Angstrom), charge = 0, multiplicity = 1:

       Center              X                  Y                   Z               Mass
    ------------   -----------------  -----------------  -----------------  -----------------
         O            1.194406941706     1.329430496696     0.142082614364    15.994914619570
         N            0.124706941706    -0.689344503304     0.132205614364    14.003074004430
         C           -1.113448458294    -0.097580503304     0.536364814364    12.000000000000
         C           -1.885746058294     0.690300496696    -0.461488385636    12.000000000000
         C           -2.368498058294    -0.693973503304    -0.127210385636    12.000000000000
         C            1.241072941706     0.105875496696     0.024427614364    12.000000000000
         C            2.532534941706    -0.645677503304    -0.232945385636    12.000000000000
         H           -1.210641058294     0.152837496696     1.578004614364     1.007825032230
         H           -1.406514058294     0.842468496696    -1.421266385636     1.007825032230
         H           -2.439840058294     1.543475496696    -0.086137385636     1.007825032230
         H           -3.261984058294    -0.806051503304     0.477723614364     1.007825032230
         H           -2.225050058294    -1.468940503304    -0.873216385636     1.007825032230
         H            0.251890941706    -1.692026503304     0.199555614364     1.007825032230
         H            2.375938941706    -1.550228503304    -0.826539385636     1.007825032230
         H            3.219935941706     0.020225496696    -0.754844385636     1.007825032230
         H            2.987929941706    -0.929854503304     0.720771614364     1.007825032230

  Basis Set: AUG-CC-PVTZ
    Blend: AUG-CC-PVTZ
  Basis Set: (AUG-CC-PVTZ AUX)
    Blend: AUG-CC-PVTZ-JKFIT
	 Reference Energy          =    -323.9917434096178681 [Eh]
	 Singles Energy            =      -0.0000000000000000 [Eh]
	 Same-Spin Energy          =      -0.3336394429649873 [Eh]
	 Opposite-Spin Energy      =      -1.0892765945506955 [Eh]
	 Correlation Energy        =      -1.4229160375156829 [Eh]
	 Total Energy              =    -325.4146594471335447 [Eh]

	 ================> DF-SCS-MP2 Energies <==================
	-----------------------------------------------------------
	 SCS Same-Spin Scale       =       0.3333333333333333 [-]
	 SCS Opposite-Spin Scale   =       1.2000000000000000 [-]
	 SCS Same-Spin Energy      =      -0.1112131476549958 [Eh]
	 SCS Opposite-Spin Energy  =      -1.3071319134608346 [Eh]
	 SCS Correlation Energy    =      -1.4183450611158304 [Eh]
	 SCS Total Energy          =    -325.4100884707336832 [Eh]
	-----------------------------------------------------------

  Dipole Moment: [D]
     X:    -0.6882      Y:    -3.4180      Z:     0.0686     Total:     3.4872

*** Psi4 exiting successfully. Buy a developer a beer!
