                               Psi4 1.3.2 release

  ==> Input File <==

--------------------------------------------------------------------------
#psi4
#
memory 32 gb

molecule  {
0 1
  O        1.2124500     1.3700530     0.1515380
  N        0.1050826    -0.6590674     0.0497656
  C       -1.1170200    -0.1018270     0.5422150
  C       -1.8677030     0.7309230    -0.4520330
  C       -2.3504550    -0.6533510    -0.1177550
  C        1.2591160     0.1464980     0.0338830
  C        2.5505780    -0.6050550    -0.2234900
  H       -1.1925980     0.1934600     1.5874600
  H       -1.3884710     0.8830910    -1.4118110
  H       -2.4217970     1.5840980    -0.0766820
  H       -3.2439410    -0.7654290     0.4871790
  H       -2.2070070    -1.4283180    -0.8637610
  H        0.2699340    -1.6514040     0.2090110
  H        2.3939820    -1.5096060    -0.8170840
  H        3.2379790     0.0608480    -0.7453890
  H        3.0059730    -0.8892320     0.7302270
units angstrom
no_reorient  #important for SAPT in psi4, default
symmetry c1  #important for SAPT in psi4, default
}

set PROPERTIES_ORIGIN ["COM"]
properties('MP2/aug-cc-pvtz', properties = ['dipole'])
--------------------------------------------------------------------------

    Molecular point group: c1
  Charge       = 0
  Multiplicity = 1
  Basis Set: AUG-CC-PVTZ
    Blend: AUG-CC-PVTZ
  Basis Set: (AUG-CC-PVTZ AUX)
    Blend: AUG-CC-PVTZ-JKFIT

    Orbital Energies [Eh]
    ---------------------

    Doubly Occupied:

       1A    -20.523714     2A    -15.587381     3A    -11.355096
       4A    -11.266637     5A    -11.240277     6A    -11.229749
       7A    -11.223811     8A     -1.373333     9A     -1.237543
      10A     -1.119032    11A     -1.003389    12A     -0.834655
      13A     -0.828531    14A     -0.766080    15A     -0.703888
      16A     -0.672595    17A     -0.647655    18A     -0.608081
      19A     -0.595278    20A     -0.574144    21A     -0.547428
      22A     -0.519005    23A     -0.513771    24A     -0.447317
      25A     -0.435043    26A     -0.416523    27A     -0.386897

  @DF-RHF Final Energy:  -323.98977278618702

   => Energetics <=

    Nuclear Repulsion Energy =            301.6446200483593998
    One-Electron Energy =               -1037.9550780483107246
    Two-Electron Energy =                 412.3206852137642500
    Total Energy =                       -323.9897727861870180
  Basis Set: (AUG-CC-PVTZ AUX)
    Blend: AUG-CC-PVTZ-RI
    Molecular point group: c1

    Geometry (in Angstrom), charge = 0, multiplicity = 1:

       Center              X                  Y                   Z               Mass
    ------------   -----------------  -----------------  -----------------  -----------------
         O            1.202349277297     1.336327704139     0.155508492849    15.994914619570
         N            0.094981877297    -0.692792695861     0.053736092849    14.003074004430
         C           -1.127120722703    -0.135552295861     0.546185492849    12.000000000000
         C           -1.877803722703     0.697197704139    -0.448062507151    12.000000000000
         C           -2.360555722703    -0.687076295861    -0.113784507151    12.000000000000
         C            1.249015277297     0.112772704139     0.037853492849    12.000000000000
         C            2.540477277297    -0.638780295861    -0.219519507151    12.000000000000
         H           -1.202698722703     0.159734704139     1.591430492849     1.007825032230
         H           -1.398571722703     0.849365704139    -1.407840507151     1.007825032230
         H           -2.431897722703     1.550372704139    -0.072711507151     1.007825032230
         H           -3.254041722703    -0.799154295861     0.491149492849     1.007825032230
         H           -2.217107722703    -1.462043295861    -0.859790507151     1.007825032230
         H            0.259833277297    -1.685129295861     0.212981492849     1.007825032230
         H            2.383881277297    -1.543331295861    -0.813113507151     1.007825032230
         H            3.227878277297     0.027122704139    -0.741418507151     1.007825032230
         H            2.995872277297    -0.922957295861     0.734197492849     1.007825032230

  Basis Set: AUG-CC-PVTZ
    Blend: AUG-CC-PVTZ
  Basis Set: (AUG-CC-PVTZ AUX)
    Blend: AUG-CC-PVTZ-JKFIT
	 Reference Energy          =    -323.9897727861870180 [Eh]
	 Singles Energy            =      -0.0000000000000000 [Eh]
	 Same-Spin Energy          =      -0.3339006262467067 [Eh]
	 Opposite-Spin Energy      =      -1.0901213599402328 [Eh]
	 Correlation Energy        =      -1.4240219861869394 [Eh]
	 Total Energy              =    -325.4137947723739330 [Eh]

	 ================> DF-SCS-MP2 Energies <==================
	-----------------------------------------------------------
	 SCS Same-Spin Scale       =       0.3333333333333333 [-]
	 SCS Opposite-Spin Scale   =       1.2000000000000000 [-]
	 SCS Same-Spin Energy      =      -0.1113002087489022 [Eh]
	 SCS Opposite-Spin Energy  =      -1.3081456319282794 [Eh]
	 SCS Correlation Energy    =      -1.4194458406771817 [Eh]
	 SCS Total Energy          =    -325.4092186268641740 [Eh]
	-----------------------------------------------------------

  Dipole Moment: [D]
     X:    -0.4422      Y:    -3.2975      Z:     0.2478     Total:     3.3363

*** Psi4 exiting successfully. Buy a developer a beer!
