                               Psi4 1.3.2 release

  ==> Input File <==

--------------------------------------------------------------------------
#psi4
#
memory 32 gb

molecule  {
0 1
  O        1.2124500     1.3700530     0.1515380
  N        0.1427500    -0.6487220     0.1416610
  C       -1.1249944    -0.1248281     0.5477611
  C       -1.8677030     0.7309230    -0.4520330
  C       -2.3504550    -0.6533510    -0.1177550
  C        1.2591160     0.1464980     0.0338830
  C        2.5505780    -0.6050550    -0.2234900
  H       -1.1925980     0.1934600     1.5874600
  H       -1.3884710     0.8830910    -1.4118110
  H       -2.4217970     1.5840980    -0.0766820
  H       -3.2439410    -0.7654290     0.4871790
  H       -2.2070070    -1.4283180    -0.8637610
  H        0.2699340    -1.6514040     0.2090110
  H        2.3939820    -1.5096060    -0.8170840
  H        3.2379790     0.0608480    -0.7453890
  H        3.0059730    -0.8892320     0.7302270
units angstrom
no_reorient  #important for SAPT in psi4, default
symmetry c1  #important for SAPT in psi4, default
}

set PROPERTIES_ORIGIN ["COM"]
properties('MP2/aug-cc-pvtz', properties = ['dipole'])
--------------------------------------------------------------------------

    Molecular point group: c1
  Charge       = 0
  Multiplicity = 1
  Basis Set: AUG-CC-PVTZ
    Blend: AUG-CC-PVTZ
  Basis Set: (AUG-CC-PVTZ AUX)
    Blend: AUG-CC-PVTZ-JKFIT

    Orbital Energies [Eh]
    ---------------------

    Doubly Occupied:

       1A    -20.515981     2A    -15.587226     3A    -11.350582
       4A    -11.268563     5A    -11.238338     6A    -11.233824
       7A    -11.225916     8A     -1.370855     9A     -1.240062
      10A     -1.124387    11A     -1.002288    12A     -0.843102
      13A     -0.830939    14A     -0.771749    15A     -0.701710
      16A     -0.673383    17A     -0.651870    18A     -0.608549
      19A     -0.593585    20A     -0.571508    21A     -0.546265
      22A     -0.520691    23A     -0.515340    24A     -0.449108
      25A     -0.432759    26A     -0.417977    27A     -0.383100

  @DF-RHF Final Energy:  -323.99303983367633

   => Energetics <=

    Nuclear Repulsion Energy =            301.8388782755979491
    One-Electron Energy =               -1038.3245223288834040
    Two-Electron Energy =                 412.4926042196091203
    Total Energy =                       -323.9930398336763346
  Basis Set: (AUG-CC-PVTZ AUX)
    Blend: AUG-CC-PVTZ-RI
    Molecular point group: c1

    Geometry (in Angstrom), charge = 0, multiplicity = 1:

       Center              X                  Y                   Z               Mass
    ------------   -----------------  -----------------  -----------------  -----------------
         O            1.197991010391     1.337651494366     0.141847516223    15.994914619570
         N            0.128291010391    -0.681123505634     0.131970516223    14.003074004430
         C           -1.139453389609    -0.157229605634     0.538070616223    12.000000000000
         C           -1.882161989609     0.698521494366    -0.461723483777    12.000000000000
         C           -2.364913989609    -0.685752505634    -0.127445483777    12.000000000000
         C            1.244657010391     0.114096494366     0.024192516223    12.000000000000
         C            2.536119010391    -0.637456505634    -0.233180483777    12.000000000000
         H           -1.207056989609     0.161058494366     1.577769516223     1.007825032230
         H           -1.402929989609     0.850689494366    -1.421501483777     1.007825032230
         H           -2.436255989609     1.551696494366    -0.086372483777     1.007825032230
         H           -3.258399989609    -0.797830505634     0.477488516223     1.007825032230
         H           -2.221465989609    -1.460719505634    -0.873451483777     1.007825032230
         H            0.255475010391    -1.683805505634     0.199320516223     1.007825032230
         H            2.379523010391    -1.542007505634    -0.826774483777     1.007825032230
         H            3.223520010391     0.028446494366    -0.755079483777     1.007825032230
         H            2.991514010391    -0.921633505634     0.720536516223     1.007825032230

  Basis Set: AUG-CC-PVTZ
    Blend: AUG-CC-PVTZ
  Basis Set: (AUG-CC-PVTZ AUX)
    Blend: AUG-CC-PVTZ-JKFIT
	 Reference Energy          =    -323.9930398336763346 [Eh]
	 Singles Energy            =      -0.0000000000000000 [Eh]
	 Same-Spin Energy          =      -0.3335951476040941 [Eh]
	 Opposite-Spin Energy      =      -1.0890649664831047 [Eh]
	 Correlation Energy        =      -1.4226601140871988 [Eh]
	 Total Energy              =    -325.4156999477635281 [Eh]

	 ================> DF-SCS-MP2 Energies <==================
	-----------------------------------------------------------
	 SCS Same-Spin Scale       =       0.3333333333333333 [-]
	 SCS Opposite-Spin Scale   =       1.2000000000000000 [-]
	 SCS Same-Spin Energy      =      -0.1111983825346980 [Eh]
	 SCS Opposite-Spin Energy  =      -1.3068779597797255 [Eh]
	 SCS Correlation Energy    =      -1.4180763423144236 [Eh]
	 SCS Total Energy          =    -325.4111161759907418 [Eh]
	-----------------------------------------------------------

  Dipole Moment: [D]
     X:    -0.7170      Y:    -3.4734      Z:     0.0727     Total:     3.5474

*** Psi4 exiting successfully. Buy a developer a beer!
