                               Psi4 1.3.2 release

  ==> Input File <==

--------------------------------------------------------------------------
#psi4
#
memory 32 gb

molecule  {
0 1
  O        1.2124500     1.3700530     0.1515380
  N        0.1427500    -0.6487220     0.1416610
  C       -1.0289599    -0.1400559     0.5142156
  C       -1.8677030     0.7309230    -0.4520330
  C       -2.3504550    -0.6533510    -0.1177550
  C        1.2591160     0.1464980     0.0338830
  C        2.5505780    -0.6050550    -0.2234900
  H       -1.1925980     0.1934600     1.5874600
  H       -1.3884710     0.8830910    -1.4118110
  H       -2.4217970     1.5840980    -0.0766820
  H       -3.2439410    -0.7654290     0.4871790
  H       -2.2070070    -1.4283180    -0.8637610
  H        0.2699340    -1.6514040     0.2090110
  H        2.3939820    -1.5096060    -0.8170840
  H        3.2379790     0.0608480    -0.7453890
  H        3.0059730    -0.8892320     0.7302270
units angstrom
no_reorient  #important for SAPT in psi4, default
symmetry c1  #important for SAPT in psi4, default
}

set PROPERTIES_ORIGIN ["COM"]
properties('MP2/aug-cc-pvtz', properties = ['dipole'])
--------------------------------------------------------------------------

    Molecular point group: c1
  Charge       = 0
  Multiplicity = 1
  Basis Set: AUG-CC-PVTZ
    Blend: AUG-CC-PVTZ
  Basis Set: (AUG-CC-PVTZ AUX)
    Blend: AUG-CC-PVTZ-JKFIT

    Orbital Energies [Eh]
    ---------------------

    Doubly Occupied:

       1A    -20.521061     2A    -15.589737     3A    -11.353958
       4A    -11.267338     5A    -11.240844     6A    -11.234189
       7A    -11.227026     8A     -1.378395     9A     -1.263175
      10A     -1.107959    11A     -1.008779    12A     -0.855703
      13A     -0.828823    14A     -0.775127    15A     -0.704733
      16A     -0.675625    17A     -0.654299    18A     -0.611057
      19A     -0.591279    20A     -0.574019    21A     -0.556435
      22A     -0.521780    23A     -0.515222    24A     -0.453505
      25A     -0.428846    26A     -0.404735    27A     -0.375728

  @DF-RHF Final Energy:  -323.97930101553095

   => Energetics <=

    Nuclear Repulsion Energy =            302.8194985358185249
    One-Electron Energy =               -1040.1588424138683422
    Two-Electron Energy =                 413.3600428625188670
    Total Energy =                       -323.9793010155309503
  Basis Set: (AUG-CC-PVTZ AUX)
    Blend: AUG-CC-PVTZ-RI
    Molecular point group: c1

    Geometry (in Angstrom), charge = 0, multiplicity = 1:

       Center              X                  Y                   Z               Mass
    ------------   -----------------  -----------------  -----------------  -----------------
         O            1.186358503576     1.339496013651     0.145910829484    15.994914619570
         N            0.116658503576    -0.679278986349     0.136033829484    14.003074004430
         C           -1.055051396424    -0.170612886349     0.508588429484    12.000000000000
         C           -1.893794496424     0.700366013651    -0.457660170516    12.000000000000
         C           -2.376546496424    -0.683907986349    -0.123382170516    12.000000000000
         C            1.233024503576     0.115941013651     0.028255829484    12.000000000000
         C            2.524486503576    -0.635611986349    -0.229117170516    12.000000000000
         H           -1.218689496424     0.162903013651     1.581832829484     1.007825032230
         H           -1.414562496424     0.852534013651    -1.417438170516     1.007825032230
         H           -2.447888496424     1.553541013651    -0.082309170516     1.007825032230
         H           -3.270032496424    -0.795985986349     0.481551829484     1.007825032230
         H           -2.233098496424    -1.458874986349    -0.869388170516     1.007825032230
         H            0.243842503576    -1.681960986349     0.203383829484     1.007825032230
         H            2.367890503576    -1.540162986349    -0.822711170516     1.007825032230
         H            3.211887503576     0.030291013651    -0.751016170516     1.007825032230
         H            2.979881503576    -0.919788986349     0.724599829484     1.007825032230

  Basis Set: AUG-CC-PVTZ
    Blend: AUG-CC-PVTZ
  Basis Set: (AUG-CC-PVTZ AUX)
    Blend: AUG-CC-PVTZ-JKFIT
	 Reference Energy          =    -323.9793010155309503 [Eh]
	 Singles Energy            =      -0.0000000000000000 [Eh]
	 Same-Spin Energy          =      -0.3347120436733085 [Eh]
	 Opposite-Spin Energy      =      -1.0907549717043996 [Eh]
	 Correlation Energy        =      -1.4254670153777083 [Eh]
	 Total Energy              =    -325.4047680309086559 [Eh]

	 ================> DF-SCS-MP2 Energies <==================
	-----------------------------------------------------------
	 SCS Same-Spin Scale       =       0.3333333333333333 [-]
	 SCS Opposite-Spin Scale   =       1.2000000000000000 [-]
	 SCS Same-Spin Energy      =      -0.1115706812244362 [Eh]
	 SCS Opposite-Spin Energy  =      -1.3089059660452795 [Eh]
	 SCS Correlation Energy    =      -1.4204766472697157 [Eh]
	 SCS Total Energy          =    -325.3997776628006591 [Eh]
	-----------------------------------------------------------

  Dipole Moment: [D]
     X:    -0.4324      Y:    -3.4938      Z:    -0.0232     Total:     3.5205

*** Psi4 exiting successfully. Buy a developer a beer!
