                               Psi4 1.3.2 release

  ==> Input File <==

--------------------------------------------------------------------------
#psi4
#
memory 32 gb

molecule  {
0 1
  O        1.2124500     1.3700530     0.1515380
  N        0.1470100    -0.6696784     0.1867841
  C       -1.1170200    -0.1018270     0.5422150
  C       -1.8677030     0.7309230    -0.4520330
  C       -2.3504550    -0.6533510    -0.1177550
  C        1.2591160     0.1464980     0.0338830
  C        2.5505780    -0.6050550    -0.2234900
  H       -1.1925980     0.1934600     1.5874600
  H       -1.3884710     0.8830910    -1.4118110
  H       -2.4217970     1.5840980    -0.0766820
  H       -3.2439410    -0.7654290     0.4871790
  H       -2.2070070    -1.4283180    -0.8637610
  H        0.2699340    -1.6514040     0.2090110
  H        2.3939820    -1.5096060    -0.8170840
  H        3.2379790     0.0608480    -0.7453890
  H        3.0059730    -0.8892320     0.7302270
units angstrom
no_reorient  #important for SAPT in psi4, default
symmetry c1  #important for SAPT in psi4, default
}

set PROPERTIES_ORIGIN ["COM"]
properties('MP2/aug-cc-pvtz', properties = ['dipole'])
--------------------------------------------------------------------------

    Molecular point group: c1
  Charge       = 0
  Multiplicity = 1
  Basis Set: AUG-CC-PVTZ
    Blend: AUG-CC-PVTZ
  Basis Set: (AUG-CC-PVTZ AUX)
    Blend: AUG-CC-PVTZ-JKFIT

    Orbital Energies [Eh]
    ---------------------

    Doubly Occupied:

       1A    -20.518168     2A    -15.584764     3A    -11.352154
       4A    -11.268065     5A    -11.238215     6A    -11.232811
       7A    -11.227180     8A     -1.370928     9A     -1.239482
      10A     -1.124082    11A     -1.002530    12A     -0.840434
      13A     -0.831915    14A     -0.776496    15A     -0.702112
      16A     -0.673584    17A     -0.652299    18A     -0.608284
      19A     -0.594495    20A     -0.571993    21A     -0.545904
      22A     -0.520458    23A     -0.515384    24A     -0.450391
      25A     -0.432051    26A     -0.416568    27A     -0.384390

  @DF-RHF Final Energy:  -323.99268047527545

   => Energetics <=

    Nuclear Repulsion Energy =            301.6262453315439416
    One-Electron Energy =               -1037.8875756631327931
    Two-Electron Energy =                 412.2686498563134023
    Total Energy =                       -323.9926804752754492
  Basis Set: (AUG-CC-PVTZ AUX)
    Blend: AUG-CC-PVTZ-RI
    Molecular point group: c1

    Geometry (in Angstrom), charge = 0, multiplicity = 1:

       Center              X                  Y                   Z               Mass
    ------------   -----------------  -----------------  -----------------  -----------------
         O            1.196422943546     1.337827542608     0.136141268527    15.994914619570
         N            0.130982943546    -0.701903857392     0.171387368527    14.003074004430
         C           -1.133047056454    -0.134052457392     0.526818268527    12.000000000000
         C           -1.883730056454     0.698697542608    -0.467429731473    12.000000000000
         C           -2.366482056454    -0.685576457392    -0.133151731473    12.000000000000
         C            1.243088943546     0.114272542608     0.018486268527    12.000000000000
         C            2.534550943546    -0.637280457392    -0.238886731473    12.000000000000
         H           -1.208625056454     0.161234542608     1.572063268527     1.007825032230
         H           -1.404498056454     0.850865542608    -1.427207731473     1.007825032230
         H           -2.437824056454     1.551872542608    -0.092078731473     1.007825032230
         H           -3.259968056454    -0.797654457392     0.471782268527     1.007825032230
         H           -2.223034056454    -1.460543457392    -0.879157731473     1.007825032230
         H            0.253906943546    -1.683629457392     0.193614268527     1.007825032230
         H            2.377954943546    -1.541831457392    -0.832480731473     1.007825032230
         H            3.221951943546     0.028622542608    -0.760785731473     1.007825032230
         H            2.989945943546    -0.921457457392     0.714830268527     1.007825032230

  Basis Set: AUG-CC-PVTZ
    Blend: AUG-CC-PVTZ
  Basis Set: (AUG-CC-PVTZ AUX)
    Blend: AUG-CC-PVTZ-JKFIT
	 Reference Energy          =    -323.9926804752754492 [Eh]
	 Singles Energy            =      -0.0000000000000000 [Eh]
	 Same-Spin Energy          =      -0.3334593482435066 [Eh]
	 Opposite-Spin Energy      =      -1.0888539664655366 [Eh]
	 Correlation Energy        =      -1.4223133147090432 [Eh]
	 Total Energy              =    -325.4149937899844645 [Eh]

	 ================> DF-SCS-MP2 Energies <==================
	-----------------------------------------------------------
	 SCS Same-Spin Scale       =       0.3333333333333333 [-]
	 SCS Opposite-Spin Scale   =       1.2000000000000000 [-]
	 SCS Same-Spin Energy      =      -0.1111531160811689 [Eh]
	 SCS Opposite-Spin Energy  =      -1.3066247597586438 [Eh]
	 SCS Correlation Energy    =      -1.4177778758398127 [Eh]
	 SCS Total Energy          =    -325.4104583511152669 [Eh]
	-----------------------------------------------------------

  Dipole Moment: [D]
     X:    -0.6997      Y:    -3.4145      Z:    -0.0177     Total:     3.4855

*** Psi4 exiting successfully. Buy a developer a beer!
