                               Psi4 1.3.2 release

  ==> Input File <==

--------------------------------------------------------------------------
#psi4
#
memory 32 gb

molecule  {
0 1
  O        1.2124500     1.3700530     0.1515380
  N        0.1427500    -0.6487220     0.1416610
  C       -1.1325827    -0.1479888     0.5531835
  C       -1.8677030     0.7309230    -0.4520330
  C       -2.3504550    -0.6533510    -0.1177550
  C        1.2591160     0.1464980     0.0338830
  C        2.5505780    -0.6050550    -0.2234900
  H       -1.1925980     0.1934600     1.5874600
  H       -1.3884710     0.8830910    -1.4118110
  H       -2.4217970     1.5840980    -0.0766820
  H       -3.2439410    -0.7654290     0.4871790
  H       -2.2070070    -1.4283180    -0.8637610
  H        0.2699340    -1.6514040     0.2090110
  H        2.3939820    -1.5096060    -0.8170840
  H        3.2379790     0.0608480    -0.7453890
  H        3.0059730    -0.8892320     0.7302270
units angstrom
no_reorient  #important for SAPT in psi4, default
symmetry c1  #important for SAPT in psi4, default
}

set PROPERTIES_ORIGIN ["COM"]
properties('MP2/aug-cc-pvtz', properties = ['dipole'])
--------------------------------------------------------------------------

    Molecular point group: c1
  Charge       = 0
  Multiplicity = 1
  Basis Set: AUG-CC-PVTZ
    Blend: AUG-CC-PVTZ
  Basis Set: (AUG-CC-PVTZ AUX)
    Blend: AUG-CC-PVTZ-JKFIT

    Orbital Energies [Eh]
    ---------------------

    Doubly Occupied:

       1A    -20.515936     2A    -15.587248     3A    -11.350925
       4A    -11.268853     5A    -11.238480     6A    -11.234598
       7A    -11.225499     8A     -1.370644     9A     -1.240137
      10A     -1.124489    11A     -1.002386    12A     -0.844126
      13A     -0.830412    14A     -0.771749    15A     -0.700762
      16A     -0.673439    17A     -0.652083    18A     -0.608607
      19A     -0.593540    20A     -0.571400    21A     -0.546074
      22A     -0.520954    23A     -0.515045    24A     -0.451772
      25A     -0.431836    26A     -0.418626    27A     -0.380573

  @DF-RHF Final Energy:  -323.99189996991561

   => Energetics <=

    Nuclear Repulsion Energy =            301.7288137907343071
    One-Electron Energy =               -1038.1010436948758979
    Two-Electron Energy =                 412.3803299342259834
    Total Energy =                       -323.9918999699156075
  Basis Set: (AUG-CC-PVTZ AUX)
    Blend: AUG-CC-PVTZ-RI
    Molecular point group: c1

    Geometry (in Angstrom), charge = 0, multiplicity = 1:

       Center              X                  Y                   Z               Mass
    ------------   -----------------  -----------------  -----------------  -----------------
         O            1.198910169146     1.340456913258     0.141190709503    15.994914619570
         N            0.129210169146    -0.678318086742     0.131313709503    14.003074004430
         C           -1.146122530854    -0.177584886742     0.542836209503    12.000000000000
         C           -1.881242830854     0.701326913258    -0.462380290497    12.000000000000
         C           -2.363994830854    -0.682947086742    -0.128102290497    12.000000000000
         C            1.245576169146     0.116901913258     0.023535709503    12.000000000000
         C            2.537038169146    -0.634651086742    -0.233837290497    12.000000000000
         H           -1.206137830854     0.163863913258     1.577112709503     1.007825032230
         H           -1.402010830854     0.853494913258    -1.422158290497     1.007825032230
         H           -2.435336830854     1.554501913258    -0.087029290497     1.007825032230
         H           -3.257480830854    -0.795025086742     0.476831709503     1.007825032230
         H           -2.220546830854    -1.457914086742    -0.874108290497     1.007825032230
         H            0.256394169146    -1.681000086742     0.198663709503     1.007825032230
         H            2.380442169146    -1.539202086742    -0.827431290497     1.007825032230
         H            3.224439169146     0.031251913258    -0.755736290497     1.007825032230
         H            2.992433169146    -0.918828086742     0.719879709503     1.007825032230

  Basis Set: AUG-CC-PVTZ
    Blend: AUG-CC-PVTZ
  Basis Set: (AUG-CC-PVTZ AUX)
    Blend: AUG-CC-PVTZ-JKFIT
	 Reference Energy          =    -323.9918999699156075 [Eh]
	 Singles Energy            =      -0.0000000000000000 [Eh]
	 Same-Spin Energy          =      -0.3336554055402825 [Eh]
	 Opposite-Spin Energy      =      -1.0892096787739052 [Eh]
	 Correlation Energy        =      -1.4228650843141877 [Eh]
	 Total Energy              =    -325.4147650542298038 [Eh]

	 ================> DF-SCS-MP2 Energies <==================
	-----------------------------------------------------------
	 SCS Same-Spin Scale       =       0.3333333333333333 [-]
	 SCS Opposite-Spin Scale   =       1.2000000000000000 [-]
	 SCS Same-Spin Energy      =      -0.1112184685134275 [Eh]
	 SCS Opposite-Spin Energy  =      -1.3070516145286861 [Eh]
	 SCS Correlation Energy    =      -1.4182700830421135 [Eh]
	 SCS Total Energy          =    -325.4101700529577101 [Eh]
	-----------------------------------------------------------

  Dipole Moment: [D]
     X:    -0.7231      Y:    -3.4908      Z:     0.0767     Total:     3.5658

*** Psi4 exiting successfully. Buy a developer a beer!
