                               Psi4 1.3.2 release

  ==> Input File <==

--------------------------------------------------------------------------
#psi4
#
memory 32 gb

molecule  {
0 1
  O        1.2124500     1.3700530     0.1515380
  N        0.1427500    -0.6487220     0.1416610
  C       -1.1272533    -0.1245148     0.5402291
  C       -1.8677030     0.7309230    -0.4520330
  C       -2.3504550    -0.6533510    -0.1177550
  C        1.2591160     0.1464980     0.0338830
  C        2.5505780    -0.6050550    -0.2234900
  H       -1.1925980     0.1934600     1.5874600
  H       -1.3884710     0.8830910    -1.4118110
  H       -2.4217970     1.5840980    -0.0766820
  H       -3.2439410    -0.7654290     0.4871790
  H       -2.2070070    -1.4283180    -0.8637610
  H        0.2699340    -1.6514040     0.2090110
  H        2.3939820    -1.5096060    -0.8170840
  H        3.2379790     0.0608480    -0.7453890
  H        3.0059730    -0.8892320     0.7302270
units angstrom
no_reorient  #important for SAPT in psi4, default
symmetry c1  #important for SAPT in psi4, default
}

set PROPERTIES_ORIGIN ["COM"]
properties('MP2/aug-cc-pvtz', properties = ['dipole'])
--------------------------------------------------------------------------

    Molecular point group: c1
  Charge       = 0
  Multiplicity = 1
  Basis Set: AUG-CC-PVTZ
    Blend: AUG-CC-PVTZ
  Basis Set: (AUG-CC-PVTZ AUX)
    Blend: AUG-CC-PVTZ-JKFIT

    Orbital Energies [Eh]
    ---------------------

    Doubly Occupied:

       1A    -20.516008     2A    -15.587269     3A    -11.350664
       4A    -11.268714     5A    -11.238373     6A    -11.233460
       7A    -11.225631     8A     -1.370899     9A     -1.240436
      10A     -1.126145    11A     -1.002392    12A     -0.842794
      13A     -0.831250    14A     -0.771369    15A     -0.701539
      16A     -0.673781    17A     -0.652600    18A     -0.608676
      19A     -0.593257    20A     -0.571287    21A     -0.545740
      22A     -0.520522    23A     -0.515247    24A     -0.448873
      25A     -0.434174    26A     -0.418218    27A     -0.383152

  @DF-RHF Final Energy:  -323.99301092094890

   => Energetics <=

    Nuclear Repulsion Energy =            301.9230112080178401
    One-Electron Energy =               -1038.4871057377979469
    Two-Electron Energy =                 412.5710836088311453
    Total Energy =                       -323.9930109209489046
  Basis Set: (AUG-CC-PVTZ AUX)
    Blend: AUG-CC-PVTZ-RI
    Molecular point group: c1

    Geometry (in Angstrom), charge = 0, multiplicity = 1:

       Center              X                  Y                   Z               Mass
    ------------   -----------------  -----------------  -----------------  -----------------
         O            1.198264627369     1.337613544834     0.142759855448    15.994914619570
         N            0.128564627369    -0.681161455166     0.132882855448    14.003074004430
         C           -1.141438672631    -0.156954255166     0.531450955448    12.000000000000
         C           -1.881888372631     0.698483544834    -0.460811144552    12.000000000000
         C           -2.364640372631    -0.685790455166    -0.126533144552    12.000000000000
         C            1.244930627369     0.114058544834     0.025104855448    12.000000000000
         C            2.536392627369    -0.637494455166    -0.232268144552    12.000000000000
         H           -1.206783372631     0.161020544834     1.578681855448     1.007825032230
         H           -1.402656372631     0.850651544834    -1.420589144552     1.007825032230
         H           -2.435982372631     1.551658544834    -0.085460144552     1.007825032230
         H           -3.258126372631    -0.797868455166     0.478400855448     1.007825032230
         H           -2.221192372631    -1.460757455166    -0.872539144552     1.007825032230
         H            0.255748627369    -1.683843455166     0.200232855448     1.007825032230
         H            2.379796627369    -1.542045455166    -0.825862144552     1.007825032230
         H            3.223793627369     0.028408544834    -0.754167144552     1.007825032230
         H            2.991787627369    -0.921671455166     0.721448855448     1.007825032230

  Basis Set: AUG-CC-PVTZ
    Blend: AUG-CC-PVTZ
  Basis Set: (AUG-CC-PVTZ AUX)
    Blend: AUG-CC-PVTZ-JKFIT
	 Reference Energy          =    -323.9930109209489046 [Eh]
	 Singles Energy            =      -0.0000000000000000 [Eh]
	 Same-Spin Energy          =      -0.3336132745273091 [Eh]
	 Opposite-Spin Energy      =      -1.0890113261904970 [Eh]
	 Correlation Energy        =      -1.4226246007178061 [Eh]
	 Total Energy              =    -325.4156355216667293 [Eh]

	 ================> DF-SCS-MP2 Energies <==================
	-----------------------------------------------------------
	 SCS Same-Spin Scale       =       0.3333333333333333 [-]
	 SCS Opposite-Spin Scale   =       1.2000000000000000 [-]
	 SCS Same-Spin Energy      =      -0.1112044248424364 [Eh]
	 SCS Opposite-Spin Energy  =      -1.3068135914285963 [Eh]
	 SCS Correlation Energy    =      -1.4180180162710327 [Eh]
	 SCS Total Energy          =    -325.4110289372199531 [Eh]
	-----------------------------------------------------------

  Dipole Moment: [D]
     X:    -0.7174      Y:    -3.4752      Z:     0.0680     Total:     3.5491

*** Psi4 exiting successfully. Buy a developer a beer!
