                               Psi4 1.3.2 release

  ==> Input File <==

--------------------------------------------------------------------------
#psi4
#
memory 32 gb

molecule  {
0 1
  O        1.2124500     1.3700530     0.1515380
  N        0.1427500    -0.6487220     0.1416610
  C       -1.0612080     0.0324396     0.5064378
  C       -1.8677030     0.7309230    -0.4520330
  C       -2.3504550    -0.6533510    -0.1177550
  C        1.2591160     0.1464980     0.0338830
  C        2.5505780    -0.6050550    -0.2234900
  H       -1.1925980     0.1934600     1.5874600
  H       -1.3884710     0.8830910    -1.4118110
  H       -2.4217970     1.5840980    -0.0766820
  H       -3.2439410    -0.7654290     0.4871790
  H       -2.2070070    -1.4283180    -0.8637610
  H        0.2699340    -1.6514040     0.2090110
  H        2.3939820    -1.5096060    -0.8170840
  H        3.2379790     0.0608480    -0.7453890
  H        3.0059730    -0.8892320     0.7302270
units angstrom
no_reorient  #important for SAPT in psi4, default
symmetry c1  #important for SAPT in psi4, default
}

set PROPERTIES_ORIGIN ["COM"]
properties('MP2/aug-cc-pvtz', properties = ['dipole'])
--------------------------------------------------------------------------

    Molecular point group: c1
  Charge       = 0
  Multiplicity = 1
  Basis Set: AUG-CC-PVTZ
    Blend: AUG-CC-PVTZ
  Basis Set: (AUG-CC-PVTZ AUX)
    Blend: AUG-CC-PVTZ-JKFIT

    Orbital Energies [Eh]
    ---------------------

    Doubly Occupied:

       1A    -20.517287     2A    -15.588881     3A    -11.349167
       4A    -11.272995     5A    -11.237849     6A    -11.229879
       7A    -11.228852     8A     -1.373665     9A     -1.240993
      10A     -1.123722    11A     -1.002292    12A     -0.837078
      13A     -0.834679    14A     -0.772776    15A     -0.706736
      16A     -0.673093    17A     -0.649600    18A     -0.608707
      19A     -0.592945    20A     -0.572252    21A     -0.546433
      22A     -0.520095    23A     -0.517418    24A     -0.468930
      25A     -0.423308    26A     -0.404939    27A     -0.381820

  @DF-RHF Final Energy:  -323.98009082869385

   => Energetics <=

    Nuclear Repulsion Energy =            302.4834388251067594
    One-Electron Energy =               -1039.5742795712665156
    Two-Electron Energy =                 413.1107499174659097
    Total Energy =                       -323.9800908286938466
  Basis Set: (AUG-CC-PVTZ AUX)
    Blend: AUG-CC-PVTZ-RI
    Molecular point group: c1

    Geometry (in Angstrom), charge = 0, multiplicity = 1:

       Center              X                  Y                   Z               Mass
    ------------   -----------------  -----------------  -----------------  -----------------
         O            1.190264664831     1.318601907062     0.146852942073    15.994914619570
         N            0.120564664831    -0.700173092938     0.136975942073    14.003074004430
         C           -1.083393335169    -0.019011492938     0.501752742073    12.000000000000
         C           -1.889888335169     0.679471907062    -0.456718057927    12.000000000000
         C           -2.372640335169    -0.704802092938    -0.122440057927    12.000000000000
         C            1.236930664831     0.095046907062     0.029197942073    12.000000000000
         C            2.528392664831    -0.656506092938    -0.228175057927    12.000000000000
         H           -1.214783335169     0.142008907062     1.582774942073     1.007825032230
         H           -1.410656335169     0.831639907062    -1.416496057927     1.007825032230
         H           -2.443982335169     1.532646907062    -0.081367057927     1.007825032230
         H           -3.266126335169    -0.816880092938     0.482493942073     1.007825032230
         H           -2.229192335169    -1.479769092938    -0.868446057927     1.007825032230
         H            0.247748664831    -1.702855092938     0.204325942073     1.007825032230
         H            2.371796664831    -1.561057092938    -0.821769057927     1.007825032230
         H            3.215793664831     0.009396907062    -0.750074057927     1.007825032230
         H            2.983787664831    -0.940683092938     0.725541942073     1.007825032230

  Basis Set: AUG-CC-PVTZ
    Blend: AUG-CC-PVTZ
  Basis Set: (AUG-CC-PVTZ AUX)
    Blend: AUG-CC-PVTZ-JKFIT
	 Reference Energy          =    -323.9800908286938466 [Eh]
	 Singles Energy            =      -0.0000000000000000 [Eh]
	 Same-Spin Energy          =      -0.3343989442813515 [Eh]
	 Opposite-Spin Energy      =      -1.0905487636811291 [Eh]
	 Correlation Energy        =      -1.4249477079624806 [Eh]
	 Total Energy              =    -325.4050385366563205 [Eh]

	 ================> DF-SCS-MP2 Energies <==================
	-----------------------------------------------------------
	 SCS Same-Spin Scale       =       0.3333333333333333 [-]
	 SCS Opposite-Spin Scale   =       1.2000000000000000 [-]
	 SCS Same-Spin Energy      =      -0.1114663147604505 [Eh]
	 SCS Opposite-Spin Energy  =      -1.3086585164173548 [Eh]
	 SCS Correlation Energy    =      -1.4201248311778052 [Eh]
	 SCS Total Energy          =    -325.4002156598716624 [Eh]
	-----------------------------------------------------------

  Dipole Moment: [D]
     X:    -0.6255      Y:    -3.3492      Z:     0.0384     Total:     3.4073

*** Psi4 exiting successfully. Buy a developer a beer!
