                               Psi4 1.3.2 release

  ==> Input File <==

--------------------------------------------------------------------------
#psi4
#
memory 32 gb

molecule  {
0 1
  O        1.2124500     1.3700530     0.1515380
  N        0.0840036    -0.6632246     0.0046900
  C       -1.1170200    -0.1018270     0.5422150
  C       -1.8677030     0.7309230    -0.4520330
  C       -2.3504550    -0.6533510    -0.1177550
  C        1.2591160     0.1464980     0.0338830
  C        2.5505780    -0.6050550    -0.2234900
  H       -1.1925980     0.1934600     1.5874600
  H       -1.3884710     0.8830910    -1.4118110
  H       -2.4217970     1.5840980    -0.0766820
  H       -3.2439410    -0.7654290     0.4871790
  H       -2.2070070    -1.4283180    -0.8637610
  H        0.2699340    -1.6514040     0.2090110
  H        2.3939820    -1.5096060    -0.8170840
  H        3.2379790     0.0608480    -0.7453890
  H        3.0059730    -0.8892320     0.7302270
units angstrom
no_reorient  #important for SAPT in psi4, default
symmetry c1  #important for SAPT in psi4, default
}

set PROPERTIES_ORIGIN ["COM"]
properties('MP2/aug-cc-pvtz', properties = ['dipole'])
--------------------------------------------------------------------------

    Molecular point group: c1
  Charge       = 0
  Multiplicity = 1
  Basis Set: AUG-CC-PVTZ
    Blend: AUG-CC-PVTZ
  Basis Set: (AUG-CC-PVTZ AUX)
    Blend: AUG-CC-PVTZ-JKFIT

    Orbital Energies [Eh]
    ---------------------

    Doubly Occupied:

       1A    -20.528031     2A    -15.588071     3A    -11.357673
       4A    -11.265506     5A    -11.241569     6A    -11.228014
       7A    -11.222464     8A     -1.374817     9A     -1.235825
      10A     -1.115721    11A     -1.004167    12A     -0.831294
      13A     -0.826262    14A     -0.762382    15A     -0.703661
      16A     -0.672074    17A     -0.645263    18A     -0.608119
      19A     -0.596211    20A     -0.575177    21A     -0.547579
      22A     -0.518373    23A     -0.512703    24A     -0.446695
      25A     -0.437779    26A     -0.415217    27A     -0.387758

  @DF-RHF Final Energy:  -323.98596518589000

   => Energetics <=

    Nuclear Repulsion Energy =            301.4369427304263240
    One-Electron Energy =               -1037.5490025319834331
    Two-Electron Energy =                 412.1260946156670570
    Total Energy =                       -323.9859651858899952
  Basis Set: (AUG-CC-PVTZ AUX)
    Blend: AUG-CC-PVTZ-RI
    Molecular point group: c1

    Geometry (in Angstrom), charge = 0, multiplicity = 1:

       Center              X                  Y                   Z               Mass
    ------------   -----------------  -----------------  -----------------  -----------------
         O            1.205328741540     1.336915314023     0.161879816843    15.994914619570
         N            0.076882341540    -0.696362285977     0.015031816843    14.003074004430
         C           -1.124141258460    -0.134964685977     0.552556816843    12.000000000000
         C           -1.874824258460     0.697785314023    -0.441691183157    12.000000000000
         C           -2.357576258460    -0.686488685977    -0.107413183157    12.000000000000
         C            1.251994741540     0.113360314023     0.044224816843    12.000000000000
         C            2.543456741540    -0.638192685977    -0.213148183157    12.000000000000
         H           -1.199719258460     0.160322314023     1.597801816843     1.007825032230
         H           -1.395592258460     0.849953314023    -1.401469183157     1.007825032230
         H           -2.428918258460     1.550960314023    -0.066340183157     1.007825032230
         H           -3.251062258460    -0.798566685977     0.497520816843     1.007825032230
         H           -2.214128258460    -1.461455685977    -0.853419183157     1.007825032230
         H            0.262812741540    -1.684541685977     0.219352816843     1.007825032230
         H            2.386860741540    -1.542743685977    -0.806742183157     1.007825032230
         H            3.230857741540     0.027710314023    -0.735047183157     1.007825032230
         H            2.998851741540    -0.922369685977     0.740568816843     1.007825032230

  Basis Set: AUG-CC-PVTZ
    Blend: AUG-CC-PVTZ
  Basis Set: (AUG-CC-PVTZ AUX)
    Blend: AUG-CC-PVTZ-JKFIT
	 Reference Energy          =    -323.9859651858899952 [Eh]
	 Singles Energy            =      -0.0000000000000000 [Eh]
	 Same-Spin Energy          =      -0.3341470412224986 [Eh]
	 Opposite-Spin Energy      =      -1.0909539134396316 [Eh]
	 Correlation Energy        =      -1.4251009546621300 [Eh]
	 Total Energy              =    -325.4110661405521228 [Eh]

	 ================> DF-SCS-MP2 Energies <==================
	-----------------------------------------------------------
	 SCS Same-Spin Scale       =       0.3333333333333333 [-]
	 SCS Opposite-Spin Scale   =       1.2000000000000000 [-]
	 SCS Same-Spin Energy      =      -0.1113823470741662 [Eh]
	 SCS Opposite-Spin Energy  =      -1.3091446961275579 [Eh]
	 SCS Correlation Energy    =      -1.4205270432017241 [Eh]
	 SCS Total Energy          =    -325.4064922290917252 [Eh]
	-----------------------------------------------------------

  Dipole Moment: [D]
     X:    -0.2879      Y:    -3.2037      Z:     0.3352     Total:     3.2340

*** Psi4 exiting successfully. Buy a developer a beer!
