                               Psi4 1.3.2 release

  ==> Input File <==

--------------------------------------------------------------------------
#psi4
#
memory 32 gb

molecule  {
0 1
  O        1.2124500     1.3700530     0.1515380
  N        0.1497299    -0.6899430     0.2323403
  C       -1.1170200    -0.1018270     0.5422150
  C       -1.8677030     0.7309230    -0.4520330
  C       -2.3504550    -0.6533510    -0.1177550
  C        1.2591160     0.1464980     0.0338830
  C        2.5505780    -0.6050550    -0.2234900
  H       -1.1925980     0.1934600     1.5874600
  H       -1.3884710     0.8830910    -1.4118110
  H       -2.4217970     1.5840980    -0.0766820
  H       -3.2439410    -0.7654290     0.4871790
  H       -2.2070070    -1.4283180    -0.8637610
  H        0.2699340    -1.6514040     0.2090110
  H        2.3939820    -1.5096060    -0.8170840
  H        3.2379790     0.0608480    -0.7453890
  H        3.0059730    -0.8892320     0.7302270
units angstrom
no_reorient  #important for SAPT in psi4, default
symmetry c1  #important for SAPT in psi4, default
}

set PROPERTIES_ORIGIN ["COM"]
properties('MP2/aug-cc-pvtz', properties = ['dipole'])
--------------------------------------------------------------------------

    Molecular point group: c1
  Charge       = 0
  Multiplicity = 1
  Basis Set: AUG-CC-PVTZ
    Blend: AUG-CC-PVTZ
  Basis Set: (AUG-CC-PVTZ AUX)
    Blend: AUG-CC-PVTZ-JKFIT

    Orbital Energies [Eh]
    ---------------------

    Doubly Occupied:

       1A    -20.520902     2A    -15.582344     3A    -11.354368
       4A    -11.267508     5A    -11.238466     6A    -11.232452
       7A    -11.227910     8A     -1.371152     9A     -1.238565
      10A     -1.123642    11A     -1.003016    12A     -0.838537
      13A     -0.832354    14A     -0.780104    15A     -0.700923
      16A     -0.673887    17A     -0.652891    18A     -0.608099
      19A     -0.595708    20A     -0.572211    21A     -0.545239
      22A     -0.520545    23A     -0.515081    24A     -0.452178
      25A     -0.432274    26A     -0.415895    27A     -0.383704

  @DF-RHF Final Energy:  -323.98982472790857

   => Energetics <=

    Nuclear Repulsion Energy =            301.2670640593538565
    One-Electron Energy =               -1037.1538610014920323
    Two-Electron Energy =                 411.8969722142296064
    Total Energy =                       -323.9898247279085695
  Basis Set: (AUG-CC-PVTZ AUX)
    Blend: AUG-CC-PVTZ-RI
    Molecular point group: c1

    Geometry (in Angstrom), charge = 0, multiplicity = 1:

       Center              X                  Y                   Z               Mass
    ------------   -----------------  -----------------  -----------------  -----------------
         O            1.196038492443     1.340691893436     0.129702012918    15.994914619570
         N            0.133318392443    -0.719304106564     0.210504312918    14.003074004430
         C           -1.133431507557    -0.131188106564     0.520379012918    12.000000000000
         C           -1.884114507557     0.701561893436    -0.473868987082    12.000000000000
         C           -2.366866507557    -0.682712106564    -0.139590987082    12.000000000000
         C            1.242704492443     0.117136893436     0.012047012918    12.000000000000
         C            2.534166492443    -0.634416106564    -0.245325987082    12.000000000000
         H           -1.209009507557     0.164098893436     1.565624012918     1.007825032230
         H           -1.404882507557     0.853729893436    -1.433646987082     1.007825032230
         H           -2.438208507557     1.554736893436    -0.098517987082     1.007825032230
         H           -3.260352507557    -0.794790106564     0.465343012918     1.007825032230
         H           -2.223418507557    -1.457679106564    -0.885596987082     1.007825032230
         H            0.253522492443    -1.680765106564     0.187175012918     1.007825032230
         H            2.377570492443    -1.538967106564    -0.838919987082     1.007825032230
         H            3.221567492443     0.031486893436    -0.767224987082     1.007825032230
         H            2.989561492443    -0.918593106564     0.708391012918     1.007825032230

  Basis Set: AUG-CC-PVTZ
    Blend: AUG-CC-PVTZ
  Basis Set: (AUG-CC-PVTZ AUX)
    Blend: AUG-CC-PVTZ-JKFIT
	 Reference Energy          =    -323.9898247279085695 [Eh]
	 Singles Energy            =      -0.0000000000000000 [Eh]
	 Same-Spin Energy          =      -0.3334009795009196 [Eh]
	 Opposite-Spin Energy      =      -1.0889204965270798 [Eh]
	 Correlation Energy        =      -1.4223214760279994 [Eh]
	 Total Energy              =    -325.4121462039365724 [Eh]

	 ================> DF-SCS-MP2 Energies <==================
	-----------------------------------------------------------
	 SCS Same-Spin Scale       =       0.3333333333333333 [-]
	 SCS Opposite-Spin Scale   =       1.2000000000000000 [-]
	 SCS Same-Spin Energy      =      -0.1111336598336398 [Eh]
	 SCS Opposite-Spin Energy  =      -1.3067045958324957 [Eh]
	 SCS Correlation Energy    =      -1.4178382556661355 [Eh]
	 SCS Total Energy          =    -325.4076629835747099 [Eh]
	-----------------------------------------------------------

  Dipole Moment: [D]
     X:    -0.6731      Y:    -3.3566      Z:    -0.1100     Total:     3.4252

*** Psi4 exiting successfully. Buy a developer a beer!
