                               Psi4 1.3.2 release

  ==> Input File <==

--------------------------------------------------------------------------
#psi4
#
memory 32 gb

molecule  {
0 1
  O        1.2124500     1.3700530     0.1515380
  N        0.1427500    -0.6487220     0.1416610
  C       -1.0722823    -0.0128100     0.5489331
  C       -1.8677030     0.7309230    -0.4520330
  C       -2.3504550    -0.6533510    -0.1177550
  C        1.2591160     0.1464980     0.0338830
  C        2.5505780    -0.6050550    -0.2234900
  H       -1.1925980     0.1934600     1.5874600
  H       -1.3884710     0.8830910    -1.4118110
  H       -2.4217970     1.5840980    -0.0766820
  H       -3.2439410    -0.7654290     0.4871790
  H       -2.2070070    -1.4283180    -0.8637610
  H        0.2699340    -1.6514040     0.2090110
  H        2.3939820    -1.5096060    -0.8170840
  H        3.2379790     0.0608480    -0.7453890
  H        3.0059730    -0.8892320     0.7302270
units angstrom
no_reorient  #important for SAPT in psi4, default
symmetry c1  #important for SAPT in psi4, default
}

set PROPERTIES_ORIGIN ["COM"]
properties('MP2/aug-cc-pvtz', properties = ['dipole'])
--------------------------------------------------------------------------

    Molecular point group: c1
  Charge       = 0
  Multiplicity = 1
  Basis Set: AUG-CC-PVTZ
    Blend: AUG-CC-PVTZ
  Basis Set: (AUG-CC-PVTZ AUX)
    Blend: AUG-CC-PVTZ-JKFIT

    Orbital Energies [Eh]
    ---------------------

    Doubly Occupied:

       1A    -20.516566     2A    -15.587913     3A    -11.349075
       4A    -11.269819     5A    -11.237753     6A    -11.231610
       7A    -11.229752     8A     -1.372400     9A     -1.239107
      10A     -1.116941    11A     -1.001733    12A     -0.840938
      13A     -0.831803    14A     -0.773237    15A     -0.706933
      16A     -0.671632    17A     -0.647389    18A     -0.607989
      19A     -0.594642    20A     -0.573263    21A     -0.548320
      22A     -0.520728    23A     -0.516844    24A     -0.459034
      25A     -0.423656    26A     -0.404811    27A     -0.387760

  @DF-RHF Final Energy:  -323.98705315200664

   => Energetics <=

    Nuclear Repulsion Energy =            301.9963124182833099
    One-Electron Energy =               -1038.6434296442475897
    Two-Electron Energy =                 412.6600640739576420
    Total Energy =                       -323.9870531520066379
  Basis Set: (AUG-CC-PVTZ AUX)
    Blend: AUG-CC-PVTZ-RI
    Molecular point group: c1

    Geometry (in Angstrom), charge = 0, multiplicity = 1:

       Center              X                  Y                   Z               Mass
    ------------   -----------------  -----------------  -----------------  -----------------
         O            1.191606077242     1.324082919410     0.141705553720    15.994914619570
         N            0.121906077242    -0.694692080590     0.131828553720    14.003074004430
         C           -1.093126222758    -0.058780080590     0.539100653720    12.000000000000
         C           -1.888546922758     0.684952919410    -0.461865446280    12.000000000000
         C           -2.371298922758    -0.699321080590    -0.127587446280    12.000000000000
         C            1.238272077242     0.100527919410     0.024050553720    12.000000000000
         C            2.529734077242    -0.651025080590    -0.233322446280    12.000000000000
         H           -1.213441922758     0.147489919410     1.577627553720     1.007825032230
         H           -1.409314922758     0.837120919410    -1.421643446280     1.007825032230
         H           -2.442640922758     1.538127919410    -0.086514446280     1.007825032230
         H           -3.264784922758    -0.811399080590     0.477346553720     1.007825032230
         H           -2.227850922758    -1.474288080590    -0.873593446280     1.007825032230
         H            0.249090077242    -1.697374080590     0.199178553720     1.007825032230
         H            2.373138077242    -1.555576080590    -0.826916446280     1.007825032230
         H            3.217135077242     0.014877919410    -0.755221446280     1.007825032230
         H            2.985129077242    -0.935202080590     0.720394553720     1.007825032230

  Basis Set: AUG-CC-PVTZ
    Blend: AUG-CC-PVTZ
  Basis Set: (AUG-CC-PVTZ AUX)
    Blend: AUG-CC-PVTZ-JKFIT
	 Reference Energy          =    -323.9870531520066379 [Eh]
	 Singles Energy            =      -0.0000000000000000 [Eh]
	 Same-Spin Energy          =      -0.3338725478380326 [Eh]
	 Opposite-Spin Energy      =      -1.0899016571656612 [Eh]
	 Correlation Energy        =      -1.4237742050036939 [Eh]
	 Total Energy              =    -325.4108273570103051 [Eh]

	 ================> DF-SCS-MP2 Energies <==================
	-----------------------------------------------------------
	 SCS Same-Spin Scale       =       0.3333333333333333 [-]
	 SCS Opposite-Spin Scale   =       1.2000000000000000 [-]
	 SCS Same-Spin Energy      =      -0.1112908492793442 [Eh]
	 SCS Opposite-Spin Energy  =      -1.3078819885987933 [Eh]
	 SCS Correlation Energy    =      -1.4191728378781376 [Eh]
	 SCS Total Energy          =    -325.4062259898847742 [Eh]
	-----------------------------------------------------------

  Dipole Moment: [D]
     X:    -0.6622      Y:    -3.3829      Z:     0.0677     Total:     3.4478

*** Psi4 exiting successfully. Buy a developer a beer!
