                               Psi4 1.3.2 release

  ==> Input File <==

--------------------------------------------------------------------------
#psi4
#
memory 32 gb

molecule  {
0 1
  O        1.2124500     1.3700530     0.1515380
  N        0.1450722    -0.6592851     0.1641650
  C       -1.1170200    -0.1018270     0.5422150
  C       -1.8677030     0.7309230    -0.4520330
  C       -2.3504550    -0.6533510    -0.1177550
  C        1.2591160     0.1464980     0.0338830
  C        2.5505780    -0.6050550    -0.2234900
  H       -1.1925980     0.1934600     1.5874600
  H       -1.3884710     0.8830910    -1.4118110
  H       -2.4217970     1.5840980    -0.0766820
  H       -3.2439410    -0.7654290     0.4871790
  H       -2.2070070    -1.4283180    -0.8637610
  H        0.2699340    -1.6514040     0.2090110
  H        2.3939820    -1.5096060    -0.8170840
  H        3.2379790     0.0608480    -0.7453890
  H        3.0059730    -0.8892320     0.7302270
units angstrom
no_reorient  #important for SAPT in psi4, default
symmetry c1  #important for SAPT in psi4, default
}

set PROPERTIES_ORIGIN ["COM"]
properties('MP2/aug-cc-pvtz', properties = ['dipole'])
--------------------------------------------------------------------------

    Molecular point group: c1
  Charge       = 0
  Multiplicity = 1
  Basis Set: AUG-CC-PVTZ
    Blend: AUG-CC-PVTZ
  Basis Set: (AUG-CC-PVTZ AUX)
    Blend: AUG-CC-PVTZ-JKFIT

    Orbital Energies [Eh]
    ---------------------

    Doubly Occupied:

       1A    -20.517032     2A    -15.586008     3A    -11.351166
       4A    -11.268298     5A    -11.238183     6A    -11.232952
       7A    -11.226787     8A     -1.370970     9A     -1.239804
      10A     -1.124217    11A     -1.002350    12A     -0.841306
      13A     -0.831704    14A     -0.774235    15A     -0.702467
      16A     -0.673448    17A     -0.651973    18A     -0.608393
      19A     -0.594008    20A     -0.571824    21A     -0.546176
      22A     -0.520437    23A     -0.515533    24A     -0.449542
      25A     -0.432006    26A     -0.416829    27A     -0.384760

  @DF-RHF Final Energy:  -323.99333062618609

   => Energetics <=

    Nuclear Repulsion Energy =            301.7905107511930396
    One-Electron Energy =               -1038.2228691042939772
    Two-Electron Energy =                 412.4390277269147873
    Total Energy =                       -323.9933306261860935
  Basis Set: (AUG-CC-PVTZ AUX)
    Blend: AUG-CC-PVTZ-RI
    Molecular point group: c1

    Geometry (in Angstrom), charge = 0, multiplicity = 1:

       Center              X                  Y                   Z               Mass
    ------------   -----------------  -----------------  -----------------  -----------------
         O            1.196696846758     1.336358475493     0.139338422077    15.994914619570
         N            0.129319046758    -0.692979624507     0.151965422077    14.003074004430
         C           -1.132773153242    -0.135521524507     0.530015422077    12.000000000000
         C           -1.883456153242     0.697228475493    -0.464232577923    12.000000000000
         C           -2.366208153242    -0.687045524507    -0.129954577923    12.000000000000
         C            1.243362846758     0.112803475493     0.021683422077    12.000000000000
         C            2.534824846758    -0.638749524507    -0.235689577923    12.000000000000
         H           -1.208351153242     0.159765475493     1.575260422077     1.007825032230
         H           -1.404224153242     0.849396475493    -1.424010577923     1.007825032230
         H           -2.437550153242     1.550403475493    -0.088881577923     1.007825032230
         H           -3.259694153242    -0.799123524507     0.474979422077     1.007825032230
         H           -2.222760153242    -1.462012524507    -0.875960577923     1.007825032230
         H            0.254180846758    -1.685098524507     0.196811422077     1.007825032230
         H            2.378228846758    -1.543300524507    -0.829283577923     1.007825032230
         H            3.222225846758     0.027153475493    -0.757588577923     1.007825032230
         H            2.990219846758    -0.922926524507     0.718027422077     1.007825032230

  Basis Set: AUG-CC-PVTZ
    Blend: AUG-CC-PVTZ
  Basis Set: (AUG-CC-PVTZ AUX)
    Blend: AUG-CC-PVTZ-JKFIT
	 Reference Energy          =    -323.9933306261860935 [Eh]
	 Singles Energy            =      -0.0000000000000000 [Eh]
	 Same-Spin Energy          =      -0.3335109285634396 [Eh]
	 Opposite-Spin Energy      =      -1.0889029665100656 [Eh]
	 Correlation Energy        =      -1.4224138950735052 [Eh]
	 Total Energy              =    -325.4157445212596258 [Eh]

	 ================> DF-SCS-MP2 Energies <==================
	-----------------------------------------------------------
	 SCS Same-Spin Scale       =       0.3333333333333333 [-]
	 SCS Opposite-Spin Scale   =       1.2000000000000000 [-]
	 SCS Same-Spin Energy      =      -0.1111703095211465 [Eh]
	 SCS Opposite-Spin Energy  =      -1.3066835598120787 [Eh]
	 SCS Correlation Energy    =      -1.4178538693332252 [Eh]
	 SCS Total Energy          =    -325.4111844955193078 [Eh]
	-----------------------------------------------------------

  Dipole Moment: [D]
     X:    -0.7066      Y:    -3.4373      Z:     0.0262     Total:     3.5092

*** Psi4 exiting successfully. Buy a developer a beer!
