                               Psi4 1.3.2 release

  ==> Input File <==

--------------------------------------------------------------------------
#psi4
#
memory 32 gb

molecule  {
0 1
  O        1.2124500     1.3700530     0.1515380
  N        0.1427500    -0.6487220     0.1416610
  C       -1.1556202    -0.1935084     0.5335455
  C       -1.8677030     0.7309230    -0.4520330
  C       -2.3504550    -0.6533510    -0.1177550
  C        1.2591160     0.1464980     0.0338830
  C        2.5505780    -0.6050550    -0.2234900
  H       -1.1925980     0.1934600     1.5874600
  H       -1.3884710     0.8830910    -1.4118110
  H       -2.4217970     1.5840980    -0.0766820
  H       -3.2439410    -0.7654290     0.4871790
  H       -2.2070070    -1.4283180    -0.8637610
  H        0.2699340    -1.6514040     0.2090110
  H        2.3939820    -1.5096060    -0.8170840
  H        3.2379790     0.0608480    -0.7453890
  H        3.0059730    -0.8892320     0.7302270
units angstrom
no_reorient  #important for SAPT in psi4, default
symmetry c1  #important for SAPT in psi4, default
}

set PROPERTIES_ORIGIN ["COM"]
properties('MP2/aug-cc-pvtz', properties = ['dipole'])
--------------------------------------------------------------------------

    Molecular point group: c1
  Charge       = 0
  Multiplicity = 1
  Basis Set: AUG-CC-PVTZ
    Blend: AUG-CC-PVTZ
  Basis Set: (AUG-CC-PVTZ AUX)
    Blend: AUG-CC-PVTZ-JKFIT

    Orbital Energies [Eh]
    ---------------------

    Doubly Occupied:

       1A    -20.516036     2A    -15.587696     3A    -11.352057
       4A    -11.270664     5A    -11.238964     6A    -11.234675
       7A    -11.223723     8A     -1.370511     9A     -1.242018
      10A     -1.131756    11A     -1.003073    12A     -0.845544
      13A     -0.830564    14A     -0.770039    15A     -0.698494
      16A     -0.675163    17A     -0.655320    18A     -0.609281
      19A     -0.592160    20A     -0.570546    21A     -0.543368
      22A     -0.520921    23A     -0.514021    24A     -0.461175
      25A     -0.430983    26A     -0.419987    27A     -0.375281

  @DF-RHF Final Energy:  -323.98626288457842

   => Energetics <=

    Nuclear Repulsion Energy =            301.8382318868912648
    One-Electron Energy =               -1038.2809548004954650
    Two-Electron Energy =                 412.4564600290258340
    Total Energy =                       -323.9862628845784229
  Basis Set: (AUG-CC-PVTZ AUX)
    Blend: AUG-CC-PVTZ-RI
    Molecular point group: c1

    Geometry (in Angstrom), charge = 0, multiplicity = 1:

       Center              X                  Y                   Z               Mass
    ------------   -----------------  -----------------  -----------------  -----------------
         O            1.201700665017     1.345970630279     0.143569429326    15.994914619570
         N            0.132000665017    -0.672804369721     0.133692429326    14.003074004430
         C           -1.166369534983    -0.217590769721     0.525576929326    12.000000000000
         C           -1.878452334983     0.706840630279    -0.460001570674    12.000000000000
         C           -2.361204334983    -0.677433369721    -0.125723570674    12.000000000000
         C            1.248366665017     0.122415630279     0.025914429326    12.000000000000
         C            2.539828665017    -0.629137369721    -0.231458570674    12.000000000000
         H           -1.203347334983     0.169377630279     1.579491429326     1.007825032230
         H           -1.399220334983     0.859008630279    -1.419779570674     1.007825032230
         H           -2.432546334983     1.560015630279    -0.084650570674     1.007825032230
         H           -3.254690334983    -0.789511369721     0.479210429326     1.007825032230
         H           -2.217756334983    -1.452400369721    -0.871729570674     1.007825032230
         H            0.259184665017    -1.675486369721     0.201042429326     1.007825032230
         H            2.383232665017    -1.533688369721    -0.825052570674     1.007825032230
         H            3.227229665017     0.036765630279    -0.753357570674     1.007825032230
         H            2.995223665017    -0.913314369721     0.722258429326     1.007825032230

  Basis Set: AUG-CC-PVTZ
    Blend: AUG-CC-PVTZ
  Basis Set: (AUG-CC-PVTZ AUX)
    Blend: AUG-CC-PVTZ-JKFIT
	 Reference Energy          =    -323.9862628845784229 [Eh]
	 Singles Energy            =      -0.0000000000000000 [Eh]
	 Same-Spin Energy          =      -0.3339804481870374 [Eh]
	 Opposite-Spin Energy      =      -1.0895645825815694 [Eh]
	 Correlation Energy        =      -1.4235450307686068 [Eh]
	 Total Energy              =    -325.4098079153470167 [Eh]

	 ================> DF-SCS-MP2 Energies <==================
	-----------------------------------------------------------
	 SCS Same-Spin Scale       =       0.3333333333333333 [-]
	 SCS Opposite-Spin Scale   =       1.2000000000000000 [-]
	 SCS Same-Spin Energy      =      -0.1113268160623458 [Eh]
	 SCS Opposite-Spin Energy  =      -1.3074774990978832 [Eh]
	 SCS Correlation Energy    =      -1.4188043151602290 [Eh]
	 SCS Total Energy          =    -325.4050671997386530 [Eh]
	-----------------------------------------------------------

  Dipole Moment: [D]
     X:    -0.7319      Y:    -3.5356      Z:     0.0646     Total:     3.6111

*** Psi4 exiting successfully. Buy a developer a beer!
