                               Psi4 1.3.2 release

  ==> Input File <==

--------------------------------------------------------------------------
#psi4
#
memory 32 gb

molecule  {
0 1
  O        1.2124500     1.3700530     0.1515380
  N        0.1246727    -0.6542312     0.0954411
  C       -1.1170200    -0.1018270     0.5422150
  C       -1.8677030     0.7309230    -0.4520330
  C       -2.3504550    -0.6533510    -0.1177550
  C        1.2591160     0.1464980     0.0338830
  C        2.5505780    -0.6050550    -0.2234900
  H       -1.1925980     0.1934600     1.5874600
  H       -1.3884710     0.8830910    -1.4118110
  H       -2.4217970     1.5840980    -0.0766820
  H       -3.2439410    -0.7654290     0.4871790
  H       -2.2070070    -1.4283180    -0.8637610
  H        0.2699340    -1.6514040     0.2090110
  H        2.3939820    -1.5096060    -0.8170840
  H        3.2379790     0.0608480    -0.7453890
  H        3.0059730    -0.8892320     0.7302270
units angstrom
no_reorient  #important for SAPT in psi4, default
symmetry c1  #important for SAPT in psi4, default
}

set PROPERTIES_ORIGIN ["COM"]
properties('MP2/aug-cc-pvtz', properties = ['dipole'])
--------------------------------------------------------------------------

    Molecular point group: c1
  Charge       = 0
  Multiplicity = 1
  Basis Set: AUG-CC-PVTZ
    Blend: AUG-CC-PVTZ
  Basis Set: (AUG-CC-PVTZ AUX)
    Blend: AUG-CC-PVTZ-JKFIT

    Orbital Energies [Eh]
    ---------------------

    Doubly Occupied:

       1A    -20.519673     2A    -15.587143     3A    -11.352601
       4A    -11.267651     5A    -11.239146     6A    -11.231446
       7A    -11.225125     8A     -1.372080     9A     -1.238977
      10A     -1.121888    11A     -1.002728    12A     -0.838390
      13A     -0.830195    14A     -0.769354    15A     -0.703520
      16A     -0.672943    17A     -0.649799    18A     -0.608216
      19A     -0.594392    20A     -0.572933    21A     -0.547031
      22A     -0.519718    23A     -0.514760    24A     -0.447993
      25A     -0.433101    26A     -0.417139    27A     -0.385994

  @DF-RHF Final Energy:  -323.99220963258836

   => Energetics <=

    Nuclear Repulsion Energy =            301.8154187169778879
    One-Electron Energy =               -1038.2873849255734058
    Two-Electron Energy =                 412.4797565760071620
    Total Energy =                       -323.9922096325883558
  Basis Set: (AUG-CC-PVTZ AUX)
    Blend: AUG-CC-PVTZ-RI
    Molecular point group: c1

    Geometry (in Angstrom), charge = 0, multiplicity = 1:

       Center              X                  Y                   Z               Mass
    ------------   -----------------  -----------------  -----------------  -----------------
         O            1.199580265366     1.335644119293     0.149052374482    15.994914619570
         N            0.111802965366    -0.688640080707     0.092955474482    14.003074004430
         C           -1.129889734634    -0.136235880707     0.539729374482    12.000000000000
         C           -1.880572734634     0.696514119293    -0.454518625518    12.000000000000
         C           -2.363324734634    -0.687759880707    -0.120240625518    12.000000000000
         C            1.246246265366     0.112089119293     0.031397374482    12.000000000000
         C            2.537708265366    -0.639463880707    -0.225975625518    12.000000000000
         H           -1.205467734634     0.159051119293     1.584974374482     1.007825032230
         H           -1.401340734634     0.848682119293    -1.414296625518     1.007825032230
         H           -2.434666734634     1.549689119293    -0.079167625518     1.007825032230
         H           -3.256810734634    -0.799837880707     0.484693374482     1.007825032230
         H           -2.219876734634    -1.462726880707    -0.866246625518     1.007825032230
         H            0.257064265366    -1.685812880707     0.206525374482     1.007825032230
         H            2.381112265366    -1.544014880707    -0.819569625518     1.007825032230
         H            3.225109265366     0.026439119293    -0.747874625518     1.007825032230
         H            2.993103265366    -0.923640880707     0.727741374482     1.007825032230

  Basis Set: AUG-CC-PVTZ
    Blend: AUG-CC-PVTZ
  Basis Set: (AUG-CC-PVTZ AUX)
    Blend: AUG-CC-PVTZ-JKFIT
	 Reference Energy          =    -323.9922096325883558 [Eh]
	 Singles Energy            =      -0.0000000000000000 [Eh]
	 Same-Spin Energy          =      -0.3337135538604298 [Eh]
	 Opposite-Spin Energy      =      -1.0894765302058467 [Eh]
	 Correlation Energy        =      -1.4231900840662766 [Eh]
	 Total Energy              =    -325.4153997166546333 [Eh]

	 ================> DF-SCS-MP2 Energies <==================
	-----------------------------------------------------------
	 SCS Same-Spin Scale       =       0.3333333333333333 [-]
	 SCS Opposite-Spin Scale   =       1.2000000000000000 [-]
	 SCS Same-Spin Energy      =      -0.1112378512868099 [Eh]
	 SCS Opposite-Spin Energy  =      -1.3073718362470159 [Eh]
	 SCS Correlation Energy    =      -1.4186096875338259 [Eh]
	 SCS Total Energy          =    -325.4108193201221866 [Eh]
	-----------------------------------------------------------

  Dipole Moment: [D]
     X:    -0.5838      Y:    -3.3824      Z:     0.1586     Total:     3.4361

*** Psi4 exiting successfully. Buy a developer a beer!
