                               Psi4 1.3.2 release

  ==> Input File <==

--------------------------------------------------------------------------
#psi4
#
memory 32 gb

molecule  {
0 1
  O        1.2124500     1.3700530     0.1515380
  N        0.1427500    -0.6487220     0.1416610
  C       -1.1086618    -0.0789925     0.5365469
  C       -1.8677030     0.7309230    -0.4520330
  C       -2.3504550    -0.6533510    -0.1177550
  C        1.2591160     0.1464980     0.0338830
  C        2.5505780    -0.6050550    -0.2234900
  H       -1.1925980     0.1934600     1.5874600
  H       -1.3884710     0.8830910    -1.4118110
  H       -2.4217970     1.5840980    -0.0766820
  H       -3.2439410    -0.7654290     0.4871790
  H       -2.2070070    -1.4283180    -0.8637610
  H        0.2699340    -1.6514040     0.2090110
  H        2.3939820    -1.5096060    -0.8170840
  H        3.2379790     0.0608480    -0.7453890
  H        3.0059730    -0.8892320     0.7302270
units angstrom
no_reorient  #important for SAPT in psi4, default
symmetry c1  #important for SAPT in psi4, default
}

set PROPERTIES_ORIGIN ["COM"]
properties('MP2/aug-cc-pvtz', properties = ['dipole'])
--------------------------------------------------------------------------

    Molecular point group: c1
  Charge       = 0
  Multiplicity = 1
  Basis Set: AUG-CC-PVTZ
    Blend: AUG-CC-PVTZ
  Basis Set: (AUG-CC-PVTZ AUX)
    Blend: AUG-CC-PVTZ-JKFIT

    Orbital Energies [Eh]
    ---------------------

    Doubly Occupied:

       1A    -20.516172     2A    -15.587377     3A    -11.349995
       4A    -11.268681     5A    -11.238106     6A    -11.232330
       7A    -11.226868     8A     -1.371413     9A     -1.240069
      10A     -1.124197    11A     -1.002164    12A     -0.841111
      13A     -0.832085    14A     -0.771808    15A     -0.703478
      16A     -0.673279    17A     -0.651357    18A     -0.608491
      19A     -0.593565    20A     -0.571742    21A     -0.546504
      22A     -0.520215    23A     -0.516003    24A     -0.450516
      25A     -0.429848    26A     -0.415686    27A     -0.386664

  @DF-RHF Final Energy:  -323.99305232628041

   => Energetics <=

    Nuclear Repulsion Energy =            302.0453137414179423
    One-Electron Energy =               -1038.7372847129231559
    Two-Electron Energy =                 412.6989186452248646
    Total Energy =                       -323.9930523262804059
  Basis Set: (AUG-CC-PVTZ AUX)
    Blend: AUG-CC-PVTZ-RI
    Molecular point group: c1

    Geometry (in Angstrom), charge = 0, multiplicity = 1:

       Center              X                  Y                   Z               Mass
    ------------   -----------------  -----------------  -----------------  -----------------
         O            1.196012668433     1.332099500766     0.143205874499    15.994914619570
         N            0.126312668433    -0.686675499234     0.133328874499    14.003074004430
         C           -1.125099131567    -0.116945999234     0.528214774499    12.000000000000
         C           -1.884140331567     0.692969500766    -0.460365125501    12.000000000000
         C           -2.366892331567    -0.691304499234    -0.126087125501    12.000000000000
         C            1.242678668433     0.108544500766     0.025550874499    12.000000000000
         C            2.534140668433    -0.643008499234    -0.231822125501    12.000000000000
         H           -1.209035331567     0.155506500766     1.579127874499     1.007825032230
         H           -1.404908331567     0.845137500766    -1.420143125501     1.007825032230
         H           -2.438234331567     1.546144500766    -0.085014125501     1.007825032230
         H           -3.260378331567    -0.803382499234     0.478846874499     1.007825032230
         H           -2.223444331567    -1.466271499234    -0.872093125501     1.007825032230
         H            0.253496668433    -1.689357499234     0.200678874499     1.007825032230
         H            2.377544668433    -1.547559499234    -0.825416125501     1.007825032230
         H            3.221541668433     0.022894500766    -0.753721125501     1.007825032230
         H            2.989535668433    -0.927185499234     0.721894874499     1.007825032230

  Basis Set: AUG-CC-PVTZ
    Blend: AUG-CC-PVTZ
  Basis Set: (AUG-CC-PVTZ AUX)
    Blend: AUG-CC-PVTZ-JKFIT
	 Reference Energy          =    -323.9930523262804059 [Eh]
	 Singles Energy            =      -0.0000000000000000 [Eh]
	 Same-Spin Energy          =      -0.3336054828488982 [Eh]
	 Opposite-Spin Energy      =      -1.0890426530483939 [Eh]
	 Correlation Energy        =      -1.4226481358972922 [Eh]
	 Total Energy              =    -325.4157004621777105 [Eh]

	 ================> DF-SCS-MP2 Energies <==================
	-----------------------------------------------------------
	 SCS Same-Spin Scale       =       0.3333333333333333 [-]
	 SCS Opposite-Spin Scale   =       1.2000000000000000 [-]
	 SCS Same-Spin Energy      =      -0.1112018276162994 [Eh]
	 SCS Opposite-Spin Energy  =      -1.3068511836580725 [Eh]
	 SCS Correlation Energy    =      -1.4180530112743719 [Eh]
	 SCS Total Energy          =    -325.4111053375547726 [Eh]
	-----------------------------------------------------------

  Dipole Moment: [D]
     X:    -0.6995      Y:    -3.4376      Z:     0.0639     Total:     3.5087

*** Psi4 exiting successfully. Buy a developer a beer!
