                               Psi4 1.3.2 release

  ==> Input File <==

--------------------------------------------------------------------------
#psi4
#
memory 32 gb

molecule  {
0 1
  O        1.2124500     1.3700530     0.1515380
  N        0.1296326    -0.6048366     0.0529331
  C       -1.1170200    -0.1018270     0.5422150
  C       -1.8677030     0.7309230    -0.4520330
  C       -2.3504550    -0.6533510    -0.1177550
  C        1.2591160     0.1464980     0.0338830
  C        2.5505780    -0.6050550    -0.2234900
  H       -1.1925980     0.1934600     1.5874600
  H       -1.3884710     0.8830910    -1.4118110
  H       -2.4217970     1.5840980    -0.0766820
  H       -3.2439410    -0.7654290     0.4871790
  H       -2.2070070    -1.4283180    -0.8637610
  H        0.2699340    -1.6514040     0.2090110
  H        2.3939820    -1.5096060    -0.8170840
  H        3.2379790     0.0608480    -0.7453890
  H        3.0059730    -0.8892320     0.7302270
units angstrom
no_reorient  #important for SAPT in psi4, default
symmetry c1  #important for SAPT in psi4, default
}

set PROPERTIES_ORIGIN ["COM"]
properties('MP2/aug-cc-pvtz', properties = ['dipole'])
--------------------------------------------------------------------------

    Molecular point group: c1
  Charge       = 0
  Multiplicity = 1
  Basis Set: AUG-CC-PVTZ
    Blend: AUG-CC-PVTZ
  Basis Set: (AUG-CC-PVTZ AUX)
    Blend: AUG-CC-PVTZ-JKFIT

    Orbital Energies [Eh]
    ---------------------

    Doubly Occupied:

       1A    -20.513863     2A    -15.592437     3A    -11.347795
       4A    -11.269081     5A    -11.238932     6A    -11.233252
       7A    -11.224570     8A     -1.372587     9A     -1.240214
      10A     -1.123910    11A     -1.002111    12A     -0.844137
      13A     -0.830689    14A     -0.761500    15A     -0.700461
      16A     -0.673115    17A     -0.650039    18A     -0.609001
      19A     -0.592489    20A     -0.570663    21A     -0.546909
      22A     -0.521006    23A     -0.515639    24A     -0.445733
      25A     -0.432244    26A     -0.417649    27A     -0.386722

  @DF-RHF Final Energy:  -323.98793703509239

   => Energetics <=

    Nuclear Repulsion Energy =            302.4536028842066457
    One-Electron Energy =               -1039.5695795585170345
    Two-Electron Energy =                 413.1280396392179455
    Total Energy =                       -323.9879370350923864
  Basis Set: (AUG-CC-PVTZ AUX)
    Blend: AUG-CC-PVTZ-RI
    Molecular point group: c1

    Geometry (in Angstrom), charge = 0, multiplicity = 1:

       Center              X                  Y                   Z               Mass
    ------------   -----------------  -----------------  -----------------  -----------------
         O            1.198879195833     1.328662315387     0.155060774599    15.994914619570
         N            0.116061795833    -0.646227284613     0.056455874599    14.003074004430
         C           -1.130590804167    -0.143217684613     0.545737774599    12.000000000000
         C           -1.881273804167     0.689532315387    -0.448510225401    12.000000000000
         C           -2.364025804167    -0.694741684613    -0.114232225401    12.000000000000
         C            1.245545195833     0.105107315387     0.037405774599    12.000000000000
         C            2.537007195833    -0.646445684613    -0.219967225401    12.000000000000
         H           -1.206168804167     0.152069315387     1.590982774599     1.007825032230
         H           -1.402041804167     0.841700315387    -1.408288225401     1.007825032230
         H           -2.435367804167     1.542707315387    -0.073159225401     1.007825032230
         H           -3.257511804167    -0.806819684613     0.490701774599     1.007825032230
         H           -2.220577804167    -1.469708684613    -0.860238225401     1.007825032230
         H            0.256363195833    -1.692794684613     0.212533774599     1.007825032230
         H            2.380411195833    -1.550996684613    -0.813561225401     1.007825032230
         H            3.224408195833     0.019457315387    -0.741866225401     1.007825032230
         H            2.992402195833    -0.930622684613     0.733749774599     1.007825032230

  Basis Set: AUG-CC-PVTZ
    Blend: AUG-CC-PVTZ
  Basis Set: (AUG-CC-PVTZ AUX)
    Blend: AUG-CC-PVTZ-JKFIT
	 Reference Energy          =    -323.9879370350923864 [Eh]
	 Singles Energy            =      -0.0000000000000000 [Eh]
	 Same-Spin Energy          =      -0.3340168766726850 [Eh]
	 Opposite-Spin Energy      =      -1.0900159695598231 [Eh]
	 Correlation Energy        =      -1.4240328462325080 [Eh]
	 Total Energy              =    -325.4119698813249215 [Eh]

	 ================> DF-SCS-MP2 Energies <==================
	-----------------------------------------------------------
	 SCS Same-Spin Scale       =       0.3333333333333333 [-]
	 SCS Opposite-Spin Scale   =       1.2000000000000000 [-]
	 SCS Same-Spin Energy      =      -0.1113389588908950 [Eh]
	 SCS Opposite-Spin Energy  =      -1.3080191634717877 [Eh]
	 SCS Correlation Energy    =      -1.4193581223626828 [Eh]
	 SCS Total Energy          =    -325.4072951574550530 [Eh]
	-----------------------------------------------------------

  Dipole Moment: [D]
     X:    -0.6778      Y:    -3.4837      Z:     0.2236     Total:     3.5560

*** Psi4 exiting successfully. Buy a developer a beer!
