                               Psi4 1.3.2 release

  ==> Input File <==

--------------------------------------------------------------------------
#psi4
#
memory 32 gb

molecule  {
0 1
  O        1.2124500     1.3700530     0.1515380
  N        0.1742799    -0.6357122     0.2355079
  C       -1.1170200    -0.1018270     0.5422150
  C       -1.8677030     0.7309230    -0.4520330
  C       -2.3504550    -0.6533510    -0.1177550
  C        1.2591160     0.1464980     0.0338830
  C        2.5505780    -0.6050550    -0.2234900
  H       -1.1925980     0.1934600     1.5874600
  H       -1.3884710     0.8830910    -1.4118110
  H       -2.4217970     1.5840980    -0.0766820
  H       -3.2439410    -0.7654290     0.4871790
  H       -2.2070070    -1.4283180    -0.8637610
  H        0.2699340    -1.6514040     0.2090110
  H        2.3939820    -1.5096060    -0.8170840
  H        3.2379790     0.0608480    -0.7453890
  H        3.0059730    -0.8892320     0.7302270
units angstrom
no_reorient  #important for SAPT in psi4, default
symmetry c1  #important for SAPT in psi4, default
}

set PROPERTIES_ORIGIN ["COM"]
properties('MP2/aug-cc-pvtz', properties = ['dipole'])
--------------------------------------------------------------------------

    Molecular point group: c1
  Charge       = 0
  Multiplicity = 1
  Basis Set: AUG-CC-PVTZ
    Blend: AUG-CC-PVTZ
  Basis Set: (AUG-CC-PVTZ AUX)
    Blend: AUG-CC-PVTZ-JKFIT

    Orbital Energies [Eh]
    ---------------------

    Doubly Occupied:

       1A    -20.510654     2A    -15.588271     3A    -11.346462
       4A    -11.269586     5A    -11.237057     6A    -11.235941
       7A    -11.228577     8A     -1.370147     9A     -1.240836
      10A     -1.127745    11A     -1.001704    12A     -0.848595
      13A     -0.833279    14A     -0.772827    15A     -0.699423
      16A     -0.674643    17A     -0.654325    18A     -0.609468
      19A     -0.592307    20A     -0.569098    21A     -0.544593
      22A     -0.521665    23A     -0.517124    24A     -0.450388
      25A     -0.431344    26A     -0.415778    27A     -0.383898

  @DF-RHF Final Energy:  -323.99253095577944

   => Energetics <=

    Nuclear Repulsion Energy =            302.0602395742666317
    One-Electron Energy =               -1038.7540756461078217
    Two-Electron Energy =                 412.7013051160616897
    Total Energy =                       -323.9925309557794435
  Basis Set: (AUG-CC-PVTZ AUX)
    Blend: AUG-CC-PVTZ-RI
    Molecular point group: c1

    Geometry (in Angstrom), charge = 0, multiplicity = 1:

       Center              X                  Y                   Z               Mass
    ------------   -----------------  -----------------  -----------------  -----------------
         O            1.192568410979     1.333026504684     0.129254280533    15.994914619570
         N            0.154398310979    -0.672738695316     0.213224180533    14.003074004430
         C           -1.136901589021    -0.138853495316     0.519931280533    12.000000000000
         C           -1.887584589021     0.693896504684    -0.474316719467    12.000000000000
         C           -2.370336589021    -0.690377495316    -0.140038719467    12.000000000000
         C            1.239234410979     0.109471504684     0.011599280533    12.000000000000
         C            2.530696410979    -0.642081495316    -0.245773719467    12.000000000000
         H           -1.212479589021     0.156433504684     1.565176280533     1.007825032230
         H           -1.408352589021     0.846064504684    -1.434094719467     1.007825032230
         H           -2.441678589021     1.547071504684    -0.098965719467     1.007825032230
         H           -3.263822589021    -0.802455495316     0.464895280533     1.007825032230
         H           -2.226888589021    -1.465344495316    -0.886044719467     1.007825032230
         H            0.250052410979    -1.688430495316     0.186727280533     1.007825032230
         H            2.374100410979    -1.546632495316    -0.839367719467     1.007825032230
         H            3.218097410979     0.023821504684    -0.767672719467     1.007825032230
         H            2.986091410979    -0.926258495316     0.707943280533     1.007825032230

  Basis Set: AUG-CC-PVTZ
    Blend: AUG-CC-PVTZ
  Basis Set: (AUG-CC-PVTZ AUX)
    Blend: AUG-CC-PVTZ-JKFIT
	 Reference Energy          =    -323.9925309557794435 [Eh]
	 Singles Energy            =      -0.0000000000000000 [Eh]
	 Same-Spin Energy          =      -0.3334556230453302 [Eh]
	 Opposite-Spin Energy      =      -1.0886099372575047 [Eh]
	 Correlation Energy        =      -1.4220655603028347 [Eh]
	 Total Energy              =    -325.4145965160822698 [Eh]

	 ================> DF-SCS-MP2 Energies <==================
	-----------------------------------------------------------
	 SCS Same-Spin Scale       =       0.3333333333333333 [-]
	 SCS Opposite-Spin Scale   =       1.2000000000000000 [-]
	 SCS Same-Spin Energy      =      -0.1111518743484434 [Eh]
	 SCS Opposite-Spin Energy  =      -1.3063319247090055 [Eh]
	 SCS Correlation Energy    =      -1.4174837990574489 [Eh]
	 SCS Total Energy          =    -325.4100147548368795 [Eh]
	-----------------------------------------------------------

  Dipole Moment: [D]
     X:    -0.9004      Y:    -3.5577      Z:    -0.1121     Total:     3.6716

*** Psi4 exiting successfully. Buy a developer a beer!
