                               Psi4 1.3.2 release

  ==> Input File <==

--------------------------------------------------------------------------
#psi4
#
memory 32 gb

molecule  {
0 1
  O        1.2124500     1.3700530     0.1515380
  N        0.1509066    -0.7094910     0.2782740
  C       -1.1170200    -0.1018270     0.5422150
  C       -1.8677030     0.7309230    -0.4520330
  C       -2.3504550    -0.6533510    -0.1177550
  C        1.2591160     0.1464980     0.0338830
  C        2.5505780    -0.6050550    -0.2234900
  H       -1.1925980     0.1934600     1.5874600
  H       -1.3884710     0.8830910    -1.4118110
  H       -2.4217970     1.5840980    -0.0766820
  H       -3.2439410    -0.7654290     0.4871790
  H       -2.2070070    -1.4283180    -0.8637610
  H        0.2699340    -1.6514040     0.2090110
  H        2.3939820    -1.5096060    -0.8170840
  H        3.2379790     0.0608480    -0.7453890
  H        3.0059730    -0.8892320     0.7302270
units angstrom
no_reorient  #important for SAPT in psi4, default
symmetry c1  #important for SAPT in psi4, default
}

set PROPERTIES_ORIGIN ["COM"]
properties('MP2/aug-cc-pvtz', properties = ['dipole'])
--------------------------------------------------------------------------

    Molecular point group: c1
  Charge       = 0
  Multiplicity = 1
  Basis Set: AUG-CC-PVTZ
    Blend: AUG-CC-PVTZ
  Basis Set: (AUG-CC-PVTZ AUX)
    Blend: AUG-CC-PVTZ-JKFIT

    Orbital Energies [Eh]
    ---------------------

    Doubly Occupied:

       1A    -20.524199     2A    -15.580067     3A    -11.356825
       4A    -11.266827     5A    -11.238963     6A    -11.231998
       7A    -11.228561     8A     -1.371789     9A     -1.237271
      10A     -1.122989    11A     -1.003663    12A     -0.836625
      13A     -0.832793    14A     -0.782126    15A     -0.699269
      16A     -0.674178    17A     -0.653392    18A     -0.607983
      19A     -0.597250    20A     -0.572240    21A     -0.544403
      22A     -0.520646    23A     -0.514842    24A     -0.454092
      25A     -0.432735    26A     -0.414932    27A     -0.383110

  @DF-RHF Final Energy:  -323.98514032223369

   => Energetics <=

    Nuclear Repulsion Energy =            300.8681999058730980
    One-Electron Energy =               -1036.3391426933137609
    Two-Electron Energy =                 411.4858024652069730
    Total Energy =                       -323.9851403222336899
  Basis Set: (AUG-CC-PVTZ AUX)
    Blend: AUG-CC-PVTZ-RI
    Molecular point group: c1

    Geometry (in Angstrom), charge = 0, multiplicity = 1:

       Center              X                  Y                   Z               Mass
    ------------   -----------------  -----------------  -----------------  -----------------
         O            1.195872168824     1.343454954636     0.123209398623    15.994914619570
         N            0.134328768824    -0.736089045364     0.249945398623    14.003074004430
         C           -1.133597831176    -0.128425045364     0.513886398623    12.000000000000
         C           -1.884280831176     0.704324954636    -0.480361601377    12.000000000000
         C           -2.367032831176    -0.679949045364    -0.146083601377    12.000000000000
         C            1.242538168824     0.119899954636     0.005554398623    12.000000000000
         C            2.534000168824    -0.631653045364    -0.251818601377    12.000000000000
         H           -1.209175831176     0.166861954636     1.559131398623     1.007825032230
         H           -1.405048831176     0.856492954636    -1.440139601377     1.007825032230
         H           -2.438374831176     1.557499954636    -0.105010601377     1.007825032230
         H           -3.260518831176    -0.792027045364     0.458850398623     1.007825032230
         H           -2.223584831176    -1.454916045364    -0.892089601377     1.007825032230
         H            0.253356168824    -1.678002045364     0.180682398623     1.007825032230
         H            2.377404168824    -1.536204045364    -0.845412601377     1.007825032230
         H            3.221401168824     0.034249954636    -0.773717601377     1.007825032230
         H            2.989395168824    -0.915830045364     0.701898398623     1.007825032230

  Basis Set: AUG-CC-PVTZ
    Blend: AUG-CC-PVTZ
  Basis Set: (AUG-CC-PVTZ AUX)
    Blend: AUG-CC-PVTZ-JKFIT
	 Reference Energy          =    -323.9851403222336899 [Eh]
	 Singles Energy            =      -0.0000000000000000 [Eh]
	 Same-Spin Energy          =      -0.3333971608054788 [Eh]
	 Opposite-Spin Energy      =      -1.0891898266909257 [Eh]
	 Correlation Energy        =      -1.4225869874964046 [Eh]
	 Total Energy              =    -325.4077273097300917 [Eh]

	 ================> DF-SCS-MP2 Energies <==================
	-----------------------------------------------------------
	 SCS Same-Spin Scale       =       0.3333333333333333 [-]
	 SCS Opposite-Spin Scale   =       1.2000000000000000 [-]
	 SCS Same-Spin Energy      =      -0.1111323869351596 [Eh]
	 SCS Opposite-Spin Energy  =      -1.3070277920291107 [Eh]
	 SCS Correlation Energy    =      -1.4181601789642704 [Eh]
	 SCS Total Energy          =    -325.4033005011979753 [Eh]
	-----------------------------------------------------------

  Dipole Moment: [D]
     X:    -0.6293      Y:    -3.2832      Z:    -0.2087     Total:     3.3495

*** Psi4 exiting successfully. Buy a developer a beer!
