                               Psi4 1.3.2 release

  ==> Input File <==

--------------------------------------------------------------------------
#psi4
#
memory 32 gb

molecule  {
0 1
  O        1.2124500     1.3700530     0.1515380
  N        0.1427500    -0.6487220     0.1416610
  C       -1.1590297    -0.2420855     0.5736037
  C       -1.8677030     0.7309230    -0.4520330
  C       -2.3504550    -0.6533510    -0.1177550
  C        1.2591160     0.1464980     0.0338830
  C        2.5505780    -0.6050550    -0.2234900
  H       -1.1925980     0.1934600     1.5874600
  H       -1.3884710     0.8830910    -1.4118110
  H       -2.4217970     1.5840980    -0.0766820
  H       -3.2439410    -0.7654290     0.4871790
  H       -2.2070070    -1.4283180    -0.8637610
  H        0.2699340    -1.6514040     0.2090110
  H        2.3939820    -1.5096060    -0.8170840
  H        3.2379790     0.0608480    -0.7453890
  H        3.0059730    -0.8892320     0.7302270
units angstrom
no_reorient  #important for SAPT in psi4, default
symmetry c1  #important for SAPT in psi4, default
}

set PROPERTIES_ORIGIN ["COM"]
properties('MP2/aug-cc-pvtz', properties = ['dipole'])
--------------------------------------------------------------------------

    Molecular point group: c1
  Charge       = 0
  Multiplicity = 1
  Basis Set: AUG-CC-PVTZ
    Blend: AUG-CC-PVTZ
  Basis Set: (AUG-CC-PVTZ AUX)
    Blend: AUG-CC-PVTZ-JKFIT

    Orbital Energies [Eh]
    ---------------------

    Doubly Occupied:

       1A    -20.516061     2A    -15.587927     3A    -11.352569
       4A    -11.272174     5A    -11.239193     6A    -11.237822
       7A    -11.224390     8A     -1.370197     9A     -1.240917
      10A     -1.124886    11A     -1.002992    12A     -0.848460
      13A     -0.828688    14A     -0.771693    15A     -0.696712
      16A     -0.673684    17A     -0.652565    18A     -0.609013
      19A     -0.592960    20A     -0.571090    21A     -0.544785
      22A     -0.522169    23A     -0.514284    24A     -0.469444
      25A     -0.424736    26A     -0.419872    27A     -0.366395

  @DF-RHF Final Energy:  -323.98002042945632

   => Energetics <=

    Nuclear Repulsion Energy =            301.2417719707867718
    One-Electron Energy =               -1037.0922271508682115
    Two-Electron Energy =                 411.8704347506251224
    Total Energy =                       -323.9800204294563173
  Basis Set: (AUG-CC-PVTZ AUX)
    Blend: AUG-CC-PVTZ-RI
    Molecular point group: c1

    Geometry (in Angstrom), charge = 0, multiplicity = 1:

       Center              X                  Y                   Z               Mass
    ------------   -----------------  -----------------  -----------------  -----------------
         O            1.202113652350     1.351854697430     0.138717243033    15.994914619570
         N            0.132413652350    -0.666920302570     0.128840243033    14.003074004430
         C           -1.169366047650    -0.260283802570     0.560782943033    12.000000000000
         C           -1.878039347650     0.712724697430    -0.464853756967    12.000000000000
         C           -2.360791347650    -0.671549302570    -0.130575756967    12.000000000000
         C            1.248779652350     0.128299697430     0.021062243033    12.000000000000
         C            2.540241652350    -0.623253302570    -0.236310756967    12.000000000000
         H           -1.202934347650     0.175261697430     1.574639243033     1.007825032230
         H           -1.398807347650     0.864892697430    -1.424631756967     1.007825032230
         H           -2.432133347650     1.565899697430    -0.089502756967     1.007825032230
         H           -3.254277347650    -0.783627302570     0.474358243033     1.007825032230
         H           -2.217343347650    -1.446516302570    -0.876581756967     1.007825032230
         H            0.259597652350    -1.669602302570     0.196190243033     1.007825032230
         H            2.383645652350    -1.527804302570    -0.829904756967     1.007825032230
         H            3.227642652350     0.042649697430    -0.758209756967     1.007825032230
         H            2.995636652350    -0.907430302570     0.717406243033     1.007825032230

  Basis Set: AUG-CC-PVTZ
    Blend: AUG-CC-PVTZ
  Basis Set: (AUG-CC-PVTZ AUX)
    Blend: AUG-CC-PVTZ-JKFIT
	 Reference Energy          =    -323.9800204294563173 [Eh]
	 Singles Energy            =      -0.0000000000000000 [Eh]
	 Same-Spin Energy          =      -0.3343174970905920 [Eh]
	 Opposite-Spin Energy      =      -1.0906570563088818 [Eh]
	 Correlation Energy        =      -1.4249745533994738 [Eh]
	 Total Energy              =    -325.4049949828557828 [Eh]

	 ================> DF-SCS-MP2 Energies <==================
	-----------------------------------------------------------
	 SCS Same-Spin Scale       =       0.3333333333333333 [-]
	 SCS Opposite-Spin Scale   =       1.2000000000000000 [-]
	 SCS Same-Spin Energy      =      -0.1114391656968640 [Eh]
	 SCS Opposite-Spin Energy  =      -1.3087884675706580 [Eh]
	 SCS Correlation Energy    =      -1.4202276332675221 [Eh]
	 SCS Total Energy          =    -325.4002480627238469 [Eh]
	-----------------------------------------------------------

  Dipole Moment: [D]
     X:    -0.7317      Y:    -3.5531      Z:     0.0864     Total:     3.6287

*** Psi4 exiting successfully. Buy a developer a beer!
