                               Psi4 1.3.2 release

  ==> Input File <==

--------------------------------------------------------------------------
#psi4
#
memory 32 gb

molecule  {
0 1
  O        1.2124500     1.3700530     0.1515380
  N        0.1427500    -0.6487220     0.1416610
  C       -0.9408998    -0.1782848     0.4862162
  C       -1.8677030     0.7309230    -0.4520330
  C       -2.3504550    -0.6533510    -0.1177550
  C        1.2591160     0.1464980     0.0338830
  C        2.5505780    -0.6050550    -0.2234900
  H       -1.1925980     0.1934600     1.5874600
  H       -1.3884710     0.8830910    -1.4118110
  H       -2.4217970     1.5840980    -0.0766820
  H       -3.2439410    -0.7654290     0.4871790
  H       -2.2070070    -1.4283180    -0.8637610
  H        0.2699340    -1.6514040     0.2090110
  H        2.3939820    -1.5096060    -0.8170840
  H        3.2379790     0.0608480    -0.7453890
  H        3.0059730    -0.8892320     0.7302270
units angstrom
no_reorient  #important for SAPT in psi4, default
symmetry c1  #important for SAPT in psi4, default
}

set PROPERTIES_ORIGIN ["COM"]
properties('MP2/aug-cc-pvtz', properties = ['dipole'])
--------------------------------------------------------------------------

    Molecular point group: c1
  Charge       = 0
  Multiplicity = 1
  Basis Set: AUG-CC-PVTZ
    Blend: AUG-CC-PVTZ
  Basis Set: (AUG-CC-PVTZ AUX)
    Blend: AUG-CC-PVTZ-JKFIT

    Orbital Energies [Eh]
    ---------------------

    Doubly Occupied:

       1A    -20.526980     2A    -15.591181     3A    -11.357753
       4A    -11.267373     5A    -11.243636     6A    -11.235938
       7A    -11.228076     8A     -1.389207     9A     -1.293678
      10A     -1.091725    11A     -1.016036    12A     -0.873648
      13A     -0.828829    14A     -0.781281    15A     -0.703066
      16A     -0.679915    17A     -0.660054    18A     -0.613640
      19A     -0.594512    20A     -0.574556    21A     -0.563792
      22A     -0.521872    23A     -0.514477    24A     -0.460705
      25A     -0.433259    26A     -0.384227    27A     -0.358914

  @DF-RHF Final Energy:  -323.93363282575149

   => Energetics <=

    Nuclear Repulsion Energy =            303.8867145372311711
    One-Electron Energy =               -1042.0640368458757621
    Two-Electron Energy =                 414.2436894828930463
    Total Energy =                       -323.9336328257514879
  Basis Set: (AUG-CC-PVTZ AUX)
    Blend: AUG-CC-PVTZ-RI
    Molecular point group: c1

    Geometry (in Angstrom), charge = 0, multiplicity = 1:

       Center              X                  Y                   Z               Mass
    ------------   -----------------  -----------------  -----------------  -----------------
         O            1.175691923198     1.344126619733     0.149302352440    15.994914619570
         N            0.105991923198    -0.674648380267     0.139425352440    14.003074004430
         C           -0.977657876802    -0.204211180267     0.483980552440    12.000000000000
         C           -1.904461076802     0.704996619733    -0.454268647560    12.000000000000
         C           -2.387213076802    -0.679277380267    -0.119990647560    12.000000000000
         C            1.222357923198     0.120571619733     0.031647352440    12.000000000000
         C            2.513819923198    -0.630981380267    -0.225725647560    12.000000000000
         H           -1.229356076802     0.167533619733     1.585224352440     1.007825032230
         H           -1.425229076802     0.857164619733    -1.414046647560     1.007825032230
         H           -2.458555076802     1.558171619733    -0.078917647560     1.007825032230
         H           -3.280699076802    -0.791355380267     0.484943352440     1.007825032230
         H           -2.243765076802    -1.454244380267    -0.865996647560     1.007825032230
         H            0.233175923198    -1.677330380267     0.206775352440     1.007825032230
         H            2.357223923198    -1.535532380267    -0.819319647560     1.007825032230
         H            3.201220923198     0.034921619733    -0.747624647560     1.007825032230
         H            2.969214923198    -0.915158380267     0.727991352440     1.007825032230

  Basis Set: AUG-CC-PVTZ
    Blend: AUG-CC-PVTZ
  Basis Set: (AUG-CC-PVTZ AUX)
    Blend: AUG-CC-PVTZ-JKFIT
	 Reference Energy          =    -323.9336328257514879 [Eh]
	 Singles Energy            =      -0.0000000000000000 [Eh]
	 Same-Spin Energy          =      -0.3368729175065777 [Eh]
	 Opposite-Spin Energy      =      -1.0941240819112195 [Eh]
	 Correlation Energy        =      -1.4309969994177971 [Eh]
	 Total Energy              =    -325.3646298251692883 [Eh]

	 ================> DF-SCS-MP2 Energies <==================
	-----------------------------------------------------------
	 SCS Same-Spin Scale       =       0.3333333333333333 [-]
	 SCS Opposite-Spin Scale   =       1.2000000000000000 [-]
	 SCS Same-Spin Energy      =      -0.1122909725021926 [Eh]
	 SCS Opposite-Spin Energy  =      -1.3129488982934634 [Eh]
	 SCS Correlation Energy    =      -1.4252398707956559 [Eh]
	 SCS Total Energy          =    -325.3588726965471665 [Eh]
	-----------------------------------------------------------

  Dipole Moment: [D]
     X:    -0.1234      Y:    -3.5335      Z:    -0.1498     Total:     3.5388

*** Psi4 exiting successfully. Buy a developer a beer!
