                               Psi4 1.3.2 release

  ==> Input File <==

--------------------------------------------------------------------------
#psi4
#
memory 32 gb

molecule  {
0 1
  O        1.2124500     1.3700530     0.1515380
  N        0.1427500    -0.6487220     0.1416610
  C       -1.1370998    -0.1473623     0.5381218
  C       -1.8677030     0.7309230    -0.4520330
  C       -2.3504550    -0.6533510    -0.1177550
  C        1.2591160     0.1464980     0.0338830
  C        2.5505780    -0.6050550    -0.2234900
  H       -1.1925980     0.1934600     1.5874600
  H       -1.3884710     0.8830910    -1.4118110
  H       -2.4217970     1.5840980    -0.0766820
  H       -3.2439410    -0.7654290     0.4871790
  H       -2.2070070    -1.4283180    -0.8637610
  H        0.2699340    -1.6514040     0.2090110
  H        2.3939820    -1.5096060    -0.8170840
  H        3.2379790     0.0608480    -0.7453890
  H        3.0059730    -0.8892320     0.7302270
units angstrom
no_reorient  #important for SAPT in psi4, default
symmetry c1  #important for SAPT in psi4, default
}

set PROPERTIES_ORIGIN ["COM"]
properties('MP2/aug-cc-pvtz', properties = ['dipole'])
--------------------------------------------------------------------------

    Molecular point group: c1
  Charge       = 0
  Multiplicity = 1
  Basis Set: AUG-CC-PVTZ
    Blend: AUG-CC-PVTZ
  Basis Set: (AUG-CC-PVTZ AUX)
    Blend: AUG-CC-PVTZ-JKFIT

    Orbital Energies [Eh]
    ---------------------

    Doubly Occupied:

       1A    -20.515988     2A    -15.587339     3A    -11.351093
       4A    -11.269145     5A    -11.238552     6A    -11.233859
       7A    -11.224939     8A     -1.370729     9A     -1.240899
      10A     -1.128007    11A     -1.002595    12A     -0.843612
      13A     -0.830994    14A     -0.770952    15A     -0.700486
      16A     -0.674238    17A     -0.653538    18A     -0.608860
      19A     -0.592904    20A     -0.570992    21A     -0.545004
      22A     -0.520633    23A     -0.514820    24A     -0.451631
      25A     -0.434260    26A     -0.418979    27A     -0.380830

  @DF-RHF Final Energy:  -323.99170221943336

   => Energetics <=

    Nuclear Repulsion Energy =            301.8982391974436723
    One-Electron Energy =               -1038.4281278220375953
    Two-Electron Energy =                 412.5381864051605589
    Total Energy =                       -323.9917022194333640
  Basis Set: (AUG-CC-PVTZ AUX)
    Blend: AUG-CC-PVTZ-RI
    Molecular point group: c1

    Geometry (in Angstrom), charge = 0, multiplicity = 1:

       Center              X                  Y                   Z               Mass
    ------------   -----------------  -----------------  -----------------  -----------------
         O            1.199457318312     1.340381026306     0.143015109358    15.994914619570
         N            0.129757318312    -0.678393973694     0.133138109358    14.003074004430
         C           -1.150092481688    -0.177034273694     0.529598909358    12.000000000000
         C           -1.880695681688     0.701251026306    -0.460555890642    12.000000000000
         C           -2.363447681688    -0.683022973694    -0.126277890642    12.000000000000
         C            1.246123318312     0.116826026306     0.025360109358    12.000000000000
         C            2.537585318312    -0.634726973694    -0.232012890642    12.000000000000
         H           -1.205590681688     0.163788026306     1.578937109358     1.007825032230
         H           -1.401463681688     0.853419026306    -1.420333890642     1.007825032230
         H           -2.434789681688     1.554426026306    -0.085204890642     1.007825032230
         H           -3.256933681688    -0.795100973694     0.478656109358     1.007825032230
         H           -2.219999681688    -1.457989973694    -0.872283890642     1.007825032230
         H            0.256941318312    -1.681075973694     0.200488109358     1.007825032230
         H            2.380989318312    -1.539277973694    -0.825606890642     1.007825032230
         H            3.224986318312     0.031176026306    -0.753911890642     1.007825032230
         H            2.992980318312    -0.918903973694     0.721704109358     1.007825032230

  Basis Set: AUG-CC-PVTZ
    Blend: AUG-CC-PVTZ
  Basis Set: (AUG-CC-PVTZ AUX)
    Blend: AUG-CC-PVTZ-JKFIT
	 Reference Energy          =    -323.9917022194333640 [Eh]
	 Singles Energy            =      -0.0000000000000000 [Eh]
	 Same-Spin Energy          =      -0.3336919760485744 [Eh]
	 Opposite-Spin Energy      =      -1.0891046843454470 [Eh]
	 Correlation Energy        =      -1.4227966603940214 [Eh]
	 Total Energy              =    -325.4144988798273630 [Eh]

	 ================> DF-SCS-MP2 Energies <==================
	-----------------------------------------------------------
	 SCS Same-Spin Scale       =       0.3333333333333333 [-]
	 SCS Opposite-Spin Scale   =       1.2000000000000000 [-]
	 SCS Same-Spin Energy      =      -0.1112306586828581 [Eh]
	 SCS Opposite-Spin Energy  =      -1.3069256212145364 [Eh]
	 SCS Correlation Energy    =      -1.4181562798973946 [Eh]
	 SCS Total Energy          =    -325.4098584993307668 [Eh]
	-----------------------------------------------------------

  Dipole Moment: [D]
     X:    -0.7239      Y:    -3.4951      Z:     0.0672     Total:     3.5699

*** Psi4 exiting successfully. Buy a developer a beer!
