                               Psi4 1.3.2 release

  ==> Input File <==

--------------------------------------------------------------------------
#psi4
#
memory 32 gb

molecule  {
0 1
  O        1.2124500     1.3700530     0.1515380
  N        0.1207911    -0.5819611     0.0094365
  C       -1.1170200    -0.1018270     0.5422150
  C       -1.8677030     0.7309230    -0.4520330
  C       -2.3504550    -0.6533510    -0.1177550
  C        1.2591160     0.1464980     0.0338830
  C        2.5505780    -0.6050550    -0.2234900
  H       -1.1925980     0.1934600     1.5874600
  H       -1.3884710     0.8830910    -1.4118110
  H       -2.4217970     1.5840980    -0.0766820
  H       -3.2439410    -0.7654290     0.4871790
  H       -2.2070070    -1.4283180    -0.8637610
  H        0.2699340    -1.6514040     0.2090110
  H        2.3939820    -1.5096060    -0.8170840
  H        3.2379790     0.0608480    -0.7453890
  H        3.0059730    -0.8892320     0.7302270
units angstrom
no_reorient  #important for SAPT in psi4, default
symmetry c1  #important for SAPT in psi4, default
}

set PROPERTIES_ORIGIN ["COM"]
properties('MP2/aug-cc-pvtz', properties = ['dipole'])
--------------------------------------------------------------------------

    Molecular point group: c1
  Charge       = 0
  Multiplicity = 1
  Basis Set: AUG-CC-PVTZ
    Blend: AUG-CC-PVTZ
  Basis Set: (AUG-CC-PVTZ AUX)
    Blend: AUG-CC-PVTZ-JKFIT

    Orbital Energies [Eh]
    ---------------------

    Doubly Occupied:

       1A    -20.513794     2A    -15.595116     3A    -11.347306
       4A    -11.269244     5A    -11.239629     6A    -11.233186
       7A    -11.223600     8A     -1.373798     9A     -1.239924
      10A     -1.123262    11A     -1.002332    12A     -0.844365
      13A     -0.830271    14A     -0.757312    15A     -0.697341
      16A     -0.673145    17A     -0.649106    18A     -0.609243
      19A     -0.592141    20A     -0.570185    21A     -0.546882
      22A     -0.521686    23A     -0.515177    24A     -0.444437
      25A     -0.432670    26A     -0.417636    27A     -0.387454

  @DF-RHF Final Energy:  -323.98163184451244

   => Energetics <=

    Nuclear Repulsion Energy =            302.6438252581322104
    One-Electron Energy =               -1039.9504313752493090
    Two-Electron Energy =                 413.3249742726046634
    Total Energy =                       -323.9816318445124352
  Basis Set: (AUG-CC-PVTZ AUX)
    Blend: AUG-CC-PVTZ-RI
    Molecular point group: c1

    Geometry (in Angstrom), charge = 0, multiplicity = 1:

       Center              X                  Y                   Z               Mass
    ------------   -----------------  -----------------  -----------------  -----------------
         O            1.200128919876     1.325428920334     0.161208910868    15.994914619570
         N            0.108470019876    -0.626585179666     0.019107410868    14.003074004430
         C           -1.129341080124    -0.146451079666     0.551885910868    12.000000000000
         C           -1.880024080124     0.686298920334    -0.442362089132    12.000000000000
         C           -2.362776080124    -0.697975079666    -0.108084089132    12.000000000000
         C            1.246794919876     0.101873920334     0.043553910868    12.000000000000
         C            2.538256919876    -0.649679079666    -0.213819089132    12.000000000000
         H           -1.204919080124     0.148835920334     1.597130910868     1.007825032230
         H           -1.400792080124     0.838466920334    -1.402140089132     1.007825032230
         H           -2.434118080124     1.539473920334    -0.067011089132     1.007825032230
         H           -3.256262080124    -0.810053079666     0.496849910868     1.007825032230
         H           -2.219328080124    -1.472942079666    -0.854090089132     1.007825032230
         H            0.257612919876    -1.696028079666     0.218681910868     1.007825032230
         H            2.381660919876    -1.554230079666    -0.807413089132     1.007825032230
         H            3.225657919876     0.016223920334    -0.735718089132     1.007825032230
         H            2.993651919876    -0.933856079666     0.739897910868     1.007825032230

  Basis Set: AUG-CC-PVTZ
    Blend: AUG-CC-PVTZ
  Basis Set: (AUG-CC-PVTZ AUX)
    Blend: AUG-CC-PVTZ-JKFIT
	 Reference Energy          =    -323.9816318445124352 [Eh]
	 Singles Energy            =      -0.0000000000000000 [Eh]
	 Same-Spin Energy          =      -0.3343408683445631 [Eh]
	 Opposite-Spin Energy      =      -1.0908682376354444 [Eh]
	 Correlation Energy        =      -1.4252091059800074 [Eh]
	 Total Energy              =    -325.4068409504924375 [Eh]

	 ================> DF-SCS-MP2 Energies <==================
	-----------------------------------------------------------
	 SCS Same-Spin Scale       =       0.3333333333333333 [-]
	 SCS Opposite-Spin Scale   =       1.2000000000000000 [-]
	 SCS Same-Spin Energy      =      -0.1114469561148543 [Eh]
	 SCS Opposite-Spin Energy  =      -1.3090418851625332 [Eh]
	 SCS Correlation Energy    =      -1.4204888412773875 [Eh]
	 SCS Total Energy          =    -325.4021206857898392 [Eh]
	-----------------------------------------------------------

  Dipole Moment: [D]
     X:    -0.6382      Y:    -3.4697      Z:     0.2936     Total:     3.5401

*** Psi4 exiting successfully. Buy a developer a beer!
