                               Psi4 1.4a3.dev225

  ==> Input File <==

--------------------------------------------------------------------------
#psi4
#
memory 32 gb

molecule  {
0 1
  O        1.2124500     1.3700530     0.1515380
  N        0.1427500    -0.6487220     0.1416610
  C       -1.1610501    -0.0827125     0.5562147
  C       -1.8677030     0.7309230    -0.4520330
  C       -2.3504550    -0.6533510    -0.1177550
  C        1.2591160     0.1464980     0.0338830
  C        2.5505780    -0.6050550    -0.2234900
  H       -1.1925980     0.1934600     1.5874600
  H       -1.3884710     0.8830910    -1.4118110
  H       -2.4217970     1.5840980    -0.0766820
  H       -3.2439410    -0.7654290     0.4871790
  H       -2.2070070    -1.4283180    -0.8637610
  H        0.2699340    -1.6514040     0.2090110
  H        2.3939820    -1.5096060    -0.8170840
  H        3.2379790     0.0608480    -0.7453890
  H        3.0059730    -0.8892320     0.7302270
units angstrom
no_reorient  #important for SAPT in psi4, default
symmetry c1  #important for SAPT in psi4, default
}

set PROPERTIES_ORIGIN ["COM"]
properties('MP2/aug-cc-pvtz', properties = ['dipole'])
--------------------------------------------------------------------------

    Molecular point group: c1
  Charge       = 0
  Multiplicity = 1
  Basis Set: AUG-CC-PVTZ
    Blend: AUG-CC-PVTZ
  Basis Set: (AUG-CC-PVTZ AUX)
    Blend: AUG-CC-PVTZ-JKFIT

    Orbital Energies [Eh]
    ---------------------

    Doubly Occupied:

       1A    -20.513679     2A    -15.585262     3A    -11.348297
       4A    -11.269790     5A    -11.236822     6A    -11.232921
       7A    -11.226400     8A     -1.368034     9A     -1.231468
      10A     -1.131898    11A     -0.999142    12A     -0.838393
      13A     -0.832882    14A     -0.770485    15A     -0.700677
      16A     -0.673091    17A     -0.651615    18A     -0.607220
      19A     -0.595566    20A     -0.569603    21A     -0.540018
      22A     -0.520666    23A     -0.514778    24A     -0.447169
      25A     -0.439595    26A     -0.416451    27A     -0.387263

  @DF-RHF Final Energy:  -323.99136349630248

   => Energetics <=

    Nuclear Repulsion Energy =            301.5589497424709862
    One-Electron Energy =               -1037.8022568643409613
    Two-Electron Energy =                 412.2519436255674918
    Total Energy =                       -323.9913634963024833
  Basis Set: (AUG-CC-PVTZ AUX)
    Blend: AUG-CC-PVTZ-RI
    Molecular point group: c1

    Geometry (in Angstrom), charge = 0, multiplicity = 1:

       Center              X                  Y                   Z               Mass
    ------------   -----------------  -----------------  -----------------  -----------------
         O            1.202358380201     1.332550098472     0.140823545050    15.994914619570
         N            0.132658380201    -0.686224901528     0.130946545050    14.003074004430
         C           -1.171141719799    -0.120215401528     0.545500245050    12.000000000000
         C           -1.877794619799     0.693420098472    -0.462747454950    12.000000000000
         C           -2.360546619799    -0.690853901528    -0.128469454950    12.000000000000
         C            1.249024380201     0.108995098472     0.023168545050    12.000000000000
         C            2.540486380201    -0.642557901528    -0.234204454950    12.000000000000
         H           -1.202689619799     0.155957098472     1.576745545050     1.007825032230
         H           -1.398562619799     0.845588098472    -1.422525454950     1.007825032230
         H           -2.431888619799     1.546595098472    -0.087396454950     1.007825032230
         H           -3.254032619799    -0.802931901528     0.476464545050     1.007825032230
         H           -2.217098619799    -1.465820901528    -0.874475454950     1.007825032230
         H            0.259842380201    -1.688906901528     0.198296545050     1.007825032230
         H            2.383890380201    -1.547108901528    -0.827798454950     1.007825032230
         H            3.227887380201     0.023345098472    -0.756103454950     1.007825032230
         H            2.995881380201    -0.926734901528     0.719512545050     1.007825032230

  Basis Set: AUG-CC-PVTZ
    Blend: AUG-CC-PVTZ
  Basis Set: (AUG-CC-PVTZ AUX)
    Blend: AUG-CC-PVTZ-JKFIT
	 Reference Energy          =    -323.9913634963024833 [Eh]
	 Singles Energy            =      -0.0000000000000000 [Eh]
	 Same-Spin Energy          =      -0.3333613737663382 [Eh]
	 Opposite-Spin Energy      =      -1.0887184198179336 [Eh]
	 Correlation Energy        =      -1.4220797935842717 [Eh]
	 Total Energy              =    -325.4134432898867431 [Eh]

	 ================> DF-SCS-MP2 Energies <==================
	-----------------------------------------------------------
	 SCS Same-Spin Scale       =       0.3333333333333333 [-]
	 SCS Opposite-Spin Scale   =       1.2000000000000000 [-]
	 SCS Same-Spin Energy      =      -0.1111204579221127 [Eh]
	 SCS Opposite-Spin Energy  =      -1.3064621037815203 [Eh]
	 SCS Correlation Energy    =      -1.4175825617036331 [Eh]
	 SCS Total Energy          =    -325.4089460580061086 [Eh]
	-----------------------------------------------------------

  Dipole Moment: [D]
     X:    -0.8476      Y:    -3.4357      Z:     0.1035     Total:     3.5402

*** Psi4 exiting successfully. Buy a developer a beer!
