                               Psi4 1.3.2 release

  ==> Input File <==

--------------------------------------------------------------------------
#psi4
#
memory 32 gb

molecule  {
0 1
  O        1.2124500     1.3700530     0.1515380
  N        0.1369552    -0.6270993     0.0970259
  C       -1.1170200    -0.1018270     0.5422150
  C       -1.8677030     0.7309230    -0.4520330
  C       -2.3504550    -0.6533510    -0.1177550
  C        1.2591160     0.1464980     0.0338830
  C        2.5505780    -0.6050550    -0.2234900
  H       -1.1925980     0.1934600     1.5874600
  H       -1.3884710     0.8830910    -1.4118110
  H       -2.4217970     1.5840980    -0.0766820
  H       -3.2439410    -0.7654290     0.4871790
  H       -2.2070070    -1.4283180    -0.8637610
  H        0.2699340    -1.6514040     0.2090110
  H        2.3939820    -1.5096060    -0.8170840
  H        3.2379790     0.0608480    -0.7453890
  H        3.0059730    -0.8892320     0.7302270
units angstrom
no_reorient  #important for SAPT in psi4, default
symmetry c1  #important for SAPT in psi4, default
}

set PROPERTIES_ORIGIN ["COM"]
properties('MP2/aug-cc-pvtz', properties = ['dipole'])
--------------------------------------------------------------------------

    Molecular point group: c1
  Charge       = 0
  Multiplicity = 1
  Basis Set: AUG-CC-PVTZ
    Blend: AUG-CC-PVTZ
  Basis Set: (AUG-CC-PVTZ AUX)
    Blend: AUG-CC-PVTZ-JKFIT

    Orbital Energies [Eh]
    ---------------------

    Doubly Occupied:

       1A    -20.514618     2A    -15.589828     3A    -11.348798
       4A    -11.268839     5A    -11.238455     6A    -11.233213
       7A    -11.225501     8A     -1.371677     9A     -1.240269
      10A     -1.124243    11A     -1.002072    12A     -0.843366
      13A     -0.831094    14A     -0.766533    15A     -0.702164
      16A     -0.673167    17A     -0.650876    18A     -0.608754
      19A     -0.592948    20A     -0.571160    21A     -0.546745
      22A     -0.520597    23A     -0.515786    24A     -0.447167
      25A     -0.432053    26A     -0.417419    27A     -0.385934

  @DF-RHF Final Energy:  -323.99187143130445

   => Energetics <=

    Nuclear Repulsion Energy =            302.2203721301046926
    One-Electron Energy =               -1039.0979366458502682
    Two-Electron Energy =                 412.8856930844411295
    Total Energy =                       -323.9918714313044461
  Basis Set: (AUG-CC-PVTZ AUX)
    Blend: AUG-CC-PVTZ-RI
    Molecular point group: c1

    Geometry (in Angstrom), charge = 0, multiplicity = 1:

       Center              X                  Y                   Z               Mass
    ------------   -----------------  -----------------  -----------------  -----------------
         O            1.197844164528     1.331809092682     0.148828366942    15.994914619570
         N            0.122349364528    -0.665343207318     0.094316266942    14.003074004430
         C           -1.131625835472    -0.140070907318     0.539505366942    12.000000000000
         C           -1.882308835472     0.692679092682    -0.454742633058    12.000000000000
         C           -2.365060835472    -0.691594907318    -0.120464633058    12.000000000000
         C            1.244510164528     0.108254092682     0.031173366942    12.000000000000
         C            2.535972164528    -0.643298907318    -0.226199633058    12.000000000000
         H           -1.207203835472     0.155216092682     1.584750366942     1.007825032230
         H           -1.403076835472     0.844847092682    -1.414520633058     1.007825032230
         H           -2.436402835472     1.545854092682    -0.079391633058     1.007825032230
         H           -3.258546835472    -0.803672907318     0.484469366942     1.007825032230
         H           -2.221612835472    -1.466561907318    -0.866470633058     1.007825032230
         H            0.255328164528    -1.689647907318     0.206301366942     1.007825032230
         H            2.379376164528    -1.547849907318    -0.819793633058     1.007825032230
         H            3.223373164528     0.022604092682    -0.748098633058     1.007825032230
         H            2.991367164528    -0.927475907318     0.727517366942     1.007825032230

  Basis Set: AUG-CC-PVTZ
    Blend: AUG-CC-PVTZ
  Basis Set: (AUG-CC-PVTZ AUX)
    Blend: AUG-CC-PVTZ-JKFIT
	 Reference Energy          =    -323.9918714313044461 [Eh]
	 Singles Energy            =      -0.0000000000000000 [Eh]
	 Same-Spin Energy          =      -0.3337631362076492 [Eh]
	 Opposite-Spin Energy      =      -1.0893957658740283 [Eh]
	 Correlation Energy        =      -1.4231589020816775 [Eh]
	 Total Energy              =    -325.4150303333861416 [Eh]

	 ================> DF-SCS-MP2 Energies <==================
	-----------------------------------------------------------
	 SCS Same-Spin Scale       =       0.3333333333333333 [-]
	 SCS Opposite-Spin Scale   =       1.2000000000000000 [-]
	 SCS Same-Spin Energy      =      -0.1112543787358831 [Eh]
	 SCS Opposite-Spin Energy  =      -1.3072749190488340 [Eh]
	 SCS Correlation Energy    =      -1.4185292977847170 [Eh]
	 SCS Total Energy          =    -325.4104007290891900 [Eh]
	-----------------------------------------------------------

  Dipole Moment: [D]
     X:    -0.7017      Y:    -3.4789      Z:     0.1487     Total:     3.5521

*** Psi4 exiting successfully. Buy a developer a beer!
