                               Psi4 1.3.2 release

  ==> Input File <==

--------------------------------------------------------------------------
#psi4
#
memory 32 gb

molecule  {
0 1
  O        1.2124500     1.3700530     0.1515380
  N        0.1339019    -0.6515603     0.1184865
  C       -1.1170200    -0.1018270     0.5422150
  C       -1.8677030     0.7309230    -0.4520330
  C       -2.3504550    -0.6533510    -0.1177550
  C        1.2591160     0.1464980     0.0338830
  C        2.5505780    -0.6050550    -0.2234900
  H       -1.1925980     0.1934600     1.5874600
  H       -1.3884710     0.8830910    -1.4118110
  H       -2.4217970     1.5840980    -0.0766820
  H       -3.2439410    -0.7654290     0.4871790
  H       -2.2070070    -1.4283180    -0.8637610
  H        0.2699340    -1.6514040     0.2090110
  H        2.3939820    -1.5096060    -0.8170840
  H        3.2379790     0.0608480    -0.7453890
  H        3.0059730    -0.8892320     0.7302270
units angstrom
no_reorient  #important for SAPT in psi4, default
symmetry c1  #important for SAPT in psi4, default
}

set PROPERTIES_ORIGIN ["COM"]
properties('MP2/aug-cc-pvtz', properties = ['dipole'])
--------------------------------------------------------------------------

    Molecular point group: c1
  Charge       = 0
  Multiplicity = 1
  Basis Set: AUG-CC-PVTZ
    Blend: AUG-CC-PVTZ
  Basis Set: (AUG-CC-PVTZ AUX)
    Blend: AUG-CC-PVTZ-JKFIT

    Orbital Energies [Eh]
    ---------------------

    Doubly Occupied:

       1A    -20.517803     2A    -15.587166     3A    -11.351410
       4A    -11.268101     5A    -11.238653     6A    -11.232268
       7A    -11.225760     8A     -1.371557     9A     -1.239559
      10A     -1.123146    11A     -1.002451    12A     -0.840265
      13A     -0.830884    14A     -0.770691    15A     -0.703132
      16A     -0.673121    17A     -0.650755    18A     -0.608344
      19A     -0.593980    20A     -0.572284    21A     -0.546746
      22A     -0.520083    23A     -0.515222    24A     -0.448350
      25A     -0.432450    26A     -0.417176    27A     -0.385557

  @DF-RHF Final Energy:  -323.99296243347948

   => Energetics <=

    Nuclear Repulsion Energy =            301.8854101497706779
    One-Electron Energy =               -1038.4229159430556138
    Two-Electron Energy =                 412.5445433598054592
    Total Energy =                       -323.9929624334794767
  Basis Set: (AUG-CC-PVTZ AUX)
    Blend: AUG-CC-PVTZ-RI
    Molecular point group: c1

    Geometry (in Angstrom), charge = 0, multiplicity = 1:

       Center              X                  Y                   Z               Mass
    ------------   -----------------  -----------------  -----------------  -----------------
         O            1.198275740892     1.335266594218     0.145794964487    15.994914619570
         N            0.119727640892    -0.686346705782     0.112743464487    14.003074004430
         C           -1.131194259108    -0.136613405782     0.536471964487    12.000000000000
         C           -1.881877259108     0.696136594218    -0.457776035513    12.000000000000
         C           -2.364629259108    -0.688137405782    -0.123498035513    12.000000000000
         C            1.244941740892     0.111711594218     0.028139964487    12.000000000000
         C            2.536403740892    -0.639841405782    -0.229233035513    12.000000000000
         H           -1.206772259108     0.158673594218     1.581716964487     1.007825032230
         H           -1.402645259108     0.848304594218    -1.417554035513     1.007825032230
         H           -2.435971259108     1.549311594218    -0.082425035513     1.007825032230
         H           -3.258115259108    -0.800215405782     0.481435964487     1.007825032230
         H           -2.221181259108    -1.463104405782    -0.869504035513     1.007825032230
         H            0.255759740892    -1.686190405782     0.203267964487     1.007825032230
         H            2.379807740892    -1.544392405782    -0.822827035513     1.007825032230
         H            3.223804740892     0.026061594218    -0.751132035513     1.007825032230
         H            2.991798740892    -0.924018405782     0.724483964487     1.007825032230

  Basis Set: AUG-CC-PVTZ
    Blend: AUG-CC-PVTZ
  Basis Set: (AUG-CC-PVTZ AUX)
    Blend: AUG-CC-PVTZ-JKFIT
	 Reference Energy          =    -323.9929624334794767 [Eh]
	 Singles Energy            =      -0.0000000000000000 [Eh]
	 Same-Spin Energy          =      -0.3336397528765506 [Eh]
	 Opposite-Spin Energy      =      -1.0892208673617625 [Eh]
	 Correlation Energy        =      -1.4228606202383132 [Eh]
	 Total Energy              =    -325.4158230537178156 [Eh]

	 ================> DF-SCS-MP2 Energies <==================
	-----------------------------------------------------------
	 SCS Same-Spin Scale       =       0.3333333333333333 [-]
	 SCS Opposite-Spin Scale   =       1.2000000000000000 [-]
	 SCS Same-Spin Energy      =      -0.1112132509588502 [Eh]
	 SCS Opposite-Spin Energy  =      -1.3070650408341149 [Eh]
	 SCS Correlation Energy    =      -1.4182782917929651 [Eh]
	 SCS Total Energy          =    -325.4112407252724211 [Eh]
	-----------------------------------------------------------

  Dipole Moment: [D]
     X:    -0.6487      Y:    -3.4206      Z:     0.1136     Total:     3.4835

*** Psi4 exiting successfully. Buy a developer a beer!
