                               Psi4 1.4a3.dev225

  ==> Input File <==

--------------------------------------------------------------------------
#psi4
#
memory 32 gb

molecule  {
0 1
  O        1.2124500     1.3700530     0.1515380
  N        0.1427500    -0.6487220     0.1416610
  C       -1.0729899    -0.1209415     0.5282153
  C       -1.8677030     0.7309230    -0.4520330
  C       -2.3504550    -0.6533510    -0.1177550
  C        1.2591160     0.1464980     0.0338830
  C        2.5505780    -0.6050550    -0.2234900
  H       -1.1925980     0.1934600     1.5874600
  H       -1.3884710     0.8830910    -1.4118110
  H       -2.4217970     1.5840980    -0.0766820
  H       -3.2439410    -0.7654290     0.4871790
  H       -2.2070070    -1.4283180    -0.8637610
  H        0.2699340    -1.6514040     0.2090110
  H        2.3939820    -1.5096060    -0.8170840
  H        3.2379790     0.0608480    -0.7453890
  H        3.0059730    -0.8892320     0.7302270
units angstrom
no_reorient  #important for SAPT in psi4, default
symmetry c1  #important for SAPT in psi4, default
}

set PROPERTIES_ORIGIN ["COM"]
properties('MP2/aug-cc-pvtz', properties = ['dipole'])
--------------------------------------------------------------------------

    Molecular point group: c1
  Charge       = 0
  Multiplicity = 1
  Basis Set: AUG-CC-PVTZ
    Blend: AUG-CC-PVTZ
  Basis Set: (AUG-CC-PVTZ AUX)
    Blend: AUG-CC-PVTZ-JKFIT

    Orbital Energies [Eh]
    ---------------------

    Doubly Occupied:

       1A    -20.518493     2A    -15.588716     3A    -11.352137
       4A    -11.267721     5A    -11.239536     6A    -11.233512
       7A    -11.226609     8A     -1.374493     9A     -1.250620
      10A     -1.116219    11A     -1.005413    12A     -0.848142
      13A     -0.829946    14A     -0.773190    15A     -0.704078
      16A     -0.674215    17A     -0.652531    18A     -0.609782
      19A     -0.591856    20A     -0.573193    21A     -0.551885
      22A     -0.521086    23A     -0.515582    24A     -0.450814
      25A     -0.428353    26A     -0.413110    27A     -0.381357

  @DF-RHF Final Energy:  -323.98971599922243

   => Energetics <=

    Nuclear Repulsion Energy =            302.3620059431152640
    One-Electron Energy =               -1039.3182620041725386
    Two-Electron Energy =                 412.9665400618348485
    Total Energy =                       -323.9897159992224260
  Basis Set: (AUG-CC-PVTZ AUX)
    Blend: AUG-CC-PVTZ-RI
    Molecular point group: c1

    Geometry (in Angstrom), charge = 0, multiplicity = 1:

       Center              X                  Y                   Z               Mass
    ------------   -----------------  -----------------  -----------------  -----------------
         O            1.191691787709     1.337180716667     0.144215068006    15.994914619570
         N            0.121991787709    -0.681594283333     0.134338068006    14.003074004430
         C           -1.093748112291    -0.153813783333     0.520892368006    12.000000000000
         C           -1.888461212291     0.698050716667    -0.459355931994    12.000000000000
         C           -2.371213212291    -0.686223283333    -0.125077931994    12.000000000000
         C            1.238357787709     0.113625716667     0.026560068006    12.000000000000
         C            2.529819787709    -0.637927283333    -0.230812931994    12.000000000000
         H           -1.213356212291     0.160587716667     1.580137068006     1.007825032230
         H           -1.409229212291     0.850218716667    -1.419133931994     1.007825032230
         H           -2.442555212291     1.551225716667    -0.084004931994     1.007825032230
         H           -3.264699212291    -0.798301283333     0.479856068006     1.007825032230
         H           -2.227765212291    -1.461190283333    -0.871083931994     1.007825032230
         H            0.249175787709    -1.684276283333     0.201688068006     1.007825032230
         H            2.373223787709    -1.542478283333    -0.824406931994     1.007825032230
         H            3.217220787709     0.027975716667    -0.752711931994     1.007825032230
         H            2.985214787709    -0.922104283333     0.722904068006     1.007825032230

  Basis Set: AUG-CC-PVTZ
    Blend: AUG-CC-PVTZ
  Basis Set: (AUG-CC-PVTZ AUX)
    Blend: AUG-CC-PVTZ-JKFIT
	 Reference Energy          =    -323.9897159992224260 [Eh]
	 Singles Energy            =      -0.0000000000000000 [Eh]
	 Same-Spin Energy          =      -0.3340230799555972 [Eh]
	 Opposite-Spin Energy      =      -1.0896805217124594 [Eh]
	 Correlation Energy        =      -1.4237036016680567 [Eh]
	 Total Energy              =    -325.4134196008905064 [Eh]

	 ================> DF-SCS-MP2 Energies <==================
	-----------------------------------------------------------
	 SCS Same-Spin Scale       =       0.3333333333333333 [-]
	 SCS Opposite-Spin Scale   =       1.2000000000000000 [-]
	 SCS Same-Spin Energy      =      -0.1113410266518657 [Eh]
	 SCS Opposite-Spin Energy  =      -1.3076166260549513 [Eh]
	 SCS Correlation Energy    =      -1.4189576527068171 [Eh]
	 SCS Total Energy          =    -325.4086736519292344 [Eh]
	-----------------------------------------------------------

  Dipole Moment: [D]
     X:    -0.5723      Y:    -3.4748      Z:     0.0265     Total:     3.5217

*** Psi4 exiting successfully. Buy a developer a beer!
