                               Psi4 1.3.2 release

  ==> Input File <==

--------------------------------------------------------------------------
#psi4
#
memory 32 gb

molecule  {
0 1
  O        1.2124500     1.3700530     0.1515380
  N        0.1427500    -0.6487220     0.1416610
  C       -1.0813109    -0.0115578     0.5188279
  C       -1.8677030     0.7309230    -0.4520330
  C       -2.3504550    -0.6533510    -0.1177550
  C        1.2591160     0.1464980     0.0338830
  C        2.5505780    -0.6050550    -0.2234900
  H       -1.1925980     0.1934600     1.5874600
  H       -1.3884710     0.8830910    -1.4118110
  H       -2.4217970     1.5840980    -0.0766820
  H       -3.2439410    -0.7654290     0.4871790
  H       -2.2070070    -1.4283180    -0.8637610
  H        0.2699340    -1.6514040     0.2090110
  H        2.3939820    -1.5096060    -0.8170840
  H        3.2379790     0.0608480    -0.7453890
  H        3.0059730    -0.8892320     0.7302270
units angstrom
no_reorient  #important for SAPT in psi4, default
symmetry c1  #important for SAPT in psi4, default
}

set PROPERTIES_ORIGIN ["COM"]
properties('MP2/aug-cc-pvtz', properties = ['dipole'])
--------------------------------------------------------------------------

    Molecular point group: c1
  Charge       = 0
  Multiplicity = 1
  Basis Set: AUG-CC-PVTZ
    Blend: AUG-CC-PVTZ
  Basis Set: (AUG-CC-PVTZ AUX)
    Blend: AUG-CC-PVTZ-JKFIT

    Orbital Energies [Eh]
    ---------------------

    Doubly Occupied:

       1A    -20.516729     2A    -15.588096     3A    -11.349384
       4A    -11.270606     5A    -11.237896     6A    -11.230291
       7A    -11.228484     8A     -1.372612     9A     -1.240474
      10A     -1.123928    11A     -1.002167    12A     -0.838301
      13A     -0.833933    14A     -0.772201    15A     -0.705681
      16A     -0.673149    17A     -0.650383    18A     -0.608558
      19A     -0.593283    20A     -0.572081    21A     -0.546558
      22A     -0.519781    23A     -0.517038    24A     -0.461049
      25A     -0.424474    26A     -0.408563    27A     -0.386978

  @DF-RHF Final Energy:  -323.98744130173469

   => Energetics <=

    Nuclear Repulsion Energy =            302.3213636733066210
    One-Electron Energy =               -1039.2722567750431608
    Two-Electron Energy =                 412.9634518000017920
    Total Energy =                       -323.9874413017346910
  Basis Set: (AUG-CC-PVTZ AUX)
    Blend: AUG-CC-PVTZ-RI
    Molecular point group: c1

    Geometry (in Angstrom), charge = 0, multiplicity = 1:

       Center              X                  Y                   Z               Mass
    ------------   -----------------  -----------------  -----------------  -----------------
         O            1.192699697254     1.323931242408     0.145352148893    15.994914619570
         N            0.122999697254    -0.694843757592     0.135475148893    14.003074004430
         C           -1.101061202746    -0.057679557592     0.512642048893    12.000000000000
         C           -1.887453302746     0.684801242408    -0.458218851107    12.000000000000
         C           -2.370205302746    -0.699472757592    -0.123940851107    12.000000000000
         C            1.239365697254     0.100376242408     0.027697148893    12.000000000000
         C            2.530827697254    -0.651176757592    -0.229675851107    12.000000000000
         H           -1.212348302746     0.147338242408     1.581274148893     1.007825032230
         H           -1.408221302746     0.836969242408    -1.417996851107     1.007825032230
         H           -2.441547302746     1.537976242408    -0.082867851107     1.007825032230
         H           -3.263691302746    -0.811550757592     0.480993148893     1.007825032230
         H           -2.226757302746    -1.474439757592    -0.869946851107     1.007825032230
         H            0.250183697254    -1.697525757592     0.202825148893     1.007825032230
         H            2.374231697254    -1.555727757592    -0.823269851107     1.007825032230
         H            3.218228697254     0.014726242408    -0.751574851107     1.007825032230
         H            2.986222697254    -0.935353757592     0.724041148893     1.007825032230

  Basis Set: AUG-CC-PVTZ
    Blend: AUG-CC-PVTZ
  Basis Set: (AUG-CC-PVTZ AUX)
    Blend: AUG-CC-PVTZ-JKFIT
	 Reference Energy          =    -323.9874413017346910 [Eh]
	 Singles Energy            =      -0.0000000000000000 [Eh]
	 Same-Spin Energy          =      -0.3339508415678996 [Eh]
	 Opposite-Spin Energy      =      -1.0896807304536642 [Eh]
	 Correlation Energy        =      -1.4236315720215638 [Eh]
	 Total Energy              =    -325.4110728737562681 [Eh]

	 ================> DF-SCS-MP2 Energies <==================
	-----------------------------------------------------------
	 SCS Same-Spin Scale       =       0.3333333333333333 [-]
	 SCS Opposite-Spin Scale   =       1.2000000000000000 [-]
	 SCS Same-Spin Energy      =      -0.1113169471892999 [Eh]
	 SCS Opposite-Spin Energy  =      -1.3076168765443970 [Eh]
	 SCS Correlation Energy    =      -1.4189338237336968 [Eh]
	 SCS Total Energy          =    -325.4063751254684007 [Eh]
	-----------------------------------------------------------

  Dipole Moment: [D]
     X:    -0.6598      Y:    -3.3837      Z:     0.0492     Total:     3.4478

*** Psi4 exiting successfully. Buy a developer a beer!
