                               Psi4 1.3.2 release

  ==> Input File <==

--------------------------------------------------------------------------
#psi4
#
memory 32 gb

molecule  {
0 1
  O        1.2124500     1.3700530     0.1515380
  N        0.1427500    -0.6487220     0.1416610
  C       -1.1064030    -0.0793058     0.5440789
  C       -1.8677030     0.7309230    -0.4520330
  C       -2.3504550    -0.6533510    -0.1177550
  C        1.2591160     0.1464980     0.0338830
  C        2.5505780    -0.6050550    -0.2234900
  H       -1.1925980     0.1934600     1.5874600
  H       -1.3884710     0.8830910    -1.4118110
  H       -2.4217970     1.5840980    -0.0766820
  H       -3.2439410    -0.7654290     0.4871790
  H       -2.2070070    -1.4283180    -0.8637610
  H        0.2699340    -1.6514040     0.2090110
  H        2.3939820    -1.5096060    -0.8170840
  H        3.2379790     0.0608480    -0.7453890
  H        3.0059730    -0.8892320     0.7302270
units angstrom
no_reorient  #important for SAPT in psi4, default
symmetry c1  #important for SAPT in psi4, default
}

set PROPERTIES_ORIGIN ["COM"]
properties('MP2/aug-cc-pvtz', properties = ['dipole'])
--------------------------------------------------------------------------

    Molecular point group: c1
  Charge       = 0
  Multiplicity = 1
  Basis Set: AUG-CC-PVTZ
    Blend: AUG-CC-PVTZ
  Basis Set: (AUG-CC-PVTZ AUX)
    Blend: AUG-CC-PVTZ-JKFIT

    Orbital Energies [Eh]
    ---------------------

    Doubly Occupied:

       1A    -20.516140     2A    -15.587336     3A    -11.349916
       4A    -11.268515     5A    -11.238071     6A    -11.232681
       7A    -11.227165     8A     -1.371367     9A     -1.239708
      10A     -1.122444    11A     -1.002059    12A     -0.841545
      13A     -0.831707    14A     -0.772145    15A     -0.703710
      16A     -0.672887    17A     -0.650621    18A     -0.608359
      19A     -0.593905    20A     -0.571996    21A     -0.546999
      22A     -0.520409    23A     -0.516044    24A     -0.450436
      25A     -0.428879    26A     -0.415146    27A     -0.386761

  @DF-RHF Final Energy:  -323.99298638399841

   => Energetics <=

    Nuclear Repulsion Energy =            301.9623344971096799
    One-Electron Energy =               -1038.5767364614505368
    Two-Electron Energy =                 412.6214155803425001
    Total Energy =                       -323.9929863839984137
  Basis Set: (AUG-CC-PVTZ AUX)
    Blend: AUG-CC-PVTZ-RI
    Molecular point group: c1

    Geometry (in Angstrom), charge = 0, multiplicity = 1:

       Center              X                  Y                   Z               Mass
    ------------   -----------------  -----------------  -----------------  -----------------
         O            1.195739063568     1.332137450299     0.142293535274    15.994914619570
         N            0.126039063568    -0.686637549701     0.132416535274    14.003074004430
         C           -1.123113936432    -0.117221349701     0.534834435274    12.000000000000
         C           -1.884413936432     0.693007450299    -0.461277464726    12.000000000000
         C           -2.367165936432    -0.691266549701    -0.126999464726    12.000000000000
         C            1.242405063568     0.108582450299     0.024638535274    12.000000000000
         C            2.533867063568    -0.642970549701    -0.232734464726    12.000000000000
         H           -1.209308936432     0.155544450299     1.578215535274     1.007825032230
         H           -1.405181936432     0.845175450299    -1.421055464726     1.007825032230
         H           -2.438507936432     1.546182450299    -0.085926464726     1.007825032230
         H           -3.260651936432    -0.803344549701     0.477934535274     1.007825032230
         H           -2.223717936432    -1.466233549701    -0.873005464726     1.007825032230
         H            0.253223063568    -1.689319549701     0.199766535274     1.007825032230
         H            2.377271063568    -1.547521549701    -0.826328464726     1.007825032230
         H            3.221268063568     0.022932450299    -0.754633464726     1.007825032230
         H            2.989262063568    -0.927147549701     0.720982535274     1.007825032230

  Basis Set: AUG-CC-PVTZ
    Blend: AUG-CC-PVTZ
  Basis Set: (AUG-CC-PVTZ AUX)
    Blend: AUG-CC-PVTZ-JKFIT
	 Reference Energy          =    -323.9929863839984137 [Eh]
	 Singles Energy            =      -0.0000000000000000 [Eh]
	 Same-Spin Energy          =      -0.3335871874248278 [Eh]
	 Opposite-Spin Energy      =      -1.0890976802385384 [Eh]
	 Correlation Energy        =      -1.4226848676633663 [Eh]
	 Total Energy              =    -325.4156712516617631 [Eh]

	 ================> DF-SCS-MP2 Energies <==================
	-----------------------------------------------------------
	 SCS Same-Spin Scale       =       0.3333333333333333 [-]
	 SCS Opposite-Spin Scale   =       1.2000000000000000 [-]
	 SCS Same-Spin Energy      =      -0.1111957291416093 [Eh]
	 SCS Opposite-Spin Energy  =      -1.3069172162862459 [Eh]
	 SCS Correlation Energy    =      -1.4181129454278552 [Eh]
	 SCS Total Energy          =    -325.4110993294262926 [Eh]
	-----------------------------------------------------------

  Dipole Moment: [D]
     X:    -0.6994      Y:    -3.4365      Z:     0.0686     Total:     3.5076

*** Psi4 exiting successfully. Buy a developer a beer!
