                               Psi4 1.3.2 release

  ==> Input File <==

--------------------------------------------------------------------------
#psi4
#
memory 32 gb

molecule  {
0 1
  O        1.2124500     1.3700530     0.1515380
  N        0.1592924    -0.6425465     0.1883689
  C       -1.1170200    -0.1018270     0.5422150
  C       -1.8677030     0.7309230    -0.4520330
  C       -2.3504550    -0.6533510    -0.1177550
  C        1.2591160     0.1464980     0.0338830
  C        2.5505780    -0.6050550    -0.2234900
  H       -1.1925980     0.1934600     1.5874600
  H       -1.3884710     0.8830910    -1.4118110
  H       -2.4217970     1.5840980    -0.0766820
  H       -3.2439410    -0.7654290     0.4871790
  H       -2.2070070    -1.4283180    -0.8637610
  H        0.2699340    -1.6514040     0.2090110
  H        2.3939820    -1.5096060    -0.8170840
  H        3.2379790     0.0608480    -0.7453890
  H        3.0059730    -0.8892320     0.7302270
units angstrom
no_reorient  #important for SAPT in psi4, default
symmetry c1  #important for SAPT in psi4, default
}

set PROPERTIES_ORIGIN ["COM"]
properties('MP2/aug-cc-pvtz', properties = ['dipole'])
--------------------------------------------------------------------------

    Molecular point group: c1
  Charge       = 0
  Multiplicity = 1
  Basis Set: AUG-CC-PVTZ
    Blend: AUG-CC-PVTZ
  Basis Set: (AUG-CC-PVTZ AUX)
    Blend: AUG-CC-PVTZ-JKFIT

    Orbital Energies [Eh]
    ---------------------

    Doubly Occupied:

       1A    -20.513013     2A    -15.587670     3A    -11.348197
       4A    -11.269158     5A    -11.237508     6A    -11.234575
       7A    -11.227533     8A     -1.370462     9A     -1.240669
      10A     -1.126241    11A     -1.001867    12A     -0.845547
      13A     -0.832517    14A     -0.772989    15A     -0.701238
      16A     -0.673884    17A     -0.653123    18A     -0.608939
      19A     -0.592897    20A     -0.570312    21A     -0.545582
      22A     -0.521114    23A     -0.516460    24A     -0.449517
      25A     -0.431518    26A     -0.416486    27A     -0.384425

  @DF-RHF Final Energy:  -323.99351753762659

   => Energetics <=

    Nuclear Repulsion Energy =            302.0271385905654711
    One-Electron Energy =               -1038.6944290441367684
    Two-Electron Energy =                 412.6737729159446531
    Total Energy =                       -323.9935175376265875
  Basis Set: (AUG-CC-PVTZ AUX)
    Blend: AUG-CC-PVTZ-RI
    Molecular point group: c1

    Geometry (in Angstrom), charge = 0, multiplicity = 1:

       Center              X                  Y                   Z               Mass
    ------------   -----------------  -----------------  -----------------  -----------------
         O            1.194686856842     1.333992515998     0.135917260987    15.994914619570
         N            0.141529256842    -0.678606984002     0.172748160987    14.003074004430
         C           -1.134783143158    -0.137887484002     0.526594260987    12.000000000000
         C           -1.885466143158     0.694862515998    -0.467653739013    12.000000000000
         C           -2.368218143158    -0.689411484002    -0.133375739013    12.000000000000
         C            1.241352856842     0.110437515998     0.018262260987    12.000000000000
         C            2.532814856842    -0.641115484002    -0.239110739013    12.000000000000
         H           -1.210361143158     0.157399515998     1.571839260987     1.007825032230
         H           -1.406234143158     0.847030515998    -1.427431739013     1.007825032230
         H           -2.439560143158     1.548037515998    -0.092302739013     1.007825032230
         H           -3.261704143158    -0.801489484002     0.471558260987     1.007825032230
         H           -2.224770143158    -1.464378484002    -0.879381739013     1.007825032230
         H            0.252170856842    -1.687464484002     0.193390260987     1.007825032230
         H            2.376218856842    -1.545666484002    -0.832704739013     1.007825032230
         H            3.220215856842     0.024787515998    -0.761009739013     1.007825032230
         H            2.988209856842    -0.925292484002     0.714606260987     1.007825032230

  Basis Set: AUG-CC-PVTZ
    Blend: AUG-CC-PVTZ
  Basis Set: (AUG-CC-PVTZ AUX)
    Blend: AUG-CC-PVTZ-JKFIT
	 Reference Energy          =    -323.9935175376265875 [Eh]
	 Singles Energy            =      -0.0000000000000000 [Eh]
	 Same-Spin Energy          =      -0.3334922507676532 [Eh]
	 Opposite-Spin Energy      =      -1.0887183101765878 [Eh]
	 Correlation Energy        =      -1.4222105609442410 [Eh]
	 Total Energy              =    -325.4157280985708098 [Eh]

	 ================> DF-SCS-MP2 Energies <==================
	-----------------------------------------------------------
	 SCS Same-Spin Scale       =       0.3333333333333333 [-]
	 SCS Opposite-Spin Scale   =       1.2000000000000000 [-]
	 SCS Same-Spin Energy      =      -0.1111640835892177 [Eh]
	 SCS Opposite-Spin Energy  =      -1.3064619722119053 [Eh]
	 SCS Correlation Energy    =      -1.4176260558011231 [Eh]
	 SCS Total Energy          =    -325.4111435934277097 [Eh]
	-----------------------------------------------------------

  Dipole Moment: [D]
     X:    -0.8154      Y:    -3.5148      Z:    -0.0219     Total:     3.6082

*** Psi4 exiting successfully. Buy a developer a beer!
