                               Psi4 1.3.2 release

  ==> Input File <==

--------------------------------------------------------------------------
#psi4
#
memory 32 gb

molecule  {
0 1
  O        1.2124500     1.3700530     0.1515380
  N        0.1400440    -0.6379923     0.1192790
  C       -1.1170200    -0.1018270     0.5422150
  C       -1.8677030     0.7309230    -0.4520330
  C       -2.3504550    -0.6533510    -0.1177550
  C        1.2591160     0.1464980     0.0338830
  C        2.5505780    -0.6050550    -0.2234900
  H       -1.1925980     0.1934600     1.5874600
  H       -1.3884710     0.8830910    -1.4118110
  H       -2.4217970     1.5840980    -0.0766820
  H       -3.2439410    -0.7654290     0.4871790
  H       -2.2070070    -1.4283180    -0.8637610
  H        0.2699340    -1.6514040     0.2090110
  H        2.3939820    -1.5096060    -0.8170840
  H        3.2379790     0.0608480    -0.7453890
  H        3.0059730    -0.8892320     0.7302270
units angstrom
no_reorient  #important for SAPT in psi4, default
symmetry c1  #important for SAPT in psi4, default
}

set PROPERTIES_ORIGIN ["COM"]
properties('MP2/aug-cc-pvtz', properties = ['dipole'])
--------------------------------------------------------------------------

    Molecular point group: c1
  Charge       = 0
  Multiplicity = 1
  Basis Set: AUG-CC-PVTZ
    Blend: AUG-CC-PVTZ
  Basis Set: (AUG-CC-PVTZ AUX)
    Blend: AUG-CC-PVTZ-JKFIT

    Orbital Energies [Eh]
    ---------------------

    Doubly Occupied:

       1A    -20.515253     2A    -15.588542     3A    -11.349479
       4A    -11.268684     5A    -11.238304     6A    -11.233154
       7A    -11.225946     8A     -1.371348     9A     -1.240193
      10A     -1.124300    11A     -1.002121    12A     -0.842789
      13A     -0.831295    14A     -0.769168    15A     -0.702529
      16A     -0.673235    17A     -0.651262    18A     -0.608631
      19A     -0.593242    20A     -0.571399    21A     -0.546597
      22A     -0.520493    23A     -0.515751    24A     -0.447930
      25A     -0.432009    26A     -0.417250    27A     -0.385536

  @DF-RHF Final Energy:  -323.99294289767613

   => Energetics <=

    Nuclear Repulsion Energy =            302.0876827615855973
    One-Electron Energy =               -1038.8283653038429293
    Two-Electron Energy =                 412.7477396445812019
    Total Energy =                       -323.9929428976761301
  Basis Set: (AUG-CC-PVTZ AUX)
    Blend: AUG-CC-PVTZ-RI
    Molecular point group: c1

    Geometry (in Angstrom), charge = 0, multiplicity = 1:

       Center              X                  Y                   Z               Mass
    ------------   -----------------  -----------------  -----------------  -----------------
         O            1.197407570327     1.333348791150     0.145682946582    15.994914619570
         N            0.125001570327    -0.674696508850     0.113423946582    14.003074004430
         C           -1.132062429673    -0.138531208850     0.536359946582    12.000000000000
         C           -1.882745429673     0.694218791150    -0.457888053418    12.000000000000
         C           -2.365497429673    -0.690055208850    -0.123610053418    12.000000000000
         C            1.244073570327     0.109793791150     0.028027946582    12.000000000000
         C            2.535535570327    -0.641759208850    -0.229345053418    12.000000000000
         H           -1.207640429673     0.156755791150     1.581604946582     1.007825032230
         H           -1.403513429673     0.846386791150    -1.417666053418     1.007825032230
         H           -2.436839429673     1.547393791150    -0.082537053418     1.007825032230
         H           -3.258983429673    -0.802133208850     0.481323946582     1.007825032230
         H           -2.222049429673    -1.465022208850    -0.869616053418     1.007825032230
         H            0.254891570327    -1.688108208850     0.203155946582     1.007825032230
         H            2.378939570327    -1.546310208850    -0.822939053418     1.007825032230
         H            3.222936570327     0.024143791150    -0.751244053418     1.007825032230
         H            2.990930570327    -0.925936208850     0.724371946582     1.007825032230

  Basis Set: AUG-CC-PVTZ
    Blend: AUG-CC-PVTZ
  Basis Set: (AUG-CC-PVTZ AUX)
    Blend: AUG-CC-PVTZ-JKFIT
	 Reference Energy          =    -323.9929428976761301 [Eh]
	 Singles Energy            =      -0.0000000000000000 [Eh]
	 Same-Spin Energy          =      -0.3336622915650804 [Eh]
	 Opposite-Spin Energy      =      -1.0891732137976766 [Eh]
	 Correlation Energy        =      -1.4228355053627570 [Eh]
	 Total Energy              =    -325.4157784030388711 [Eh]

	 ================> DF-SCS-MP2 Energies <==================
	-----------------------------------------------------------
	 SCS Same-Spin Scale       =       0.3333333333333333 [-]
	 SCS Opposite-Spin Scale   =       1.2000000000000000 [-]
	 SCS Same-Spin Energy      =      -0.1112207638550268 [Eh]
	 SCS Opposite-Spin Energy  =      -1.3070078565572119 [Eh]
	 SCS Correlation Energy    =      -1.4182286204122387 [Eh]
	 SCS Total Energy          =    -325.4111715180883948 [Eh]
	-----------------------------------------------------------

  Dipole Moment: [D]
     X:    -0.7075      Y:    -3.4696      Z:     0.1093     Total:     3.5427

*** Psi4 exiting successfully. Buy a developer a beer!
