                               Psi4 1.4a3.dev225

  ==> Input File <==

--------------------------------------------------------------------------
#psi4
#
memory 32 gb

molecule  {
0 1
  O        1.2124500     1.3700530     0.1515380
  N        0.1427500    -0.6487220     0.1416610
  C       -1.0994080    -0.1094728     0.5366151
  C       -1.8677030     0.7309230    -0.4520330
  C       -2.3504550    -0.6533510    -0.1177550
  C        1.2591160     0.1464980     0.0338830
  C        2.5505780    -0.6050550    -0.2234900
  H       -1.1925980     0.1934600     1.5874600
  H       -1.3884710     0.8830910    -1.4118110
  H       -2.4217970     1.5840980    -0.0766820
  H       -3.2439410    -0.7654290     0.4871790
  H       -2.2070070    -1.4283180    -0.8637610
  H        0.2699340    -1.6514040     0.2090110
  H        2.3939820    -1.5096060    -0.8170840
  H        3.2379790     0.0608480    -0.7453890
  H        3.0059730    -0.8892320     0.7302270
units angstrom
no_reorient  #important for SAPT in psi4, default
symmetry c1  #important for SAPT in psi4, default
}

set PROPERTIES_ORIGIN ["COM"]
properties('MP2/aug-cc-pvtz', properties = ['dipole'])
--------------------------------------------------------------------------

    Molecular point group: c1
  Charge       = 0
  Multiplicity = 1
  Basis Set: AUG-CC-PVTZ
    Blend: AUG-CC-PVTZ
  Basis Set: (AUG-CC-PVTZ AUX)
    Blend: AUG-CC-PVTZ-JKFIT

    Orbital Energies [Eh]
    ---------------------

    Doubly Occupied:

       1A    -20.517022     2A    -15.587908     3A    -11.351027
       4A    -11.268136     5A    -11.238748     6A    -11.233212
       7A    -11.226442     8A     -1.372417     9A     -1.244033
      10A     -1.121100    11A     -1.003475    12A     -0.844298
      13A     -0.830845    14A     -0.772295    15A     -0.703280
      16A     -0.673615    17A     -0.651880    18A     -0.609019
      19A     -0.592815    20A     -0.572324    21A     -0.548715
      22A     -0.520647    23A     -0.515700    24A     -0.449490
      25A     -0.429871    26A     -0.416194    27A     -0.383841

  @DF-RHF Final Energy:  -323.99268290287921

   => Energetics <=

    Nuclear Repulsion Energy =            302.1071342450529187
    One-Electron Energy =               -1038.8429280716050016
    Two-Electron Energy =                 412.7431109236728162
    Total Energy =                       -323.9926829028792099
  Basis Set: (AUG-CC-PVTZ AUX)
    Blend: AUG-CC-PVTZ-RI
    Molecular point group: c1

    Geometry (in Angstrom), charge = 0, multiplicity = 1:

       Center              X                  Y                   Z               Mass
    ------------   -----------------  -----------------  -----------------  -----------------
         O            1.194891770302     1.335791531208     0.143197613541    15.994914619570
         N            0.125191770302    -0.682983468792     0.133320613541    14.003074004430
         C           -1.116966229698    -0.143734268792     0.528274713541    12.000000000000
         C           -1.885261229698     0.696661531208    -0.460373386459    12.000000000000
         C           -2.368013229698    -0.687612468792    -0.126095386459    12.000000000000
         C            1.241557770302     0.112236531208     0.025542613541    12.000000000000
         C            2.533019770302    -0.639316468792    -0.231830386459    12.000000000000
         H           -1.210156229698     0.159198531208     1.579119613541     1.007825032230
         H           -1.406029229698     0.848829531208    -1.420151386459     1.007825032230
         H           -2.439355229698     1.549836531208    -0.085022386459     1.007825032230
         H           -3.261499229698    -0.799690468792     0.478838613541     1.007825032230
         H           -2.224565229698    -1.462579468792    -0.872101386459     1.007825032230
         H            0.252375770302    -1.685665468792     0.200670613541     1.007825032230
         H            2.376423770302    -1.543867468792    -0.825424386459     1.007825032230
         H            3.220420770302     0.026586531208    -0.753729386459     1.007825032230
         H            2.988414770302    -0.923493468792     0.721886613541     1.007825032230

  Basis Set: AUG-CC-PVTZ
    Blend: AUG-CC-PVTZ
  Basis Set: (AUG-CC-PVTZ AUX)
    Blend: AUG-CC-PVTZ-JKFIT
	 Reference Energy          =    -323.9926829028792099 [Eh]
	 Singles Energy            =      -0.0000000000000000 [Eh]
	 Same-Spin Energy          =      -0.3337279573512770 [Eh]
	 Opposite-Spin Energy      =      -1.0892304184767136 [Eh]
	 Correlation Energy        =      -1.4229583758279907 [Eh]
	 Total Energy              =    -325.4156412787071986 [Eh]

	 ================> DF-SCS-MP2 Energies <==================
	-----------------------------------------------------------
	 SCS Same-Spin Scale       =       0.3333333333333333 [-]
	 SCS Opposite-Spin Scale   =       1.2000000000000000 [-]
	 SCS Same-Spin Energy      =      -0.1112426524504257 [Eh]
	 SCS Opposite-Spin Energy  =      -1.3070765021720563 [Eh]
	 SCS Correlation Energy    =      -1.4183191546224820 [Eh]
	 SCS Total Energy          =    -325.4110020575017188 [Eh]
	-----------------------------------------------------------

  Dipole Moment: [D]
     X:    -0.6545      Y:    -3.4634      Z:     0.0525     Total:     3.5251

*** Psi4 exiting successfully. Buy a developer a beer!
