                               Psi4 1.3.2 release

  ==> Input File <==

--------------------------------------------------------------------------
#psi4
#
memory 32 gb

molecule  {
0 1
  O        1.2124500     1.3700530     0.1515380
  N        0.1427500    -0.6487220     0.1416610
  C       -1.2931402    -0.0253692     0.5982138
  C       -1.8677030     0.7309230    -0.4520330
  C       -2.3504550    -0.6533510    -0.1177550
  C        1.2591160     0.1464980     0.0338830
  C        2.5505780    -0.6050550    -0.2234900
  H       -1.1925980     0.1934600     1.5874600
  H       -1.3884710     0.8830910    -1.4118110
  H       -2.4217970     1.5840980    -0.0766820
  H       -3.2439410    -0.7654290     0.4871790
  H       -2.2070070    -1.4283180    -0.8637610
  H        0.2699340    -1.6514040     0.2090110
  H        2.3939820    -1.5096060    -0.8170840
  H        3.2379790     0.0608480    -0.7453890
  H        3.0059730    -0.8892320     0.7302270
units angstrom
no_reorient  #important for SAPT in psi4, default
symmetry c1  #important for SAPT in psi4, default
}

set PROPERTIES_ORIGIN ["COM"]
properties('MP2/aug-cc-pvtz', properties = ['dipole'])
--------------------------------------------------------------------------

    Molecular point group: c1
  Charge       = 0
  Multiplicity = 1
  Basis Set: AUG-CC-PVTZ
    Blend: AUG-CC-PVTZ
  Basis Set: (AUG-CC-PVTZ AUX)
    Blend: AUG-CC-PVTZ-JKFIT

    Orbital Energies [Eh]
    ---------------------

    Doubly Occupied:

       1A    -20.506241     2A    -15.575001     3A    -11.341204
       4A    -11.277530     5A    -11.234844     6A    -11.231821
       7A    -11.228676     8A     -1.359341     9A     -1.219251
      10A     -1.147730    11A     -0.990182    12A     -0.845113
      13A     -0.832883    14A     -0.764308    15A     -0.696160
      16A     -0.678154    17A     -0.653406    18A     -0.602723
      19A     -0.597100    20A     -0.562657    21A     -0.531236
      22A     -0.517668    23A     -0.504142    24A     -0.462791
      25A     -0.443566    26A     -0.407673    27A     -0.385843

  @DF-RHF Final Energy:  -323.95838973094959

   => Energetics <=

    Nuclear Repulsion Energy =            300.5246661458525068
    One-Electron Energy =               -1035.7716176434375939
    Two-Electron Energy =                 411.2885617666354960
    Total Energy =                       -323.9583897309495910
  Basis Set: (AUG-CC-PVTZ AUX)
    Blend: AUG-CC-PVTZ-RI
    Molecular point group: c1

    Geometry (in Angstrom), charge = 0, multiplicity = 1:

       Center              X                  Y                   Z               Mass
    ------------   -----------------  -----------------  -----------------  -----------------
         O            1.218358244712     1.325604195405     0.135736260616    15.994914619570
         N            0.148658244712    -0.693170804595     0.125859260616    14.003074004430
         C           -1.287231955288    -0.069818004595     0.582412060616    12.000000000000
         C           -1.861794755288     0.686474195405    -0.467834739384    12.000000000000
         C           -2.344546755288    -0.697799804595    -0.133556739384    12.000000000000
         C            1.265024244712     0.102049195405     0.018081260616    12.000000000000
         C            2.556486244712    -0.649503804595    -0.239291739384    12.000000000000
         H           -1.186689755288     0.149011195405     1.571658260616     1.007825032230
         H           -1.382562755288     0.838642195405    -1.427612739384     1.007825032230
         H           -2.415888755288     1.539649195405    -0.092483739384     1.007825032230
         H           -3.238032755288    -0.809877804595     0.471377260616     1.007825032230
         H           -2.201098755288    -1.472766804595    -0.879562739384     1.007825032230
         H            0.275842244712    -1.695852804595     0.193209260616     1.007825032230
         H            2.399890244712    -1.554054804595    -0.832885739384     1.007825032230
         H            3.243887244712     0.016399195405    -0.761190739384     1.007825032230
         H            3.011881244712    -0.933680804595     0.714425260616     1.007825032230

  Basis Set: AUG-CC-PVTZ
    Blend: AUG-CC-PVTZ
  Basis Set: (AUG-CC-PVTZ AUX)
    Blend: AUG-CC-PVTZ-JKFIT
	 Reference Energy          =    -323.9583897309495910 [Eh]
	 Singles Energy            =      -0.0000000000000000 [Eh]
	 Same-Spin Energy          =      -0.3338816647325519 [Eh]
	 Opposite-Spin Energy      =      -1.0897781052493896 [Eh]
	 Correlation Energy        =      -1.4236597699819415 [Eh]
	 Total Energy              =    -325.3820495009315437 [Eh]

	 ================> DF-SCS-MP2 Energies <==================
	-----------------------------------------------------------
	 SCS Same-Spin Scale       =       0.3333333333333333 [-]
	 SCS Opposite-Spin Scale   =       1.2000000000000000 [-]
	 SCS Same-Spin Energy      =      -0.1112938882441840 [Eh]
	 SCS Opposite-Spin Energy  =      -1.3077337262992674 [Eh]
	 SCS Correlation Energy    =      -1.4190276145434515 [Eh]
	 SCS Total Energy          =    -325.3774173454930292 [Eh]
	-----------------------------------------------------------

  Dipole Moment: [D]
     X:    -1.3045      Y:    -3.3644      Z:     0.1766     Total:     3.6128

*** Psi4 exiting successfully. Buy a developer a beer!
