                               Psi4 1.3.2 release

  ==> Input File <==

--------------------------------------------------------------------------
#psi4
#
memory 32 gb

molecule  {
0 1
  O        1.2124500     1.3700530     0.1515380
  N        0.1427500    -0.6487220     0.1416610
  C       -1.1725588    -0.2402092     0.5284918
  C       -1.8677030     0.7309230    -0.4520330
  C       -2.3504550    -0.6533510    -0.1177550
  C        1.2591160     0.1464980     0.0338830
  C        2.5505780    -0.6050550    -0.2234900
  H       -1.1925980     0.1934600     1.5874600
  H       -1.3884710     0.8830910    -1.4118110
  H       -2.4217970     1.5840980    -0.0766820
  H       -3.2439410    -0.7654290     0.4871790
  H       -2.2070070    -1.4283180    -0.8637610
  H        0.2699340    -1.6514040     0.2090110
  H        2.3939820    -1.5096060    -0.8170840
  H        3.2379790     0.0608480    -0.7453890
  H        3.0059730    -0.8892320     0.7302270
units angstrom
no_reorient  #important for SAPT in psi4, default
symmetry c1  #important for SAPT in psi4, default
}

set PROPERTIES_ORIGIN ["COM"]
properties('MP2/aug-cc-pvtz', properties = ['dipole'])
--------------------------------------------------------------------------

    Molecular point group: c1
  Charge       = 0
  Multiplicity = 1
  Basis Set: AUG-CC-PVTZ
    Blend: AUG-CC-PVTZ
  Basis Set: (AUG-CC-PVTZ AUX)
    Blend: AUG-CC-PVTZ-JKFIT

    Orbital Energies [Eh]
    ---------------------

    Doubly Occupied:

       1A    -20.516198     2A    -15.588338     3A    -11.353149
       4A    -11.273025     5A    -11.239446     6A    -11.235522
       7A    -11.222753     8A     -1.370446     9A     -1.243378
      10A     -1.135520    11A     -1.003645    12A     -0.847786
      13A     -0.830376    14A     -0.769000    15A     -0.696694
      16A     -0.676085    17A     -0.656984    18A     -0.609774
      19A     -0.591388    20A     -0.570309    21A     -0.541634
      22A     -0.521275    23A     -0.513594    24A     -0.471176
      25A     -0.426953    26A     -0.420757    27A     -0.368671

  @DF-RHF Final Energy:  -323.97691107777626

   => Energetics <=

    Nuclear Repulsion Energy =            301.7637751141585909
    One-Electron Energy =               -1038.0936205142893414
    Two-Electron Energy =                 412.3529343223545425
    Total Energy =                       -323.9769110777762648
  Basis Set: (AUG-CC-PVTZ AUX)
    Blend: AUG-CC-PVTZ-RI
    Molecular point group: c1

    Geometry (in Angstrom), charge = 0, multiplicity = 1:

       Center              X                  Y                   Z               Mass
    ------------   -----------------  -----------------  -----------------  -----------------
         O            1.203752410796     1.351627424184     0.144181575999    15.994914619570
         N            0.134052410796    -0.667147575816     0.134304575999    14.003074004430
         C           -1.181256389204    -0.258634775816     0.521135375999    12.000000000000
         C           -1.876400589204     0.712497424184    -0.459389424001    12.000000000000
         C           -2.359152589204    -0.671776575816    -0.125111424001    12.000000000000
         C            1.250418410796     0.128072424184     0.026526575999    12.000000000000
         C            2.541880410796    -0.623480575816    -0.230846424001    12.000000000000
         H           -1.201295589204     0.175034424184     1.580103575999     1.007825032230
         H           -1.397168589204     0.864665424184    -1.419167424001     1.007825032230
         H           -2.430494589204     1.565672424184    -0.084038424001     1.007825032230
         H           -3.252638589204    -0.783854575816     0.479822575999     1.007825032230
         H           -2.215704589204    -1.446743575816    -0.871117424001     1.007825032230
         H            0.261236410796    -1.669829575816     0.201654575999     1.007825032230
         H            2.385284410796    -1.528031575816    -0.824440424001     1.007825032230
         H            3.229281410796     0.042422424184    -0.752745424001     1.007825032230
         H            2.997275410796    -0.907657575816     0.722870575999     1.007825032230

  Basis Set: AUG-CC-PVTZ
    Blend: AUG-CC-PVTZ
  Basis Set: (AUG-CC-PVTZ AUX)
    Blend: AUG-CC-PVTZ-JKFIT
	 Reference Energy          =    -323.9769110777762648 [Eh]
	 Singles Energy            =      -0.0000000000000000 [Eh]
	 Same-Spin Energy          =      -0.3344416730888332 [Eh]
	 Opposite-Spin Energy      =      -1.0903870345129323 [Eh]
	 Correlation Energy        =      -1.4248287076017654 [Eh]
	 Total Energy              =    -325.4017397853780267 [Eh]

	 ================> DF-SCS-MP2 Energies <==================
	-----------------------------------------------------------
	 SCS Same-Spin Scale       =       0.3333333333333333 [-]
	 SCS Opposite-Spin Scale   =       1.2000000000000000 [-]
	 SCS Same-Spin Energy      =      -0.1114805576962777 [Eh]
	 SCS Opposite-Spin Energy  =      -1.3084644414155187 [Eh]
	 SCS Correlation Energy    =      -1.4199449991117965 [Eh]
	 SCS Total Energy          =    -325.3968560768880707 [Eh]
	-----------------------------------------------------------

  Dipole Moment: [D]
     X:    -0.7329      Y:    -3.5761      Z:     0.0596     Total:     3.6510

*** Psi4 exiting successfully. Buy a developer a beer!
