                               Psi4 1.3.2 release

  ==> Input File <==

--------------------------------------------------------------------------
#psi4
#
memory 32 gb

molecule  {
0 1
  O        1.2124500     1.3700530     0.1515380
  N        0.1427500    -0.6487220     0.1416610
  C       -1.1170200    -0.1018270     0.5422150
  C       -1.8677030     0.7309230    -0.4520330
  C       -2.3504550    -0.6533510    -0.1177550
  C        1.2591160     0.1464980     0.0338830
  C        2.5505780    -0.6050550    -0.2234900
  H       -1.1925980     0.1934600     1.5874600
  H       -1.3884710     0.8830910    -1.4118110
  H       -2.4217970     1.5840980    -0.0766820
  H       -3.2439410    -0.7654290     0.4871790
  H       -2.2070070    -1.4283180    -0.8637610
  H        0.2699340    -1.6514040     0.2090110
  H        2.3939820    -1.5096060    -0.8170840
  H        3.2379790     0.0608480    -0.7453890
  H        3.0059730    -0.8892320     0.7302270
units angstrom
no_reorient  #important for SAPT in psi4, default
symmetry c1  #important for SAPT in psi4, default
}

set PROPERTIES_ORIGIN ["COM"]
properties('MP2/aug-cc-pvtz', properties = ['dipole'])
--------------------------------------------------------------------------

    Molecular point group: c1
  Charge       = 0
  Multiplicity = 1
  Basis Set: AUG-CC-PVTZ
    Blend: AUG-CC-PVTZ
  Basis Set: (AUG-CC-PVTZ AUX)
    Blend: AUG-CC-PVTZ-JKFIT

    Orbital Energies [Eh]
    ---------------------

    Doubly Occupied:

       1A    -20.516059     2A    -15.587268     3A    -11.350271
       4A    -11.268504     5A    -11.238213     6A    -11.233067
       7A    -11.226375     8A     -1.371111     9A     -1.240039
      10A     -1.124290    11A     -1.002213    12A     -0.842098
      13A     -0.831498    14A     -0.771765    15A     -0.702618
      16A     -0.673330    17A     -0.651628    18A     -0.608510
      19A     -0.593593    20A     -0.571623    21A     -0.546407
      22A     -0.520444    23A     -0.515661    24A     -0.448722
      25A     -0.431994    26A     -0.417054    27A     -0.385144

  @DF-RHF Final Energy:  -323.99342479287134

   => Energetics <=

    Nuclear Repulsion Energy =            301.9443632286474326
    One-Electron Energy =               -1038.5365797242097869
    Two-Electron Energy =                 412.5987917026909599
    Total Energy =                       -323.9934247928713376
  Basis Set: (AUG-CC-PVTZ AUX)
    Blend: AUG-CC-PVTZ-RI
    Molecular point group: c1

    Geometry (in Angstrom), charge = 0, multiplicity = 1:

       Center              X                  Y                   Z               Mass
    ------------   -----------------  -----------------  -----------------  -----------------
         O            1.197025083955     1.334865407569     0.142519306528    15.994914619570
         N            0.127325083955    -0.683909592431     0.132642306528    14.003074004430
         C           -1.132444916045    -0.137014592431     0.533196306528    12.000000000000
         C           -1.883127916045     0.695735407569    -0.461051693472    12.000000000000
         C           -2.365879916045    -0.688538592431    -0.126773693472    12.000000000000
         C            1.243691083955     0.111310407569     0.024864306528    12.000000000000
         C            2.535153083955    -0.640242592431    -0.232508693472    12.000000000000
         H           -1.208022916045     0.158272407569     1.578441306528     1.007825032230
         H           -1.403895916045     0.847903407569    -1.420829693472     1.007825032230
         H           -2.437221916045     1.548910407569    -0.085700693472     1.007825032230
         H           -3.259365916045    -0.800616592431     0.478160306528     1.007825032230
         H           -2.222431916045    -1.463505592431    -0.872779693472     1.007825032230
         H            0.254509083955    -1.686591592431     0.199992306528     1.007825032230
         H            2.378557083955    -1.544793592431    -0.826102693472     1.007825032230
         H            3.222554083955     0.025660407569    -0.754407693472     1.007825032230
         H            2.990548083955    -0.924419592431     0.721208306528     1.007825032230

  Basis Set: AUG-CC-PVTZ
    Blend: AUG-CC-PVTZ
  Basis Set: (AUG-CC-PVTZ AUX)
    Blend: AUG-CC-PVTZ-JKFIT
	 Reference Energy          =    -323.9934247928713376 [Eh]
	 Singles Energy            =      -0.0000000000000000 [Eh]
	 Same-Spin Energy          =      -0.3335783792050207 [Eh]
	 Opposite-Spin Energy      =      -1.0890090751817516 [Eh]
	 Correlation Energy        =      -1.4225874543867723 [Eh]
	 Total Energy              =    -325.4160122472580952 [Eh]

	 ================> DF-SCS-MP2 Energies <==================
	-----------------------------------------------------------
	 SCS Same-Spin Scale       =       0.3333333333333333 [-]
	 SCS Opposite-Spin Scale   =       1.2000000000000000 [-]
	 SCS Same-Spin Energy      =      -0.1111927930683402 [Eh]
	 SCS Opposite-Spin Energy  =      -1.3068108902181019 [Eh]
	 SCS Correlation Energy    =      -1.4180036832864422 [Eh]
	 SCS Total Energy          =    -325.4114284761577665 [Eh]
	-----------------------------------------------------------

  Dipole Moment: [D]
     X:    -0.7092      Y:    -3.4556      Z:     0.0684     Total:     3.5283

*** Psi4 exiting successfully. Buy a developer a beer!
