                               Psi4 1.3.2 release

  ==> Input File <==

--------------------------------------------------------------------------
#psi4
#
memory 32 gb

molecule  {
0 1
  O        1.2124500     1.3700530     0.1515380
  N        0.1427500    -0.6487220     0.1416610
  C       -1.1465916    -0.1947606     0.5636507
  C       -1.8677030     0.7309230    -0.4520330
  C       -2.3504550    -0.6533510    -0.1177550
  C        1.2591160     0.1464980     0.0338830
  C        2.5505780    -0.6050550    -0.2234900
  H       -1.1925980     0.1934600     1.5874600
  H       -1.3884710     0.8830910    -1.4118110
  H       -2.4217970     1.5840980    -0.0766820
  H       -3.2439410    -0.7654290     0.4871790
  H       -2.2070070    -1.4283180    -0.8637610
  H        0.2699340    -1.6514040     0.2090110
  H        2.3939820    -1.5096060    -0.8170840
  H        3.2379790     0.0608480    -0.7453890
  H        3.0059730    -0.8892320     0.7302270
units angstrom
no_reorient  #important for SAPT in psi4, default
symmetry c1  #important for SAPT in psi4, default
}

set PROPERTIES_ORIGIN ["COM"]
properties('MP2/aug-cc-pvtz', properties = ['dipole'])
--------------------------------------------------------------------------

    Molecular point group: c1
  Charge       = 0
  Multiplicity = 1
  Basis Set: AUG-CC-PVTZ
    Blend: AUG-CC-PVTZ
  Basis Set: (AUG-CC-PVTZ AUX)
    Blend: AUG-CC-PVTZ-JKFIT

    Orbital Energies [Eh]
    ---------------------

    Doubly Occupied:

       1A    -20.515942     2A    -15.587477     3A    -11.351699
       4A    -11.270103     5A    -11.238810     6A    -11.236190
       7A    -11.224817     8A     -1.370346     9A     -1.240436
      10A     -1.124695    11A     -1.002649    12A     -0.846241
      13A     -0.829467    14A     -0.771755    15A     -0.698777
      16A     -0.673557    17A     -0.652405    18A     -0.608778
      19A     -0.593333    20A     -0.571216    21A     -0.545537
      22A     -0.521522    23A     -0.514561    24A     -0.460236
      25A     -0.428097    26A     -0.419471    27A     -0.374204

  @DF-RHF Final Energy:  -323.98739129819438

   => Energetics <=

    Nuclear Repulsion Energy =            301.4947535656116884
    One-Electron Energy =               -1037.6196473596601209
    Two-Electron Energy =                 412.1375024958539939
    Total Energy =                       -323.9873912981943818
  Basis Set: (AUG-CC-PVTZ AUX)
    Blend: AUG-CC-PVTZ-RI
    Molecular point group: c1

    Geometry (in Angstrom), charge = 0, multiplicity = 1:

       Center              X                  Y                   Z               Mass
    ------------   -----------------  -----------------  -----------------  -----------------
         O            1.200607045006     1.346122307281     0.139922834152    15.994914619570
         N            0.130907045006    -0.672652692719     0.130045834152    14.003074004430
         C           -1.158434554994    -0.218691292719     0.552035534152    12.000000000000
         C           -1.879545954994     0.706992307281    -0.463648165848    12.000000000000
         C           -2.362297954994    -0.677281692719    -0.129370165848    12.000000000000
         C            1.247273045006     0.122567307281     0.022267834152    12.000000000000
         C            2.538735045006    -0.628985692719    -0.235105165848    12.000000000000
         H           -1.204440954994     0.169529307281     1.575844834152     1.007825032230
         H           -1.400313954994     0.859160307281    -1.423426165848     1.007825032230
         H           -2.433639954994     1.560167307281    -0.088297165848     1.007825032230
         H           -3.255783954994    -0.789359692719     0.475563834152     1.007825032230
         H           -2.218849954994    -1.452248692719    -0.875376165848     1.007825032230
         H            0.258091045006    -1.675334692719     0.197395834152     1.007825032230
         H            2.382139045006    -1.533536692719    -0.828699165848     1.007825032230
         H            3.226136045006     0.036917307281    -0.757004165848     1.007825032230
         H            2.994130045006    -0.913162692719     0.718611834152     1.007825032230

  Basis Set: AUG-CC-PVTZ
    Blend: AUG-CC-PVTZ
  Basis Set: (AUG-CC-PVTZ AUX)
    Blend: AUG-CC-PVTZ-JKFIT
	 Reference Energy          =    -323.9873912981943818 [Eh]
	 Singles Energy            =      -0.0000000000000000 [Eh]
	 Same-Spin Energy          =      -0.3339039271132729 [Eh]
	 Opposite-Spin Energy      =      -1.0897617104601505 [Eh]
	 Correlation Energy        =      -1.4236656375734233 [Eh]
	 Total Energy              =    -325.4110569357678173 [Eh]

	 ================> DF-SCS-MP2 Energies <==================
	-----------------------------------------------------------
	 SCS Same-Spin Scale       =       0.3333333333333333 [-]
	 SCS Opposite-Spin Scale   =       1.2000000000000000 [-]
	 SCS Same-Spin Energy      =      -0.1113013090377576 [Eh]
	 SCS Opposite-Spin Energy  =      -1.3077140525521804 [Eh]
	 SCS Correlation Energy    =      -1.4190153615899381 [Eh]
	 SCS Total Energy          =    -325.4064066597842952 [Eh]
	-----------------------------------------------------------

  Dipole Moment: [D]
     X:    -0.7302      Y:    -3.5238      Z:     0.0832     Total:     3.5997

*** Psi4 exiting successfully. Buy a developer a beer!
