                               Psi4 1.3.2 release

  ==> Input File <==

--------------------------------------------------------------------------
#psi4
#
memory 32 gb

molecule  {
0 1
  O        1.2124500     1.3700530     0.1515380
  N        0.1512144    -0.6457171     0.1649575
  C       -1.1170200    -0.1018270     0.5422150
  C       -1.8677030     0.7309230    -0.4520330
  C       -2.3504550    -0.6533510    -0.1177550
  C        1.2591160     0.1464980     0.0338830
  C        2.5505780    -0.6050550    -0.2234900
  H       -1.1925980     0.1934600     1.5874600
  H       -1.3884710     0.8830910    -1.4118110
  H       -2.4217970     1.5840980    -0.0766820
  H       -3.2439410    -0.7654290     0.4871790
  H       -2.2070070    -1.4283180    -0.8637610
  H        0.2699340    -1.6514040     0.2090110
  H        2.3939820    -1.5096060    -0.8170840
  H        3.2379790     0.0608480    -0.7453890
  H        3.0059730    -0.8892320     0.7302270
units angstrom
no_reorient  #important for SAPT in psi4, default
symmetry c1  #important for SAPT in psi4, default
}

set PROPERTIES_ORIGIN ["COM"]
properties('MP2/aug-cc-pvtz', properties = ['dipole'])
--------------------------------------------------------------------------

    Molecular point group: c1
  Charge       = 0
  Multiplicity = 1
  Basis Set: AUG-CC-PVTZ
    Blend: AUG-CC-PVTZ
  Basis Set: (AUG-CC-PVTZ AUX)
    Blend: AUG-CC-PVTZ-JKFIT

    Orbital Energies [Eh]
    ---------------------

    Doubly Occupied:

       1A    -20.514457     2A    -15.587440     3A    -11.349197
       4A    -11.268858     5A    -11.237830     6A    -11.233837
       7A    -11.226967     8A     -1.370745     9A     -1.240411
      10A     -1.125322    11A     -1.002018    12A     -0.843865
      13A     -0.832041    14A     -0.772540    15A     -0.701984
      16A     -0.673582    17A     -0.652416    18A     -0.608709
      19A     -0.593232    20A     -0.570962    21A     -0.546017
      22A     -0.520790    23A     -0.516075    24A     -0.449110
      25A     -0.431697    26A     -0.416809    27A     -0.384764

  @DF-RHF Final Energy:  -323.99360744506890

   => Energetics <=

    Nuclear Repulsion Energy =            301.9917614635591576
    One-Electron Energy =               -1038.6273858997290063
    Two-Electron Energy =                 412.6420169911008884
    Total Energy =                       -323.9936074450689034
  Basis Set: (AUG-CC-PVTZ AUX)
    Blend: AUG-CC-PVTZ-RI
    Molecular point group: c1

    Geometry (in Angstrom), charge = 0, multiplicity = 1:

       Center              X                  Y                   Z               Mass
    ------------   -----------------  -----------------  -----------------  -----------------
         O            1.195828662059     1.334440672425     0.139226404172    15.994914619570
         N            0.134593062059    -0.681329427575     0.152645904172    14.003074004430
         C           -1.133641337941    -0.137439327575     0.529903404172    12.000000000000
         C           -1.884324337941     0.695310672425    -0.464344595828    12.000000000000
         C           -2.367076337941    -0.688963327575    -0.130066595828    12.000000000000
         C            1.242494662059     0.110885672425     0.021571404172    12.000000000000
         C            2.533956662059    -0.640667327575    -0.235801595828    12.000000000000
         H           -1.209219337941     0.157847672425     1.575148404172     1.007825032230
         H           -1.405092337941     0.847478672425    -1.424122595828     1.007825032230
         H           -2.438418337941     1.548485672425    -0.088993595828     1.007825032230
         H           -3.260562337941    -0.801041327575     0.474867404172     1.007825032230
         H           -2.223628337941    -1.463930327575    -0.876072595828     1.007825032230
         H            0.253312662059    -1.687016327575     0.196699404172     1.007825032230
         H            2.377360662059    -1.545218327575    -0.829395595828     1.007825032230
         H            3.221357662059     0.025235672425    -0.757700595828     1.007825032230
         H            2.989351662059    -0.924844327575     0.717915404172     1.007825032230

  Basis Set: AUG-CC-PVTZ
    Blend: AUG-CC-PVTZ
  Basis Set: (AUG-CC-PVTZ AUX)
    Blend: AUG-CC-PVTZ-JKFIT
	 Reference Energy          =    -323.9936074450689034 [Eh]
	 Singles Energy            =      -0.0000000000000000 [Eh]
	 Same-Spin Energy          =      -0.3335292144053268 [Eh]
	 Opposite-Spin Energy      =      -1.0888413537007593 [Eh]
	 Correlation Energy        =      -1.4223705681060861 [Eh]
	 Total Energy              =    -325.4159780131749926 [Eh]

	 ================> DF-SCS-MP2 Energies <==================
	-----------------------------------------------------------
	 SCS Same-Spin Scale       =       0.3333333333333333 [-]
	 SCS Opposite-Spin Scale   =       1.2000000000000000 [-]
	 SCS Same-Spin Energy      =      -0.1111764048017756 [Eh]
	 SCS Opposite-Spin Energy  =      -1.3066096244409111 [Eh]
	 SCS Correlation Energy    =      -1.4177860292426867 [Eh]
	 SCS Total Energy          =    -325.4113934743115806 [Eh]
	-----------------------------------------------------------

  Dipole Moment: [D]
     X:    -0.7648      Y:    -3.4871      Z:     0.0233     Total:     3.5701

*** Psi4 exiting successfully. Buy a developer a beer!
