                               Psi4 1.3.2 release

  ==> Input File <==

--------------------------------------------------------------------------
#psi4
#
memory 32 gb

molecule  {
0 1
  O        1.2124500     1.3700530     0.1515380
  N        0.1427500    -0.6487220     0.1416610
  C       -1.0999224    -0.0563315     0.5307585
  C       -1.8677030     0.7309230    -0.4520330
  C       -2.3504550    -0.6533510    -0.1177550
  C        1.2591160     0.1464980     0.0338830
  C        2.5505780    -0.6050550    -0.2234900
  H       -1.1925980     0.1934600     1.5874600
  H       -1.3884710     0.8830910    -1.4118110
  H       -2.4217970     1.5840980    -0.0766820
  H       -3.2439410    -0.7654290     0.4871790
  H       -2.2070070    -1.4283180    -0.8637610
  H        0.2699340    -1.6514040     0.2090110
  H        2.3939820    -1.5096060    -0.8170840
  H        3.2379790     0.0608480    -0.7453890
  H        3.0059730    -0.8892320     0.7302270
units angstrom
no_reorient  #important for SAPT in psi4, default
symmetry c1  #important for SAPT in psi4, default
}

set PROPERTIES_ORIGIN ["COM"]
properties('MP2/aug-cc-pvtz', properties = ['dipole'])
--------------------------------------------------------------------------

    Molecular point group: c1
  Charge       = 0
  Multiplicity = 1
  Basis Set: AUG-CC-PVTZ
    Blend: AUG-CC-PVTZ
  Basis Set: (AUG-CC-PVTZ AUX)
    Blend: AUG-CC-PVTZ-JKFIT

    Orbital Energies [Eh]
    ---------------------

    Doubly Occupied:

       1A    -20.516321     2A    -15.587552     3A    -11.349754
       4A    -11.269092     5A    -11.238017     6A    -11.231617
       7A    -11.227391     8A     -1.371763     9A     -1.240152
      10A     -1.124107    11A     -1.002140    12A     -0.840142
      13A     -0.832696    14A     -0.771889    15A     -0.704282
      16A     -0.673231    17A     -0.651059    18A     -0.608493
      19A     -0.593503    20A     -0.571860    21A     -0.546559
      22A     -0.520013    23A     -0.516359    24A     -0.453548
      25A     -0.427502    26A     -0.413709    27A     -0.387585

  @DF-RHF Final Energy:  -323.99192503838560

   => Energetics <=

    Nuclear Repulsion Energy =            302.1417715366980588
    One-Electron Energy =               -1038.9267246210501980
    Two-Electron Energy =                 412.7930280459664800
    Total Energy =                       -323.9919250383856024
  Basis Set: (AUG-CC-PVTZ AUX)
    Blend: AUG-CC-PVTZ-RI
    Molecular point group: c1

    Geometry (in Angstrom), charge = 0, multiplicity = 1:

       Center              X                  Y                   Z               Mass
    ------------   -----------------  -----------------  -----------------  -----------------
         O            1.194954078759     1.329354609744     0.143907014219    15.994914619570
         N            0.125254078759    -0.689420390256     0.134030014219    14.003074004430
         C           -1.117418321241    -0.097029890256     0.523127514219    12.000000000000
         C           -1.885198921241     0.690224609744    -0.459663985781    12.000000000000
         C           -2.367950921241    -0.694049390256    -0.125385985781    12.000000000000
         C            1.241620078759     0.105799609744     0.026252014219    12.000000000000
         C            2.533082078759    -0.645753390256    -0.231120985781    12.000000000000
         H           -1.210093921241     0.152761609744     1.579829014219     1.007825032230
         H           -1.405966921241     0.842392609744    -1.419441985781     1.007825032230
         H           -2.439292921241     1.543399609744    -0.084312985781     1.007825032230
         H           -3.261436921241    -0.806127390256     0.479548014219     1.007825032230
         H           -2.224502921241    -1.469016390256    -0.871391985781     1.007825032230
         H            0.252438078759    -1.692102390256     0.201380014219     1.007825032230
         H            2.376486078759    -1.550304390256    -0.824714985781     1.007825032230
         H            3.220483078759     0.020149609744    -0.753019985781     1.007825032230
         H            2.988477078759    -0.929930390256     0.722596014219     1.007825032230

  Basis Set: AUG-CC-PVTZ
    Blend: AUG-CC-PVTZ
  Basis Set: (AUG-CC-PVTZ AUX)
    Blend: AUG-CC-PVTZ-JKFIT
	 Reference Energy          =    -323.9919250383856024 [Eh]
	 Singles Energy            =      -0.0000000000000000 [Eh]
	 Same-Spin Energy          =      -0.3336766370871138 [Eh]
	 Opposite-Spin Energy      =      -1.0891659538678886 [Eh]
	 Correlation Energy        =      -1.4228425909550024 [Eh]
	 Total Energy              =    -325.4147676293405880 [Eh]

	 ================> DF-SCS-MP2 Energies <==================
	-----------------------------------------------------------
	 SCS Same-Spin Scale       =       0.3333333333333333 [-]
	 SCS Opposite-Spin Scale   =       1.2000000000000000 [-]
	 SCS Same-Spin Energy      =      -0.1112255456957046 [Eh]
	 SCS Opposite-Spin Energy  =      -1.3069991446414664 [Eh]
	 SCS Correlation Energy    =      -1.4182246903371709 [Eh]
	 SCS Total Energy          =    -325.4101497287227858 [Eh]
	-----------------------------------------------------------

  Dipole Moment: [D]
     X:    -0.6880      Y:    -3.4196      Z:     0.0592     Total:     3.4886

*** Psi4 exiting successfully. Buy a developer a beer!
