                               Psi4 1.4a3.dev225

  ==> Input File <==

--------------------------------------------------------------------------
#psi4
#
memory 32 gb

molecule  {
0 1
  O        1.2124500     1.3700530     0.1515380
  N        0.1427500    -0.6487220     0.1416610
  C       -1.1346320    -0.0941812     0.5478149
  C       -1.8677030     0.7309230    -0.4520330
  C       -2.3504550    -0.6533510    -0.1177550
  C        1.2591160     0.1464980     0.0338830
  C        2.5505780    -0.6050550    -0.2234900
  H       -1.1925980     0.1934600     1.5874600
  H       -1.3884710     0.8830910    -1.4118110
  H       -2.4217970     1.5840980    -0.0766820
  H       -3.2439410    -0.7654290     0.4871790
  H       -2.2070070    -1.4283180    -0.8637610
  H        0.2699340    -1.6514040     0.2090110
  H        2.3939820    -1.5096060    -0.8170840
  H        3.2379790     0.0608480    -0.7453890
  H        3.0059730    -0.8892320     0.7302270
units angstrom
no_reorient  #important for SAPT in psi4, default
symmetry c1  #important for SAPT in psi4, default
}

set PROPERTIES_ORIGIN ["COM"]
properties('MP2/aug-cc-pvtz', properties = ['dipole'])
--------------------------------------------------------------------------

    Molecular point group: c1
  Charge       = 0
  Multiplicity = 1
  Basis Set: AUG-CC-PVTZ
    Blend: AUG-CC-PVTZ
  Basis Set: (AUG-CC-PVTZ AUX)
    Blend: AUG-CC-PVTZ-JKFIT

    Orbital Energies [Eh]
    ---------------------

    Doubly Occupied:

       1A    -20.515105     2A    -15.586539     3A    -11.349498
       4A    -11.268953     5A    -11.237667     6A    -11.232969
       7A    -11.226350     8A     -1.369853     9A     -1.236366
      10A     -1.127407    11A     -1.000972    12A     -0.840252
      13A     -0.832143    14A     -0.771258    15A     -0.701878
      16A     -0.673147    17A     -0.651520    18A     -0.607998
      19A     -0.594405    20A     -0.570851    21A     -0.543948
      22A     -0.520387    23A     -0.515462    24A     -0.448040
      25A     -0.434787    26A     -0.417152    27A     -0.386179

  @DF-RHF Final Energy:  -323.99324477279350

   => Energetics <=

    Nuclear Repulsion Energy =            301.7867451525509637
    One-Electron Energy =               -1038.2378064208567139
    Two-Electron Energy =                 412.4578164955121906
    Total Energy =                       -323.9932447727935028
  Basis Set: (AUG-CC-PVTZ AUX)
    Blend: AUG-CC-PVTZ-RI
    Molecular point group: c1

    Geometry (in Angstrom), charge = 0, multiplicity = 1:

       Center              X                  Y                   Z               Mass
    ------------   -----------------  -----------------  -----------------  -----------------
         O            1.199158397608     1.333939283930     0.141840999514    15.994914619570
         N            0.129458397608    -0.684835716070     0.131963999514    14.003074004430
         C           -1.147923602392    -0.130294916070     0.538117899514    12.000000000000
         C           -1.880994602392     0.694809283930    -0.461730000486    12.000000000000
         C           -2.363746602392    -0.689464716070    -0.127452000486    12.000000000000
         C            1.245824397608     0.110384283930     0.024185999514    12.000000000000
         C            2.537286397608    -0.641168716070    -0.233187000486    12.000000000000
         H           -1.205889602392     0.157346283930     1.577762999514     1.007825032230
         H           -1.401762602392     0.846977283930    -1.421508000486     1.007825032230
         H           -2.435088602392     1.547984283930    -0.086379000486     1.007825032230
         H           -3.257232602392    -0.801542716070     0.477481999514     1.007825032230
         H           -2.220298602392    -1.464431716070    -0.873458000486     1.007825032230
         H            0.256642397608    -1.687517716070     0.199313999514     1.007825032230
         H            2.380690397608    -1.545719716070    -0.826781000486     1.007825032230
         H            3.224687397608     0.024734283930    -0.755086000486     1.007825032230
         H            2.992681397608    -0.925345716070     0.720529999514     1.007825032230

  Basis Set: AUG-CC-PVTZ
    Blend: AUG-CC-PVTZ
  Basis Set: (AUG-CC-PVTZ AUX)
    Blend: AUG-CC-PVTZ-JKFIT
	 Reference Energy          =    -323.9932447727935028 [Eh]
	 Singles Energy            =      -0.0000000000000000 [Eh]
	 Same-Spin Energy          =      -0.3334652539710158 [Eh]
	 Opposite-Spin Energy      =      -1.0888487780747536 [Eh]
	 Correlation Energy        =      -1.4223140320457694 [Eh]
	 Total Energy              =    -325.4155588048392929 [Eh]

	 ================> DF-SCS-MP2 Energies <==================
	-----------------------------------------------------------
	 SCS Same-Spin Scale       =       0.3333333333333333 [-]
	 SCS Opposite-Spin Scale   =       1.2000000000000000 [-]
	 SCS Same-Spin Energy      =      -0.1111550846570053 [Eh]
	 SCS Opposite-Spin Energy  =      -1.3066185336897043 [Eh]
	 SCS Correlation Energy    =      -1.4177736183467096 [Eh]
	 SCS Total Energy          =    -325.4110183911402032 [Eh]
	-----------------------------------------------------------

  Dipole Moment: [D]
     X:    -0.7641      Y:    -3.4478      Z:     0.0832     Total:     3.5324

*** Psi4 exiting successfully. Buy a developer a beer!
