                               Psi4 1.3.2 release

  ==> Input File <==

--------------------------------------------------------------------------
#psi4
#
memory 32 gb

molecule  {
0 1
  O        1.2124500     1.3700530     0.1515380
  N        0.1876941    -0.6282275     0.2830205
  C       -1.1170200    -0.1018270     0.5422150
  C       -1.8677030     0.7309230    -0.4520330
  C       -2.3504550    -0.6533510    -0.1177550
  C        1.2591160     0.1464980     0.0338830
  C        2.5505780    -0.6050550    -0.2234900
  H       -1.1925980     0.1934600     1.5874600
  H       -1.3884710     0.8830910    -1.4118110
  H       -2.4217970     1.5840980    -0.0766820
  H       -3.2439410    -0.7654290     0.4871790
  H       -2.2070070    -1.4283180    -0.8637610
  H        0.2699340    -1.6514040     0.2090110
  H        2.3939820    -1.5096060    -0.8170840
  H        3.2379790     0.0608480    -0.7453890
  H        3.0059730    -0.8892320     0.7302270
units angstrom
no_reorient  #important for SAPT in psi4, default
symmetry c1  #important for SAPT in psi4, default
}

set PROPERTIES_ORIGIN ["COM"]
properties('MP2/aug-cc-pvtz', properties = ['dipole'])
--------------------------------------------------------------------------

    Molecular point group: c1
  Charge       = 0
  Multiplicity = 1
  Basis Set: AUG-CC-PVTZ
    Blend: AUG-CC-PVTZ
  Basis Set: (AUG-CC-PVTZ AUX)
    Blend: AUG-CC-PVTZ-JKFIT

    Orbital Energies [Eh]
    ---------------------

    Doubly Occupied:

       1A    -20.509071     2A    -15.589018     3A    -11.345138
       4A    -11.269771     5A    -11.237140     6A    -11.236878
       7A    -11.229492     8A     -1.370162     9A     -1.240531
      10A     -1.128809    11A     -1.001735    12A     -0.851146
      13A     -0.833803    14A     -0.771196    15A     -0.697200
      16A     -0.675566    17A     -0.655320    18A     -0.610060
      19A     -0.591818    20A     -0.568063    21A     -0.543497
      22A     -0.522053    23A     -0.517589    24A     -0.451345
      25A     -0.431195    26A     -0.415214    27A     -0.383603

  @DF-RHF Final Energy:  -323.99045427189208

   => Energetics <=

    Nuclear Repulsion Energy =            302.0410859592385009
    One-Electron Energy =               -1038.7102564114934466
    Two-Electron Energy =                 412.6787161803629260
    Total Energy =                       -323.9904542718920766
  Basis Set: (AUG-CC-PVTZ AUX)
    Blend: AUG-CC-PVTZ-RI
    Molecular point group: c1

    Geometry (in Angstrom), charge = 0, multiplicity = 1:

       Center              X                  Y                   Z               Mass
    ------------   -----------------  -----------------  -----------------  -----------------
         O            1.190672347159     1.331968560948     0.122538492648    15.994914619570
         N            0.165916447159    -0.666311939052     0.254020992648    14.003074004430
         C           -1.138797652841    -0.139911439052     0.513215492648    12.000000000000
         C           -1.889480652841     0.692838560948    -0.481032507352    12.000000000000
         C           -2.372232652841    -0.691435439052    -0.146754507352    12.000000000000
         C            1.237338347159     0.108413560948     0.004883492648    12.000000000000
         C            2.528800347159    -0.643139439052    -0.252489507352    12.000000000000
         H           -1.214375652841     0.155375560948     1.558460492648     1.007825032230
         H           -1.410248652841     0.845006560948    -1.440810507352     1.007825032230
         H           -2.443574652841     1.546013560948    -0.105681507352     1.007825032230
         H           -3.265718652841    -0.803513439052     0.458179492648     1.007825032230
         H           -2.228784652841    -1.466402439052    -0.892760507352     1.007825032230
         H            0.248156347159    -1.689488439052     0.180011492648     1.007825032230
         H            2.372204347159    -1.547690439052    -0.846083507352     1.007825032230
         H            3.216201347159     0.022763560948    -0.774388507352     1.007825032230
         H            2.984195347159    -0.927316439052     0.701227492648     1.007825032230

  Basis Set: AUG-CC-PVTZ
    Blend: AUG-CC-PVTZ
  Basis Set: (AUG-CC-PVTZ AUX)
    Blend: AUG-CC-PVTZ-JKFIT
	 Reference Energy          =    -323.9904542718920766 [Eh]
	 Singles Energy            =      -0.0000000000000000 [Eh]
	 Same-Spin Energy          =      -0.3334706992607089 [Eh]
	 Opposite-Spin Energy      =      -1.0886920282989867 [Eh]
	 Correlation Energy        =      -1.4221627275596957 [Eh]
	 Total Energy              =    -325.4126169994517568 [Eh]

	 ================> DF-SCS-MP2 Energies <==================
	-----------------------------------------------------------
	 SCS Same-Spin Scale       =       0.3333333333333333 [-]
	 SCS Opposite-Spin Scale   =       1.2000000000000000 [-]
	 SCS Same-Spin Energy      =      -0.1111568997535696 [Eh]
	 SCS Opposite-Spin Energy  =      -1.3064304339587840 [Eh]
	 SCS Correlation Energy    =      -1.4175873337123537 [Eh]
	 SCS Total Energy          =    -325.4080416056044101 [Eh]
	-----------------------------------------------------------

  Dipole Moment: [D]
     X:    -0.9627      Y:    -3.5826      Z:    -0.2018     Total:     3.7152

*** Psi4 exiting successfully. Buy a developer a beer!
