                               Psi4 1.3.2 release

  ==> Input File <==

--------------------------------------------------------------------------
#psi4
#
memory 32 gb

molecule  {
0 1
  S       -0.6655100    -0.1222880    -0.7786460
  S        0.9490790    -1.0924950     0.0459080
  C       -1.9398422    -0.0204116     0.7896047
  C        1.9109420     0.2797190     0.7637780
  C       -3.1055240     0.6383450     0.1798380
  C        2.5270550     1.2077640    -0.2710270
  H       -2.0036980    -1.0433510     0.9976740
  H       -1.3479990     0.5419670     1.4415090
  H        1.2751640     0.8312490     1.4628040
  H        2.6882710    -0.2183730     1.3542260
  H       -2.9201200     1.6535150    -0.1804290
  H       -3.5810360     0.0698190    -0.6233660
  H       -3.8066230     0.6970240     1.0170440
  H        3.1944500     0.6554300    -0.9366350
  H        1.7503090     1.6808700    -0.8763170
  H        3.1026000     1.9962990     0.2242510
units angstrom
no_reorient  #important for SAPT in psi4, default
symmetry c1  #important for SAPT in psi4, default
}

set PROPERTIES_ORIGIN ["COM"]
properties('MP2/aug-cc-pvtz', properties = ['dipole'])
--------------------------------------------------------------------------

    Molecular point group: c1
  Charge       = 0
  Multiplicity = 1
  Basis Set: AUG-CC-PVTZ
    Blend: AUG-CC-PVTZ
  Basis Set: (AUG-CC-PVTZ AUX)
    Blend: AUG-CC-PVTZ-JKFIT

    Orbital Energies [Eh]
    ---------------------

    Doubly Occupied:

       1A    -91.963418     2A    -91.959047     3A    -11.270351
       4A    -11.258771     5A    -11.232919     6A    -11.218682
       7A     -8.962005     8A     -8.956810     9A     -6.643088
      10A     -6.641904    11A     -6.641066    12A     -6.637692
      13A     -6.636372    14A     -6.635659    15A     -1.088674
      16A     -1.061549    17A     -0.978017    18A     -0.885746
      19A     -0.842256    20A     -0.765468    21A     -0.658865
      22A     -0.627038    23A     -0.593898    24A     -0.586280
      25A     -0.572313    26A     -0.536198    27A     -0.529169
      28A     -0.510232    29A     -0.477031    30A     -0.438891
      31A     -0.429822    32A     -0.346595    33A     -0.330926

  @DF-RHF Final Energy:  -952.43257326111689

   => Energetics <=

    Nuclear Repulsion Energy =            372.4539439701241577
    One-Electron Energy =               -2051.9395275063420740
    Two-Electron Energy =                 727.0530102751010872
    Total Energy =                       -952.4325732611168860
  Basis Set: (AUG-CC-PVTZ AUX)
    Blend: AUG-CC-PVTZ-RI
    Molecular point group: c1

    Geometry (in Angstrom), charge = 0, multiplicity = 1:

       Center              X                  Y                   Z               Mass
    ------------   -----------------  -----------------  -----------------  -----------------
         S           -0.666462897731    -0.067740895513    -0.762503888989    31.972071174400
         S            0.948126102269    -1.037947895513     0.062050111011    31.972071174400
         C           -1.940795097731     0.034135504487     0.805746811011    12.000000000000
         C            1.909989102269     0.334266104487     0.779920111011    12.000000000000
         C           -3.106476897731     0.692892104487     0.195980111011    12.000000000000
         C            2.526102102269     1.262311104487    -0.254884888989    12.000000000000
         H           -2.004650897731    -0.988803895513     1.013816111011     1.007825032230
         H           -1.348951897731     0.596514104487     1.457651111011     1.007825032230
         H            1.274211102269     0.885796104487     1.478946111011     1.007825032230
         H            2.687318102269    -0.163825895513     1.370368111011     1.007825032230
         H           -2.921072897731     1.708062104487    -0.164286888989     1.007825032230
         H           -3.581988897731     0.124366104487    -0.607223888989     1.007825032230
         H           -3.807575897731     0.751571104487     1.033186111011     1.007825032230
         H            3.193497102269     0.709977104487    -0.920492888989     1.007825032230
         H            1.749356102269     1.735417104487    -0.860174888989     1.007825032230
         H            3.101647102269     2.050846104487     0.240393111011     1.007825032230

  Basis Set: AUG-CC-PVTZ
    Blend: AUG-CC-PVTZ
  Basis Set: (AUG-CC-PVTZ AUX)
    Blend: AUG-CC-PVTZ-JKFIT
	 Reference Energy          =    -952.4325732611168860 [Eh]
	 Singles Energy            =      -0.0000000000000000 [Eh]
	 Same-Spin Energy          =      -0.2820381507907927 [Eh]
	 Opposite-Spin Energy      =      -0.9580061467327586 [Eh]
	 Correlation Energy        =      -1.2400442975235513 [Eh]
	 Total Energy              =    -953.6726175586404679 [Eh]

	 ================> DF-SCS-MP2 Energies <==================
	-----------------------------------------------------------
	 SCS Same-Spin Scale       =       0.3333333333333333 [-]
	 SCS Opposite-Spin Scale   =       1.2000000000000000 [-]
	 SCS Same-Spin Energy      =      -0.0940127169302642 [Eh]
	 SCS Opposite-Spin Energy  =      -1.1496073760793104 [Eh]
	 SCS Correlation Energy    =      -1.2436200930095747 [Eh]
	 SCS Total Energy          =    -953.6761933541264398 [Eh]
	-----------------------------------------------------------

  Dipole Moment: [D]
     X:    -0.5964      Y:     1.4003      Z:     1.7935     Total:     2.3522

*** Psi4 exiting successfully. Buy a developer a beer!
