                               Psi4 1.3.2 release

  ==> Input File <==

--------------------------------------------------------------------------
#psi4
#
memory 32 gb

molecule  {
0 1
  S       -0.6655100    -0.1222880    -0.7786460
  S        0.9138445    -1.0953923     0.1083692
  C       -1.8138760    -0.0304820     0.6345850
  C        1.9109420     0.2797190     0.7637780
  C       -3.1055240     0.6383450     0.1798380
  C        2.5270550     1.2077640    -0.2710270
  H       -2.0036980    -1.0433510     0.9976740
  H       -1.3479990     0.5419670     1.4415090
  H        1.2751640     0.8312490     1.4628040
  H        2.6882710    -0.2183730     1.3542260
  H       -2.9201200     1.6535150    -0.1804290
  H       -3.5810360     0.0698190    -0.6233660
  H       -3.8066230     0.6970240     1.0170440
  H        3.1944500     0.6554300    -0.9366350
  H        1.7503090     1.6808700    -0.8763170
  H        3.1026000     1.9962990     0.2242510
units angstrom
no_reorient  #important for SAPT in psi4, default
symmetry c1  #important for SAPT in psi4, default
}

set PROPERTIES_ORIGIN ["COM"]
properties('MP2/aug-cc-pvtz', properties = ['dipole'])
--------------------------------------------------------------------------

    Molecular point group: c1
  Charge       = 0
  Multiplicity = 1
  Basis Set: AUG-CC-PVTZ
    Blend: AUG-CC-PVTZ
  Basis Set: (AUG-CC-PVTZ AUX)
    Blend: AUG-CC-PVTZ-JKFIT

    Orbital Energies [Eh]
    ---------------------

    Doubly Occupied:

       1A    -91.967603     2A    -91.967067     3A    -11.261629
       4A    -11.260614     5A    -11.229033     6A    -11.222162
       7A     -8.966576     8A     -8.965925     9A     -6.647660
      10A     -6.646984    11A     -6.646417    12A     -6.645794
      13A     -6.645548    14A     -6.644951    15A     -1.097357
      16A     -1.056375    17A     -0.980132    18A     -0.895666
      19A     -0.831813    20A     -0.767501    21A     -0.637535
      22A     -0.627062    23A     -0.597608    24A     -0.586211
      25A     -0.542770    26A     -0.539571    27A     -0.517400
      28A     -0.510083    29A     -0.487668    30A     -0.467110
      31A     -0.431996    32A     -0.349368    33A     -0.348098

  @DF-RHF Final Energy:  -952.45310069634547

   => Energetics <=

    Nuclear Repulsion Energy =            375.8436208375147771
    One-Electron Energy =               -2058.6148677259338911
    Two-Electron Energy =                 730.3181461920737547
    Total Energy =                       -952.4531006963454729
  Basis Set: (AUG-CC-PVTZ AUX)
    Blend: AUG-CC-PVTZ-RI
    Molecular point group: c1

    Geometry (in Angstrom), charge = 0, multiplicity = 1:

       Center              X                  Y                   Z               Mass
    ------------   -----------------  -----------------  -----------------  -----------------
         S           -0.669618666518    -0.065991401202    -0.763624810560    31.972071174400
         S            0.909735833482    -1.039095701202     0.123390389440    31.972071174400
         C           -1.817984666518     0.025814598798     0.649606189440    12.000000000000
         C            1.906833333482     0.336015598798     0.778799189440    12.000000000000
         C           -3.109632666518     0.694641598798     0.194859189440    12.000000000000
         C            2.522946333482     1.264060598798    -0.256005810560    12.000000000000
         H           -2.007806666518    -0.987054401202     1.012695189440     1.007825032230
         H           -1.352107666518     0.598263598798     1.456530189440     1.007825032230
         H            1.271055333482     0.887545598798     1.477825189440     1.007825032230
         H            2.684162333482    -0.162076401202     1.369247189440     1.007825032230
         H           -2.924228666518     1.709811598798    -0.165407810560     1.007825032230
         H           -3.585144666518     0.126115598798    -0.608344810560     1.007825032230
         H           -3.810731666518     0.753320598798     1.032065189440     1.007825032230
         H            3.190341333482     0.711726598798    -0.921613810560     1.007825032230
         H            1.746200333482     1.737166598798    -0.861295810560     1.007825032230
         H            3.098491333482     2.052595598798     0.239272189440     1.007825032230

  Basis Set: AUG-CC-PVTZ
    Blend: AUG-CC-PVTZ
  Basis Set: (AUG-CC-PVTZ AUX)
    Blend: AUG-CC-PVTZ-JKFIT
	 Reference Energy          =    -952.4531006963454729 [Eh]
	 Singles Energy            =      -0.0000000000000000 [Eh]
	 Same-Spin Energy          =      -0.2816157342531627 [Eh]
	 Opposite-Spin Energy      =      -0.9566871060587878 [Eh]
	 Correlation Energy        =      -1.2383028403119505 [Eh]
	 Total Energy              =    -953.6914035366573899 [Eh]

	 ================> DF-SCS-MP2 Energies <==================
	-----------------------------------------------------------
	 SCS Same-Spin Scale       =       0.3333333333333333 [-]
	 SCS Opposite-Spin Scale   =       1.2000000000000000 [-]
	 SCS Same-Spin Energy      =      -0.0938719114177209 [Eh]
	 SCS Opposite-Spin Energy  =      -1.1480245272705454 [Eh]
	 SCS Correlation Energy    =      -1.2418964386882663 [Eh]
	 SCS Total Energy          =    -953.6949971350337592 [Eh]
	-----------------------------------------------------------

  Dipole Moment: [D]
     X:    -0.2777      Y:     1.3633      Z:     1.6129     Total:     2.1301

*** Psi4 exiting successfully. Buy a developer a beer!
