                               Psi4 1.3.2 release

  ==> Input File <==

--------------------------------------------------------------------------
#psi4
#
memory 32 gb

molecule  {
0 1
  S       -0.8013837    -0.0366465    -0.8817316
  S        0.9490790    -1.0924950     0.0459080
  C       -1.8138760    -0.0304820     0.6345850
  C        1.9109420     0.2797190     0.7637780
  C       -3.1055240     0.6383450     0.1798380
  C        2.5270550     1.2077640    -0.2710270
  H       -2.0036980    -1.0433510     0.9976740
  H       -1.3479990     0.5419670     1.4415090
  H        1.2751640     0.8312490     1.4628040
  H        2.6882710    -0.2183730     1.3542260
  H       -2.9201200     1.6535150    -0.1804290
  H       -3.5810360     0.0698190    -0.6233660
  H       -3.8066230     0.6970240     1.0170440
  H        3.1944500     0.6554300    -0.9366350
  H        1.7503090     1.6808700    -0.8763170
  H        3.1026000     1.9962990     0.2242510
units angstrom
no_reorient  #important for SAPT in psi4, default
symmetry c1  #important for SAPT in psi4, default
}

set PROPERTIES_ORIGIN ["COM"]
properties('MP2/aug-cc-pvtz', properties = ['dipole'])
--------------------------------------------------------------------------

    Molecular point group: c1
  Charge       = 0
  Multiplicity = 1
  Basis Set: AUG-CC-PVTZ
    Blend: AUG-CC-PVTZ
  Basis Set: (AUG-CC-PVTZ AUX)
    Blend: AUG-CC-PVTZ-JKFIT

    Orbital Energies [Eh]
    ---------------------

    Doubly Occupied:

       1A    -91.976332     2A    -91.970901     3A    -11.264048
       4A    -11.262819     5A    -11.228141     6A    -11.221467
       7A     -8.973177     8A     -8.967866     9A     -6.653919
      10A     -6.652780    11A     -6.651821    12A     -6.648612
      13A     -6.647657    14A     -6.646648    15A     -1.085792
      16A     -1.059257    17A     -0.958699    18A     -0.896020
      19A     -0.824982    20A     -0.778988    21A     -0.637069
      22A     -0.627660    23A     -0.595293    24A     -0.585319
      25A     -0.539885    26A     -0.537623    27A     -0.515804
      28A     -0.509393    29A     -0.476949    30A     -0.464122
      31A     -0.412862    32A     -0.357393    33A     -0.350210

  @DF-RHF Final Energy:  -952.43973614632978

   => Energetics <=

    Nuclear Repulsion Energy =            369.3551811869726862
    One-Electron Energy =               -2045.6308178745678106
    Two-Electron Energy =                 723.8359005412653460
    Total Energy =                       -952.4397361463297784
  Basis Set: (AUG-CC-PVTZ AUX)
    Blend: AUG-CC-PVTZ-RI
    Molecular point group: c1

    Geometry (in Angstrom), charge = 0, multiplicity = 1:

       Center              X                  Y                   Z               Mass
    ------------   -----------------  -----------------  -----------------  -----------------
         S           -0.779123078104    -0.003548666226    -0.823334158411    31.972071174400
         S            0.971339621896    -1.059397166226     0.104305441589    31.972071174400
         C           -1.791615378104     0.002615833774     0.692982441589    12.000000000000
         C            1.933202621896     0.312816833774     0.822175441589    12.000000000000
         C           -3.083263378104     0.671442833774     0.238235441589    12.000000000000
         C            2.549315621896     1.240861833774    -0.212629558411    12.000000000000
         H           -1.981437378104    -1.010253166226     1.056071441589     1.007825032230
         H           -1.325738378104     0.575064833774     1.499906441589     1.007825032230
         H            1.297424621896     0.864346833774     1.521201441589     1.007825032230
         H            2.710531621896    -0.185275166226     1.412623441589     1.007825032230
         H           -2.897859378104     1.686612833774    -0.122031558411     1.007825032230
         H           -3.558775378104     0.102916833774    -0.564968558411     1.007825032230
         H           -3.784362378104     0.730121833774     1.075441441589     1.007825032230
         H            3.216710621896     0.688527833774    -0.878237558411     1.007825032230
         H            1.772569621896     1.713967833774    -0.817919558411     1.007825032230
         H            3.124860621896     2.029396833774     0.282648441589     1.007825032230

  Basis Set: AUG-CC-PVTZ
    Blend: AUG-CC-PVTZ
  Basis Set: (AUG-CC-PVTZ AUX)
    Blend: AUG-CC-PVTZ-JKFIT
	 Reference Energy          =    -952.4397361463297784 [Eh]
	 Singles Energy            =      -0.0000000000000000 [Eh]
	 Same-Spin Energy          =      -0.2807179369235946 [Eh]
	 Opposite-Spin Energy      =      -0.9588643649061911 [Eh]
	 Correlation Energy        =      -1.2395823018297856 [Eh]
	 Total Energy              =    -953.6793184481596199 [Eh]

	 ================> DF-SCS-MP2 Energies <==================
	-----------------------------------------------------------
	 SCS Same-Spin Scale       =       0.3333333333333333 [-]
	 SCS Opposite-Spin Scale   =       1.2000000000000000 [-]
	 SCS Same-Spin Energy      =      -0.0935726456411982 [Eh]
	 SCS Opposite-Spin Energy  =      -1.1506372378874292 [Eh]
	 SCS Correlation Energy    =      -1.2442098835286275 [Eh]
	 SCS Total Energy          =    -953.6839460298583617 [Eh]
	-----------------------------------------------------------

  Dipole Moment: [D]
     X:    -0.2807      Y:     1.3470      Z:     1.7130     Total:     2.1971

*** Psi4 exiting successfully. Buy a developer a beer!
