                               Psi4 1.3.2 release

  ==> Input File <==

--------------------------------------------------------------------------
#psi4
#
memory 32 gb

molecule  {
0 1
  S       -0.6680914    -0.0588789    -0.7834298
  S        0.9490790    -1.0924950     0.0459080
  C       -1.8138760    -0.0304820     0.6345850
  C        1.9109420     0.2797190     0.7637780
  C       -3.1055240     0.6383450     0.1798380
  C        2.5270550     1.2077640    -0.2710270
  H       -2.0036980    -1.0433510     0.9976740
  H       -1.3479990     0.5419670     1.4415090
  H        1.2751640     0.8312490     1.4628040
  H        2.6882710    -0.2183730     1.3542260
  H       -2.9201200     1.6535150    -0.1804290
  H       -3.5810360     0.0698190    -0.6233660
  H       -3.8066230     0.6970240     1.0170440
  H        3.1944500     0.6554300    -0.9366350
  H        1.7503090     1.6808700    -0.8763170
  H        3.1026000     1.9962990     0.2242510
units angstrom
no_reorient  #important for SAPT in psi4, default
symmetry c1  #important for SAPT in psi4, default
}

set PROPERTIES_ORIGIN ["COM"]
properties('MP2/aug-cc-pvtz', properties = ['dipole'])
--------------------------------------------------------------------------

    Molecular point group: c1
  Charge       = 0
  Multiplicity = 1
  Basis Set: AUG-CC-PVTZ
    Blend: AUG-CC-PVTZ
  Basis Set: (AUG-CC-PVTZ AUX)
    Blend: AUG-CC-PVTZ-JKFIT

    Orbital Energies [Eh]
    ---------------------

    Doubly Occupied:

       1A    -91.968798     2A    -91.968518     3A    -11.262065
       4A    -11.261281     5A    -11.229251     6A    -11.221127
       7A     -8.967178     8A     -8.966979     9A     -6.648223
      10A     -6.647920    11A     -6.646979    12A     -6.646851
      13A     -6.646099    14A     -6.645971    15A     -1.094289
      16A     -1.057033    17A     -0.975384    18A     -0.894792
      19A     -0.830818    20A     -0.770319    21A     -0.637056
      22A     -0.627898    23A     -0.596534    24A     -0.585968
      25A     -0.542022    26A     -0.538179    27A     -0.516773
      28A     -0.509771    29A     -0.486143    30A     -0.465735
      31A     -0.429130    32A     -0.351199    33A     -0.348718

  @DF-RHF Final Energy:  -952.45248714212948

   => Energetics <=

    Nuclear Repulsion Energy =            374.8060329709622920
    One-Electron Energy =               -2056.5470417899414315
    Two-Electron Energy =                 729.2885216768495411
    Total Energy =                       -952.4524871421294847
  Basis Set: (AUG-CC-PVTZ AUX)
    Blend: AUG-CC-PVTZ-RI
    Molecular point group: c1

    Geometry (in Angstrom), charge = 0, multiplicity = 1:

       Center              X                  Y                   Z               Mass
    ------------   -----------------  -----------------  -----------------  -----------------
         S           -0.680755768586    -0.019955775805    -0.750789205801    31.972071174400
         S            0.936414631414    -1.053571875805     0.078548594199    31.972071174400
         C           -1.826540368586     0.008441124195     0.667225594199    12.000000000000
         C            1.898277631414     0.318642124195     0.796418594199    12.000000000000
         C           -3.118188368586     0.677268124195     0.212478594199    12.000000000000
         C            2.514390631414     1.246687124195    -0.238386405801    12.000000000000
         H           -2.016362368586    -1.004427875805     1.030314594199     1.007825032230
         H           -1.360663368586     0.580890124195     1.474149594199     1.007825032230
         H            1.262499631414     0.870172124195     1.495444594199     1.007825032230
         H            2.675606631414    -0.179449875805     1.386866594199     1.007825032230
         H           -2.932784368586     1.692438124195    -0.147788405801     1.007825032230
         H           -3.593700368586     0.108742124195    -0.590725405801     1.007825032230
         H           -3.819287368586     0.735947124195     1.049684594199     1.007825032230
         H            3.181785631414     0.694353124195    -0.903994405801     1.007825032230
         H            1.737644631414     1.719793124195    -0.843676405801     1.007825032230
         H            3.089935631414     2.035222124195     0.256891594199     1.007825032230

  Basis Set: AUG-CC-PVTZ
    Blend: AUG-CC-PVTZ
  Basis Set: (AUG-CC-PVTZ AUX)
    Blend: AUG-CC-PVTZ-JKFIT
	 Reference Energy          =    -952.4524871421294847 [Eh]
	 Singles Energy            =      -0.0000000000000000 [Eh]
	 Same-Spin Energy          =      -0.2814135905620530 [Eh]
	 Opposite-Spin Energy      =      -0.9570083453101003 [Eh]
	 Correlation Energy        =      -1.2384219358721533 [Eh]
	 Total Energy              =    -953.6909090780015958 [Eh]

	 ================> DF-SCS-MP2 Energies <==================
	-----------------------------------------------------------
	 SCS Same-Spin Scale       =       0.3333333333333333 [-]
	 SCS Opposite-Spin Scale   =       1.2000000000000000 [-]
	 SCS Same-Spin Energy      =      -0.0938045301873510 [Eh]
	 SCS Opposite-Spin Energy  =      -1.1484100143721203 [Eh]
	 SCS Correlation Energy    =      -1.2422145445594712 [Eh]
	 SCS Total Energy          =    -953.6947016866889726 [Eh]
	-----------------------------------------------------------

  Dipole Moment: [D]
     X:    -0.2975      Y:     1.2936      Z:     1.6781     Total:     2.1396

*** Psi4 exiting successfully. Buy a developer a beer!
