                               Psi4 1.3.2 release

  ==> Input File <==

--------------------------------------------------------------------------
#psi4
#
memory 32 gb

molecule  {
0 1
  S       -0.6655100    -0.1222880    -0.7786460
  S        0.9823464    -1.0884156    -0.0175578
  C       -1.8138760    -0.0304820     0.6345850
  C        1.9109420     0.2797190     0.7637780
  C       -3.1055240     0.6383450     0.1798380
  C        2.5270550     1.2077640    -0.2710270
  H       -2.0036980    -1.0433510     0.9976740
  H       -1.3479990     0.5419670     1.4415090
  H        1.2751640     0.8312490     1.4628040
  H        2.6882710    -0.2183730     1.3542260
  H       -2.9201200     1.6535150    -0.1804290
  H       -3.5810360     0.0698190    -0.6233660
  H       -3.8066230     0.6970240     1.0170440
  H        3.1944500     0.6554300    -0.9366350
  H        1.7503090     1.6808700    -0.8763170
  H        3.1026000     1.9962990     0.2242510
units angstrom
no_reorient  #important for SAPT in psi4, default
symmetry c1  #important for SAPT in psi4, default
}

set PROPERTIES_ORIGIN ["COM"]
properties('MP2/aug-cc-pvtz', properties = ['dipole'])
--------------------------------------------------------------------------

    Molecular point group: c1
  Charge       = 0
  Multiplicity = 1
  Basis Set: AUG-CC-PVTZ
    Blend: AUG-CC-PVTZ
  Basis Set: (AUG-CC-PVTZ AUX)
    Blend: AUG-CC-PVTZ-JKFIT

    Orbital Energies [Eh]
    ---------------------

    Doubly Occupied:

       1A    -91.968620     2A    -91.966899     3A    -11.262468
       4A    -11.261425     5A    -11.230298     6A    -11.220654
       7A     -8.967244     8A     -8.965805     9A     -6.648319
      10A     -6.647099    11A     -6.646839    12A     -6.646244
      13A     -6.645687    14A     -6.644817    15A     -1.096265
      16A     -1.057084    17A     -0.979520    18A     -0.893408
      19A     -0.833620    20A     -0.768758    21A     -0.637706
      22A     -0.627870    23A     -0.598980    24A     -0.584787
      25A     -0.542845    26A     -0.537223    27A     -0.517399
      28A     -0.509857    29A     -0.491780    30A     -0.463066
      31A     -0.432502    32A     -0.355824    33A     -0.341840

  @DF-RHF Final Energy:  -952.45320491488133

   => Energetics <=

    Nuclear Repulsion Energy =            375.2731920821594827
    One-Electron Energy =               -2057.4672867936442344
    Two-Electron Energy =                 729.7408897966033692
    Total Energy =                       -952.4532049148813257
  Basis Set: (AUG-CC-PVTZ AUX)
    Blend: AUG-CC-PVTZ-RI
    Molecular point group: c1

    Geometry (in Angstrom), charge = 0, multiplicity = 1:

       Center              X                  Y                   Z               Mass
    ------------   -----------------  -----------------  -----------------  -----------------
         S           -0.687567401783    -0.067819422634    -0.730629661730    31.972071174400
         S            0.960288998217    -1.033947022634     0.030458538270    31.972071174400
         C           -1.835933401783     0.023986577366     0.682601338270    12.000000000000
         C            1.888884598217     0.334187577366     0.811794338270    12.000000000000
         C           -3.127581401783     0.692813577366     0.227854338270    12.000000000000
         C            2.504997598217     1.262232577366    -0.223010661730    12.000000000000
         H           -2.025755401783    -0.988882422634     1.045690338270     1.007825032230
         H           -1.370056401783     0.596435577366     1.489525338270     1.007825032230
         H            1.253106598217     0.885717577366     1.510820338270     1.007825032230
         H            2.666213598217    -0.163904422634     1.402242338270     1.007825032230
         H           -2.942177401783     1.707983577366    -0.132412661730     1.007825032230
         H           -3.603093401783     0.124287577366    -0.575349661730     1.007825032230
         H           -3.828680401783     0.751492577366     1.065060338270     1.007825032230
         H            3.172392598217     0.709898577366    -0.888618661730     1.007825032230
         H            1.728251598217     1.735338577366    -0.828300661730     1.007825032230
         H            3.080542598217     2.050767577366     0.272267338270     1.007825032230

  Basis Set: AUG-CC-PVTZ
    Blend: AUG-CC-PVTZ
  Basis Set: (AUG-CC-PVTZ AUX)
    Blend: AUG-CC-PVTZ-JKFIT
	 Reference Energy          =    -952.4532049148813257 [Eh]
	 Singles Energy            =      -0.0000000000000000 [Eh]
	 Same-Spin Energy          =      -0.2814771225495104 [Eh]
	 Opposite-Spin Energy      =      -0.9565170731817929 [Eh]
	 Correlation Energy        =      -1.2379941957313032 [Eh]
	 Total Energy              =    -953.6911991106126152 [Eh]

	 ================> DF-SCS-MP2 Energies <==================
	-----------------------------------------------------------
	 SCS Same-Spin Scale       =       0.3333333333333333 [-]
	 SCS Opposite-Spin Scale   =       1.2000000000000000 [-]
	 SCS Same-Spin Energy      =      -0.0938257075165035 [Eh]
	 SCS Opposite-Spin Energy  =      -1.1478204878181515 [Eh]
	 SCS Correlation Energy    =      -1.2416461953346549 [Eh]
	 SCS Total Energy          =    -953.6948511102159500 [Eh]
	-----------------------------------------------------------

  Dipole Moment: [D]
     X:    -0.3147      Y:     1.3160      Z:     1.7311     Total:     2.1972

*** Psi4 exiting successfully. Buy a developer a beer!
