                               Psi4 1.3.2 release

  ==> Input File <==

--------------------------------------------------------------------------
#psi4
#
memory 32 gb

molecule  {
0 1
  S       -0.6655100    -0.1222880    -0.7786460
  S        0.8766857    -1.0971041     0.1697498
  C       -1.8138760    -0.0304820     0.6345850
  C        1.9109420     0.2797190     0.7637780
  C       -3.1055240     0.6383450     0.1798380
  C        2.5270550     1.2077640    -0.2710270
  H       -2.0036980    -1.0433510     0.9976740
  H       -1.3479990     0.5419670     1.4415090
  H        1.2751640     0.8312490     1.4628040
  H        2.6882710    -0.2183730     1.3542260
  H       -2.9201200     1.6535150    -0.1804290
  H       -3.5810360     0.0698190    -0.6233660
  H       -3.8066230     0.6970240     1.0170440
  H        3.1944500     0.6554300    -0.9366350
  H        1.7503090     1.6808700    -0.8763170
  H        3.1026000     1.9962990     0.2242510
units angstrom
no_reorient  #important for SAPT in psi4, default
symmetry c1  #important for SAPT in psi4, default
}

set PROPERTIES_ORIGIN ["COM"]
properties('MP2/aug-cc-pvtz', properties = ['dipole'])
--------------------------------------------------------------------------

    Molecular point group: c1
  Charge       = 0
  Multiplicity = 1
  Basis Set: AUG-CC-PVTZ
    Blend: AUG-CC-PVTZ
  Basis Set: (AUG-CC-PVTZ AUX)
    Blend: AUG-CC-PVTZ-JKFIT

    Orbital Energies [Eh]
    ---------------------

    Doubly Occupied:

       1A    -91.967842     2A    -91.966419     3A    -11.261530
       4A    -11.260287     5A    -11.228340     6A    -11.223034
       7A     -8.966842     8A     -8.965359     9A     -6.647894
      10A     -6.646718    11A     -6.646404    12A     -6.645809
      13A     -6.645217    14A     -6.644367    15A     -1.097635
      16A     -1.055731    17A     -0.980454    18A     -0.896369
      19A     -0.830793    20A     -0.767155    21A     -0.637413
      22A     -0.626569    23A     -0.596775    24A     -0.586826
      25A     -0.542739    26A     -0.540635    27A     -0.517438
      28A     -0.510127    29A     -0.485001    30A     -0.468691
      31A     -0.431971    32A     -0.351791    33A     -0.345239

  @DF-RHF Final Energy:  -952.45157617365010

   => Energetics <=

    Nuclear Repulsion Energy =            376.0669314917894894
    One-Electron Energy =               -2059.0661872722503176
    Two-Electron Energy =                 730.5476796068106751
    Total Energy =                       -952.4515761736500963
  Basis Set: (AUG-CC-PVTZ AUX)
    Blend: AUG-CC-PVTZ-RI
    Molecular point group: c1

    Geometry (in Angstrom), charge = 0, multiplicity = 1:

       Center              X                  Y                   Z               Mass
    ------------   -----------------  -----------------  -----------------  -----------------
         S           -0.659882389657    -0.065542878679    -0.779707636580    31.972071174400
         S            0.882313310343    -1.040358978679     0.168688163420    31.972071174400
         C           -1.808248389657     0.026263121321     0.633523363420    12.000000000000
         C            1.916569610343     0.336464121321     0.762716363420    12.000000000000
         C           -3.099896389657     0.695090121321     0.178776363420    12.000000000000
         C            2.532682610343     1.264509121321    -0.272088636580    12.000000000000
         H           -1.998070389657    -0.986605878679     0.996612363420     1.007825032230
         H           -1.342371389657     0.598712121321     1.440447363420     1.007825032230
         H            1.280791610343     0.887994121321     1.461742363420     1.007825032230
         H            2.693898610343    -0.161627878679     1.353164363420     1.007825032230
         H           -2.914492389657     1.710260121321    -0.181490636580     1.007825032230
         H           -3.575408389657     0.126564121321    -0.624427636580     1.007825032230
         H           -3.800995389657     0.753769121321     1.015982363420     1.007825032230
         H            3.200077610343     0.712175121321    -0.937696636580     1.007825032230
         H            1.755936610343     1.737615121321    -0.877378636580     1.007825032230
         H            3.108227610343     2.053044121321     0.223189363420     1.007825032230

  Basis Set: AUG-CC-PVTZ
    Blend: AUG-CC-PVTZ
  Basis Set: (AUG-CC-PVTZ AUX)
    Blend: AUG-CC-PVTZ-JKFIT
	 Reference Energy          =    -952.4515761736500963 [Eh]
	 Singles Energy            =      -0.0000000000000000 [Eh]
	 Same-Spin Energy          =      -0.2817208395295222 [Eh]
	 Opposite-Spin Energy      =      -0.9569210173302505 [Eh]
	 Correlation Energy        =      -1.2386418568597728 [Eh]
	 Total Energy              =    -953.6902180305098682 [Eh]

	 ================> DF-SCS-MP2 Energies <==================
	-----------------------------------------------------------
	 SCS Same-Spin Scale       =       0.3333333333333333 [-]
	 SCS Opposite-Spin Scale   =       1.2000000000000000 [-]
	 SCS Same-Spin Energy      =      -0.0939069465098407 [Eh]
	 SCS Opposite-Spin Energy  =      -1.1483052207963005 [Eh]
	 SCS Correlation Energy    =      -1.2422121673061413 [Eh]
	 SCS Total Energy          =    -953.6937883409561891 [Eh]
	-----------------------------------------------------------

  Dipole Moment: [D]
     X:    -0.2556      Y:     1.3855      Z:     1.5518     Total:     2.0960

*** Psi4 exiting successfully. Buy a developer a beer!
