                               Psi4 1.3.2 release

  ==> Input File <==

--------------------------------------------------------------------------
#psi4
#
memory 32 gb

molecule  {
0 1
  S       -0.6655100    -0.1222880    -0.7786460
  S        0.9490790    -1.0924950     0.0459080
  C       -1.6879098    -0.0405524     0.4795653
  C        1.9109420     0.2797190     0.7637780
  C       -3.1055240     0.6383450     0.1798380
  C        2.5270550     1.2077640    -0.2710270
  H       -2.0036980    -1.0433510     0.9976740
  H       -1.3479990     0.5419670     1.4415090
  H        1.2751640     0.8312490     1.4628040
  H        2.6882710    -0.2183730     1.3542260
  H       -2.9201200     1.6535150    -0.1804290
  H       -3.5810360     0.0698190    -0.6233660
  H       -3.8066230     0.6970240     1.0170440
  H        3.1944500     0.6554300    -0.9366350
  H        1.7503090     1.6808700    -0.8763170
  H        3.1026000     1.9962990     0.2242510
units angstrom
no_reorient  #important for SAPT in psi4, default
symmetry c1  #important for SAPT in psi4, default
}

set PROPERTIES_ORIGIN ["COM"]
properties('MP2/aug-cc-pvtz', properties = ['dipole'])
--------------------------------------------------------------------------

    Molecular point group: c1
  Charge       = 0
  Multiplicity = 1
  Basis Set: AUG-CC-PVTZ
    Blend: AUG-CC-PVTZ
  Basis Set: (AUG-CC-PVTZ AUX)
    Blend: AUG-CC-PVTZ-JKFIT

    Orbital Energies [Eh]
    ---------------------

    Doubly Occupied:

       1A    -91.969689     2A    -91.967273     3A    -11.264826
       4A    -11.263867     5A    -11.235229     6A    -11.222892
       7A     -8.970263     8A     -8.968715     9A     -6.651711
      10A     -6.650381    11A     -6.649735    12A     -6.649152
      13A     -6.648526    14A     -6.647673    15A     -1.118727
      16A     -1.060641    17A     -0.976108    18A     -0.908125
      19A     -0.827548    20A     -0.761385    21A     -0.638544
      22A     -0.614988    23A     -0.600610    24A     -0.586982
      25A     -0.546351    26A     -0.530383    27A     -0.521045
      28A     -0.511657    29A     -0.500497    30A     -0.463482
      31A     -0.421748    32A     -0.356985    33A     -0.341484

  @DF-RHF Final Energy:  -952.41549340026529

   => Energetics <=

    Nuclear Repulsion Energy =            379.1428282226220858
    One-Electron Energy =               -2065.0222035736651378
    Two-Electron Energy =                 733.4638819507778180
    Total Energy =                       -952.4154934002652908
  Basis Set: (AUG-CC-PVTZ AUX)
    Blend: AUG-CC-PVTZ-RI
    Molecular point group: c1

    Geometry (in Angstrom), charge = 0, multiplicity = 1:

       Center              X                  Y                   Z               Mass
    ------------   -----------------  -----------------  -----------------  -----------------
         S           -0.691238586306    -0.065760196768    -0.732013806648    31.972071174400
         S            0.923350413694    -1.035967196768     0.092540193352    31.972071174400
         C           -1.713638386306     0.015975403232     0.526197493352    12.000000000000
         C            1.885213413694     0.336246803232     0.810410193352    12.000000000000
         C           -3.131252586306     0.694872803232     0.226470193352    12.000000000000
         C            2.501326413694     1.264291803232    -0.224394806648    12.000000000000
         H           -2.029426586306    -0.986823196768     1.044306193352     1.007825032230
         H           -1.373727586306     0.598494803232     1.488141193352     1.007825032230
         H            1.249435413694     0.887776803232     1.509436193352     1.007825032230
         H            2.662542413694    -0.161845196768     1.400858193352     1.007825032230
         H           -2.945848586306     1.710042803232    -0.133796806648     1.007825032230
         H           -3.606764586306     0.126346803232    -0.576733806648     1.007825032230
         H           -3.832351586306     0.753551803232     1.063676193352     1.007825032230
         H            3.168721413694     0.711957803232    -0.890002806648     1.007825032230
         H            1.724580413694     1.737397803232    -0.829684806648     1.007825032230
         H            3.076871413694     2.052826803232     0.270883193352     1.007825032230

  Basis Set: AUG-CC-PVTZ
    Blend: AUG-CC-PVTZ
  Basis Set: (AUG-CC-PVTZ AUX)
    Blend: AUG-CC-PVTZ-JKFIT
	 Reference Energy          =    -952.4154934002652908 [Eh]
	 Singles Energy            =      -0.0000000000000000 [Eh]
	 Same-Spin Energy          =      -0.2838290183854321 [Eh]
	 Opposite-Spin Energy      =      -0.9593505748426916 [Eh]
	 Correlation Energy        =      -1.2431795932281238 [Eh]
	 Total Energy              =    -953.6586729934933828 [Eh]

	 ================> DF-SCS-MP2 Energies <==================
	-----------------------------------------------------------
	 SCS Same-Spin Scale       =       0.3333333333333333 [-]
	 SCS Opposite-Spin Scale   =       1.2000000000000000 [-]
	 SCS Same-Spin Energy      =      -0.0946096727951440 [Eh]
	 SCS Opposite-Spin Energy  =      -1.1512206898112298 [Eh]
	 SCS Correlation Energy    =      -1.2458303626063738 [Eh]
	 SCS Total Energy          =    -953.6613237628716888 [Eh]
	-----------------------------------------------------------

  Dipole Moment: [D]
     X:    -0.1207      Y:     1.3277      Z:     1.5435     Total:     2.0396

*** Psi4 exiting successfully. Buy a developer a beer!
