                               Psi4 1.3.2 release

  ==> Input File <==

--------------------------------------------------------------------------
#psi4
#
memory 32 gb

molecule  {
0 1
  S       -0.7547837    -0.0652476    -0.8491635
  S        0.9490790    -1.0924950     0.0459080
  C       -1.8138760    -0.0304820     0.6345850
  C        1.9109420     0.2797190     0.7637780
  C       -3.1055240     0.6383450     0.1798380
  C        2.5270550     1.2077640    -0.2710270
  H       -2.0036980    -1.0433510     0.9976740
  H       -1.3479990     0.5419670     1.4415090
  H        1.2751640     0.8312490     1.4628040
  H        2.6882710    -0.2183730     1.3542260
  H       -2.9201200     1.6535150    -0.1804290
  H       -3.5810360     0.0698190    -0.6233660
  H       -3.8066230     0.6970240     1.0170440
  H        3.1944500     0.6554300    -0.9366350
  H        1.7503090     1.6808700    -0.8763170
  H        3.1026000     1.9962990     0.2242510
units angstrom
no_reorient  #important for SAPT in psi4, default
symmetry c1  #important for SAPT in psi4, default
}

set PROPERTIES_ORIGIN ["COM"]
properties('MP2/aug-cc-pvtz', properties = ['dipole'])
--------------------------------------------------------------------------

    Molecular point group: c1
  Charge       = 0
  Multiplicity = 1
  Basis Set: AUG-CC-PVTZ
    Blend: AUG-CC-PVTZ
  Basis Set: (AUG-CC-PVTZ AUX)
    Blend: AUG-CC-PVTZ-JKFIT

    Orbital Energies [Eh]
    ---------------------

    Doubly Occupied:

       1A    -91.973555     2A    -91.969990     3A    -11.263488
       4A    -11.262288     5A    -11.228587     6A    -11.221437
       7A     -8.970940     8A     -8.967415     9A     -6.651768
      10A     -6.650645    11A     -6.649711    12A     -6.648253
      13A     -6.647236    14A     -6.646282    15A     -1.088315
      16A     -1.058470    17A     -0.965330    18A     -0.895637
      19A     -0.827298    20A     -0.775617    21A     -0.637200
      22A     -0.627591    23A     -0.596133    24A     -0.585375
      25A     -0.540596    26A     -0.537921    27A     -0.516225
      28A     -0.509474    29A     -0.481078    30A     -0.464051
      31A     -0.419924    32A     -0.355752    33A     -0.349172

  @DF-RHF Final Energy:  -952.44675494081832

   => Energetics <=

    Nuclear Repulsion Energy =            371.3130015319729296
    One-Electron Energy =               -2049.5540044388699243
    Two-Electron Energy =                 725.7942479660786148
    Total Energy =                       -952.4467549408183231
  Basis Set: (AUG-CC-PVTZ AUX)
    Blend: AUG-CC-PVTZ-RI
    Molecular point group: c1

    Geometry (in Angstrom), charge = 0, multiplicity = 1:

       Center              X                  Y                   Z               Mass
    ------------   -----------------  -----------------  -----------------  -----------------
         S           -0.744733119918    -0.024655761357    -0.799299488943    31.972071174400
         S            0.959129580082    -1.051903161357     0.095772011057    31.972071174400
         C           -1.803825419918     0.010109838643     0.684449011057    12.000000000000
         C            1.920992580082     0.320310838643     0.813642011057    12.000000000000
         C           -3.095473419918     0.678936838643     0.229702011057    12.000000000000
         C            2.537105580082     1.248355838643    -0.221162988943    12.000000000000
         H           -1.993647419918    -1.002759161357     1.047538011057     1.007825032230
         H           -1.337948419918     0.582558838643     1.491373011057     1.007825032230
         H            1.285214580082     0.871840838643     1.512668011057     1.007825032230
         H            2.698321580082    -0.177781161357     1.404090011057     1.007825032230
         H           -2.910069419918     1.694106838643    -0.130564988943     1.007825032230
         H           -3.570985419918     0.110410838643    -0.573501988943     1.007825032230
         H           -3.796572419918     0.737615838643     1.066908011057     1.007825032230
         H            3.204500580082     0.696021838643    -0.886770988943     1.007825032230
         H            1.760359580082     1.721461838643    -0.826452988943     1.007825032230
         H            3.112650580082     2.036890838643     0.274115011057     1.007825032230

  Basis Set: AUG-CC-PVTZ
    Blend: AUG-CC-PVTZ
  Basis Set: (AUG-CC-PVTZ AUX)
    Blend: AUG-CC-PVTZ-JKFIT
	 Reference Energy          =    -952.4467549408183231 [Eh]
	 Singles Energy            =      -0.0000000000000000 [Eh]
	 Same-Spin Energy          =      -0.2808359085835557 [Eh]
	 Opposite-Spin Energy      =      -0.9578304237529940 [Eh]
	 Correlation Energy        =      -1.2386663323365497 [Eh]
	 Total Energy              =    -953.6854212731548159 [Eh]

	 ================> DF-SCS-MP2 Energies <==================
	-----------------------------------------------------------
	 SCS Same-Spin Scale       =       0.3333333333333333 [-]
	 SCS Opposite-Spin Scale   =       1.2000000000000000 [-]
	 SCS Same-Spin Energy      =      -0.0936119695278519 [Eh]
	 SCS Opposite-Spin Energy  =      -1.1493965085035927 [Eh]
	 SCS Correlation Energy    =      -1.2430084780314445 [Eh]
	 SCS Total Energy          =    -953.6897634188497932 [Eh]
	-----------------------------------------------------------

  Dipole Moment: [D]
     X:    -0.2879      Y:     1.3474      Z:     1.6997     Total:     2.1880

*** Psi4 exiting successfully. Buy a developer a beer!
