                               Psi4 1.3.2 release

  ==> Input File <==

--------------------------------------------------------------------------
#psi4
#
memory 32 gb

molecule  {
0 1
  S       -0.6643277    -0.1855853    -0.7721404
  S        0.9490790    -1.0924950     0.0459080
  C       -1.8138760    -0.0304820     0.6345850
  C        1.9109420     0.2797190     0.7637780
  C       -3.1055240     0.6383450     0.1798380
  C        2.5270550     1.2077640    -0.2710270
  H       -2.0036980    -1.0433510     0.9976740
  H       -1.3479990     0.5419670     1.4415090
  H        1.2751640     0.8312490     1.4628040
  H        2.6882710    -0.2183730     1.3542260
  H       -2.9201200     1.6535150    -0.1804290
  H       -3.5810360     0.0698190    -0.6233660
  H       -3.8066230     0.6970240     1.0170440
  H        3.1944500     0.6554300    -0.9366350
  H        1.7503090     1.6808700    -0.8763170
  H        3.1026000     1.9962990     0.2242510
units angstrom
no_reorient  #important for SAPT in psi4, default
symmetry c1  #important for SAPT in psi4, default
}

set PROPERTIES_ORIGIN ["COM"]
properties('MP2/aug-cc-pvtz', properties = ['dipole'])
--------------------------------------------------------------------------

    Molecular point group: c1
  Charge       = 0
  Multiplicity = 1
  Basis Set: AUG-CC-PVTZ
    Blend: AUG-CC-PVTZ
  Basis Set: (AUG-CC-PVTZ AUX)
    Blend: AUG-CC-PVTZ-JKFIT

    Orbital Energies [Eh]
    ---------------------

    Doubly Occupied:

       1A    -91.966782     2A    -91.966119     3A    -11.261818
       4A    -11.260686     5A    -11.230133     6A    -11.221626
       7A     -8.966028     8A     -8.965484     9A     -6.647245
      10A     -6.646579    11A     -6.645855    12A     -6.645392
      13A     -6.645055    14A     -6.644545    15A     -1.099780
      16A     -1.056658    17A     -0.984149    18A     -0.894608
      19A     -0.834696    20A     -0.765803    21A     -0.638239
      22A     -0.627089    23A     -0.600219    24A     -0.585056
      25A     -0.543733    26A     -0.538628    27A     -0.518177
      28A     -0.510230    29A     -0.493447    30A     -0.464532
      31A     -0.435116    32A     -0.354153    33A     -0.341139

  @DF-RHF Final Energy:  -952.45345631425675

   => Energetics <=

    Nuclear Repulsion Energy =            376.3175920272976214
    One-Electron Energy =               -2059.5444949948714566
    Two-Electron Energy =                 730.7734466533170234
    Total Energy =                       -952.4534563142567549
  Basis Set: (AUG-CC-PVTZ AUX)
    Blend: AUG-CC-PVTZ-RI
    Molecular point group: c1

    Geometry (in Angstrom), charge = 0, multiplicity = 1:

       Center              X                  Y                   Z               Mass
    ------------   -----------------  -----------------  -----------------  -----------------
         S           -0.677978225976    -0.113462810096    -0.742457832540    31.972071174400
         S            0.935428474024    -1.020372510096     0.075590567460    31.972071174400
         C           -1.827526525976     0.041640489904     0.664267567460    12.000000000000
         C            1.897291474024     0.351841489904     0.793460567460    12.000000000000
         C           -3.119174525976     0.710467489904     0.209520567460    12.000000000000
         C            2.513404474024     1.279886489904    -0.241344432540    12.000000000000
         H           -2.017348525976    -0.971228510096     1.027356567460     1.007825032230
         H           -1.361649525976     0.614089489904     1.471191567460     1.007825032230
         H            1.261513474024     0.903371489904     1.492486567460     1.007825032230
         H            2.674620474024    -0.146250510096     1.383908567460     1.007825032230
         H           -2.933770525976     1.725637489904    -0.150746432540     1.007825032230
         H           -3.594686525976     0.141941489904    -0.593683432540     1.007825032230
         H           -3.820273525976     0.769146489904     1.046726567460     1.007825032230
         H            3.180799474024     0.727552489904    -0.906952432540     1.007825032230
         H            1.736658474024     1.752992489904    -0.846634432540     1.007825032230
         H            3.088949474024     2.068421489904     0.253933567460     1.007825032230

  Basis Set: AUG-CC-PVTZ
    Blend: AUG-CC-PVTZ
  Basis Set: (AUG-CC-PVTZ AUX)
    Blend: AUG-CC-PVTZ-JKFIT
	 Reference Energy          =    -952.4534563142567549 [Eh]
	 Singles Energy            =      -0.0000000000000000 [Eh]
	 Same-Spin Energy          =      -0.2817001102298018 [Eh]
	 Opposite-Spin Energy      =      -0.9562105265449763 [Eh]
	 Correlation Energy        =      -1.2379106367747781 [Eh]
	 Total Energy              =    -953.6913669510315685 [Eh]

	 ================> DF-SCS-MP2 Energies <==================
	-----------------------------------------------------------
	 SCS Same-Spin Scale       =       0.3333333333333333 [-]
	 SCS Opposite-Spin Scale   =       1.2000000000000000 [-]
	 SCS Same-Spin Energy      =      -0.0939000367432673 [Eh]
	 SCS Opposite-Spin Energy  =      -1.1474526318539715 [Eh]
	 SCS Correlation Energy    =      -1.2413526685972387 [Eh]
	 SCS Total Energy          =    -953.6948089828539423 [Eh]
	-----------------------------------------------------------

  Dipole Moment: [D]
     X:    -0.2977      Y:     1.3877      Z:     1.6662     Total:     2.1887

*** Psi4 exiting successfully. Buy a developer a beer!
