                               Psi4 1.4a3.dev225

  ==> Input File <==

--------------------------------------------------------------------------
#psi4
#
memory 32 gb

molecule  {
0 1
  S       -0.6655530    -0.1220590    -0.7786460
  S        0.9489660    -1.0924840     0.0458050
  C       -1.8012786    -0.0313471     0.6190688
  C        1.9111290     0.2795150     0.7637510
  C       -3.1057290     0.6381390     0.1798960
  C        2.5273480     1.2076490    -0.2709040
  H       -2.0034770    -1.0432030     0.9978170
  H       -1.3481120     0.5422780     1.4414500
  H        1.2754980     0.8309680     1.4629580
  H        2.6884280    -0.2188630     1.3540000
  H       -2.9206320     1.6533640    -0.1803630
  H       -3.5811280     0.0695040    -0.6233010
  H       -3.8067870     0.6965710     1.0171520
  H        3.1946220     0.6553210    -0.9366420
  H        1.7506840     1.6810450    -0.8760630
  H        3.1030560     1.9959310     0.2245760
units angstrom
no_reorient  #important for SAPT in psi4, default
symmetry c1  #important for SAPT in psi4, default
}

set PROPERTIES_ORIGIN ["COM"]
properties('MP2/aug-cc-pvtz', properties = ['dipole'])
--------------------------------------------------------------------------

    Molecular point group: c1
  Charge       = 0
  Multiplicity = 1
  Basis Set: AUG-CC-PVTZ
    Blend: AUG-CC-PVTZ
  Basis Set: (AUG-CC-PVTZ AUX)
    Blend: AUG-CC-PVTZ-JKFIT

    Orbital Energies [Eh]
    ---------------------

    Doubly Occupied:

       1A    -91.968108     2A    -91.967680     3A    -11.262186
       4A    -11.260860     5A    -11.229831     6A    -11.221569
       7A     -8.966972     8A     -8.966778     9A     -6.648128
      10A     -6.647784    11A     -6.646786    12A     -6.646708
      13A     -6.645899    14A     -6.645862    15A     -1.098263
      16A     -1.056819    17A     -0.979693    18A     -0.895844
      19A     -0.831960    20A     -0.767900    21A     -0.636909
      22A     -0.626380    23A     -0.598749    24A     -0.585699
      25A     -0.541461    26A     -0.537618    27A     -0.516503
      28A     -0.509550    29A     -0.492665    30A     -0.466183
      31A     -0.431897    32A     -0.353009    33A     -0.345692

  @DF-RHF Final Energy:  -952.45311581200031

   => Energetics <=

    Nuclear Repulsion Energy =            375.9050539544115850
    One-Electron Energy =               -2058.7204497504358187
    Two-Electron Energy =                 730.3622799840238713
    Total Energy =                       -952.4531158120003056
  Basis Set: (AUG-CC-PVTZ AUX)
    Blend: AUG-CC-PVTZ-RI
    Molecular point group: c1

    Geometry (in Angstrom), charge = 0, multiplicity = 1:

       Center              X                  Y                   Z               Mass
    ------------   -----------------  -----------------  -----------------  -----------------
         S           -0.680125660846    -0.066435062845    -0.745727898628    31.972071174400
         S            0.934393339154    -1.036860062845     0.078723101372    31.972071174400
         C           -1.815851260846     0.024276837155     0.651986901372    12.000000000000
         C            1.896556339154     0.335138937155     0.796669101372    12.000000000000
         C           -3.120301660846     0.693762937155     0.212814101372    12.000000000000
         C            2.512775339154     1.263272937155    -0.237985898628    12.000000000000
         H           -2.018049660846    -0.987579062845     1.030735101372     1.007825032230
         H           -1.362684660846     0.597901937155     1.474368101372     1.007825032230
         H            1.260925339154     0.886591937155     1.495876101372     1.007825032230
         H            2.673855339154    -0.163239062845     1.386918101372     1.007825032230
         H           -2.935204660846     1.708987937155    -0.147444898628     1.007825032230
         H           -3.595700660846     0.125127937155    -0.590382898628     1.007825032230
         H           -3.821359660846     0.752194937155     1.050070101372     1.007825032230
         H            3.180049339154     0.710944937155    -0.903723898628     1.007825032230
         H            1.736111339154     1.736668937155    -0.843144898628     1.007825032230
         H            3.088483339154     2.051554937155     0.257494101372     1.007825032230

  Basis Set: AUG-CC-PVTZ
    Blend: AUG-CC-PVTZ
  Basis Set: (AUG-CC-PVTZ AUX)
    Blend: AUG-CC-PVTZ-JKFIT
	 Reference Energy          =    -952.4531158120003056 [Eh]
	 Singles Energy            =      -0.0000000000000000 [Eh]
	 Same-Spin Energy          =      -0.2816143223900793 [Eh]
	 Opposite-Spin Energy      =      -0.9566108462170364 [Eh]
	 Correlation Energy        =      -1.2382251686071157 [Eh]
	 Total Energy              =    -953.6913409806073787 [Eh]

	 ================> DF-SCS-MP2 Energies <==================
	-----------------------------------------------------------
	 SCS Same-Spin Scale       =       0.3333333333333333 [-]
	 SCS Opposite-Spin Scale   =       1.2000000000000000 [-]
	 SCS Same-Spin Energy      =      -0.0938714407966931 [Eh]
	 SCS Opposite-Spin Energy  =      -1.1479330154604437 [Eh]
	 SCS Correlation Energy    =      -1.2418044562571369 [Eh]
	 SCS Total Energy          =    -953.6949202682574196 [Eh]
	-----------------------------------------------------------

  Dipole Moment: [D]
     X:    -0.2721      Y:     1.3357      Z:     1.6606     Total:     2.1484

*** Psi4 exiting successfully. Buy a developer a beer!
