                               Psi4 1.4a3.dev225

  ==> Input File <==

--------------------------------------------------------------------------
#psi4
#
memory 32 gb

molecule  {
0 1
  S       -0.6655530    -0.1220590    -0.7786460
  S        0.9489660    -1.0924840     0.0458050
  C       -1.8264714    -0.0293349     0.6500732
  C        1.9111290     0.2795150     0.7637510
  C       -3.1057290     0.6381390     0.1798960
  C        2.5273480     1.2076490    -0.2709040
  H       -2.0034770    -1.0432030     0.9978170
  H       -1.3481120     0.5422780     1.4414500
  H        1.2754980     0.8309680     1.4629580
  H        2.6884280    -0.2188630     1.3540000
  H       -2.9206320     1.6533640    -0.1803630
  H       -3.5811280     0.0695040    -0.6233010
  H       -3.8067870     0.6965710     1.0171520
  H        3.1946220     0.6553210    -0.9366420
  H        1.7506840     1.6810450    -0.8760630
  H        3.1030560     1.9959310     0.2245760
units angstrom
no_reorient  #important for SAPT in psi4, default
symmetry c1  #important for SAPT in psi4, default
}

set PROPERTIES_ORIGIN ["COM"]
properties('MP2/aug-cc-pvtz', properties = ['dipole'])
--------------------------------------------------------------------------

    Molecular point group: c1
  Charge       = 0
  Multiplicity = 1
  Basis Set: AUG-CC-PVTZ
    Blend: AUG-CC-PVTZ
  Basis Set: (AUG-CC-PVTZ AUX)
    Blend: AUG-CC-PVTZ-JKFIT

    Orbital Energies [Eh]
    ---------------------

    Doubly Occupied:

       1A    -91.967468     2A    -91.966816     3A    -11.261683
       4A    -11.261262     5A    -11.229627     6A    -11.221154
       7A     -8.966224     8A     -8.965515     9A     -6.647328
      10A     -6.646540    11A     -6.646057    12A     -6.645360
      13A     -6.645227    14A     -6.644517    15A     -1.095660
      16A     -1.056932    17A     -0.979890    18A     -0.893547
      19A     -0.833599    20A     -0.768096    21A     -0.638778
      22A     -0.628283    23A     -0.597921    24A     -0.585351
      25A     -0.545103    26A     -0.538552    27A     -0.518348
      28A     -0.510360    29A     -0.487480    30A     -0.463800
      31A     -0.432366    32A     -0.351999    33A     -0.344466

  @DF-RHF Final Energy:  -952.45359155613050

   => Energetics <=

    Nuclear Repulsion Energy =            375.2484141513003806
    One-Electron Energy =               -2057.4333889500171608
    Two-Electron Energy =                 729.7313832425861619
    Total Energy =                       -952.4535915561305046
  Basis Set: (AUG-CC-PVTZ AUX)
    Blend: AUG-CC-PVTZ-RI
    Molecular point group: c1

    Geometry (in Angstrom), charge = 0, multiplicity = 1:

       Center              X                  Y                   Z               Mass
    ------------   -----------------  -----------------  -----------------  -----------------
         S           -0.677648135259    -0.066632947835    -0.748776952100    31.972071174400
         S            0.936870864741    -1.037057947835     0.075674047900    31.972071174400
         C           -1.838566535259     0.026091152165     0.679942247900    12.000000000000
         C            1.899033864741     0.334941052165     0.793620047900    12.000000000000
         C           -3.117824135259     0.693565052165     0.209765047900    12.000000000000
         C            2.515252864741     1.263075052165    -0.241034952100    12.000000000000
         H           -2.015572135259    -0.987776947835     1.027686047900     1.007825032230
         H           -1.360207135259     0.597704052165     1.471319047900     1.007825032230
         H            1.263402864741     0.886394052165     1.492827047900     1.007825032230
         H            2.676332864741    -0.163436947835     1.383869047900     1.007825032230
         H           -2.932727135259     1.708790052165    -0.150493952100     1.007825032230
         H           -3.593223135259     0.124930052165    -0.593431952100     1.007825032230
         H           -3.818882135259     0.751997052165     1.047021047900     1.007825032230
         H            3.182526864741     0.710747052165    -0.906772952100     1.007825032230
         H            1.738588864741     1.736471052165    -0.846193952100     1.007825032230
         H            3.090960864741     2.051357052165     0.254445047900     1.007825032230

  Basis Set: AUG-CC-PVTZ
    Blend: AUG-CC-PVTZ
  Basis Set: (AUG-CC-PVTZ AUX)
    Blend: AUG-CC-PVTZ-JKFIT
	 Reference Energy          =    -952.4535915561305046 [Eh]
	 Singles Energy            =      -0.0000000000000000 [Eh]
	 Same-Spin Energy          =      -0.2814814060311923 [Eh]
	 Opposite-Spin Energy      =      -0.9565338865467523 [Eh]
	 Correlation Energy        =      -1.2380152925779446 [Eh]
	 Total Energy              =    -953.6916068487084885 [Eh]

	 ================> DF-SCS-MP2 Energies <==================
	-----------------------------------------------------------
	 SCS Same-Spin Scale       =       0.3333333333333333 [-]
	 SCS Opposite-Spin Scale   =       1.2000000000000000 [-]
	 SCS Same-Spin Energy      =      -0.0938271353437307 [Eh]
	 SCS Opposite-Spin Energy  =      -1.1478406638561027 [Eh]
	 SCS Correlation Energy    =      -1.2416677991998335 [Eh]
	 SCS Total Energy          =    -953.6952593553303359 [Eh]
	-----------------------------------------------------------

  Dipole Moment: [D]
     X:    -0.3236      Y:     1.3444      Z:     1.6855     Total:     2.1801

*** Psi4 exiting successfully. Buy a developer a beer!
