                               Psi4 1.4a3.dev225

  ==> Input File <==

--------------------------------------------------------------------------
#psi4
#
memory 32 gb

molecule  {
0 1
  S       -0.6655530    -0.1220590    -0.7786460
  S        0.9489660    -1.0924840     0.0458050
  C       -1.8453661    -0.0278258     0.6733265
  C        1.9111290     0.2795150     0.7637510
  C       -3.1057290     0.6381390     0.1798960
  C        2.5273480     1.2076490    -0.2709040
  H       -2.0034770    -1.0432030     0.9978170
  H       -1.3481120     0.5422780     1.4414500
  H        1.2754980     0.8309680     1.4629580
  H        2.6884280    -0.2188630     1.3540000
  H       -2.9206320     1.6533640    -0.1803630
  H       -3.5811280     0.0695040    -0.6233010
  H       -3.8067870     0.6965710     1.0171520
  H        3.1946220     0.6553210    -0.9366420
  H        1.7506840     1.6810450    -0.8760630
  H        3.1030560     1.9959310     0.2245760
units angstrom
no_reorient  #important for SAPT in psi4, default
symmetry c1  #important for SAPT in psi4, default
}

set PROPERTIES_ORIGIN ["COM"]
properties('MP2/aug-cc-pvtz', properties = ['dipole'])
--------------------------------------------------------------------------

    Molecular point group: c1
  Charge       = 0
  Multiplicity = 1
  Basis Set: AUG-CC-PVTZ
    Blend: AUG-CC-PVTZ
  Basis Set: (AUG-CC-PVTZ AUX)
    Blend: AUG-CC-PVTZ-JKFIT

    Orbital Energies [Eh]
    ---------------------

    Doubly Occupied:

       1A    -91.966922     2A    -91.965945     3A    -11.261941
       4A    -11.261271     5A    -11.229709     6A    -11.220810
       7A     -8.965642     8A     -8.964370     9A     -6.646735
      10A     -6.645535    11A     -6.645331    12A     -6.644661
      13A     -6.644156    14A     -6.643349    15A     -1.094001
      16A     -1.057281    17A     -0.979881    18A     -0.891954
      19A     -0.834946    20A     -0.768011    21A     -0.641261
      22A     -0.628839    23A     -0.597261    24A     -0.585105
      25A     -0.549341    26A     -0.538308    27A     -0.519950
      28A     -0.510738    29A     -0.484434    30A     -0.460871
      31A     -0.432421    32A     -0.351228    33A     -0.343056

  @DF-RHF Final Energy:  -952.45249049834729

   => Energetics <=

    Nuclear Repulsion Energy =            374.7664059468237383
    One-Electron Energy =               -2056.4872695492904313
    Two-Electron Energy =                 729.2683731041192914
    Total Energy =                       -952.4524904983472879
  Basis Set: (AUG-CC-PVTZ AUX)
    Blend: AUG-CC-PVTZ-RI
    Molecular point group: c1

    Geometry (in Angstrom), charge = 0, multiplicity = 1:

       Center              X                  Y                   Z               Mass
    ------------   -----------------  -----------------  -----------------  -----------------
         S           -0.675789981235    -0.066781356661    -0.751063742203    31.972071174400
         S            0.938729018765    -1.037206356661     0.073387257797    31.972071174400
         C           -1.855603081235     0.027451843339     0.700908757797    12.000000000000
         C            1.900892018765     0.334792643339     0.791333257797    12.000000000000
         C           -3.115965981235     0.693416643339     0.207478257797    12.000000000000
         C            2.517111018765     1.262926643339    -0.243321742203    12.000000000000
         H           -2.013713981235    -0.987925356661     1.025399257797     1.007825032230
         H           -1.358348981235     0.597555643339     1.469032257797     1.007825032230
         H            1.265261018765     0.886245643339     1.490540257797     1.007825032230
         H            2.678191018765    -0.163585356661     1.381582257797     1.007825032230
         H           -2.930868981235     1.708641643339    -0.152780742203     1.007825032230
         H           -3.591364981235     0.124781643339    -0.595718742203     1.007825032230
         H           -3.817023981235     0.751848643339     1.044734257797     1.007825032230
         H            3.184385018765     0.710598643339    -0.909059742203     1.007825032230
         H            1.740447018765     1.736322643339    -0.848480742203     1.007825032230
         H            3.092819018765     2.051208643339     0.252158257797     1.007825032230

  Basis Set: AUG-CC-PVTZ
    Blend: AUG-CC-PVTZ
  Basis Set: (AUG-CC-PVTZ AUX)
    Blend: AUG-CC-PVTZ-JKFIT
	 Reference Energy          =    -952.4524904983472879 [Eh]
	 Singles Energy            =      -0.0000000000000000 [Eh]
	 Same-Spin Energy          =      -0.2814519705841638 [Eh]
	 Opposite-Spin Energy      =      -0.9565831350294477 [Eh]
	 Correlation Energy        =      -1.2380351056136114 [Eh]
	 Total Energy              =    -953.6905256039608503 [Eh]

	 ================> DF-SCS-MP2 Energies <==================
	-----------------------------------------------------------
	 SCS Same-Spin Scale       =       0.3333333333333333 [-]
	 SCS Opposite-Spin Scale   =       1.2000000000000000 [-]
	 SCS Same-Spin Energy      =      -0.0938173235280546 [Eh]
	 SCS Opposite-Spin Energy  =      -1.1478997620353373 [Eh]
	 SCS Correlation Energy    =      -1.2417170855633919 [Eh]
	 SCS Total Energy          =    -953.6942075839107247 [Eh]
	-----------------------------------------------------------

  Dipole Moment: [D]
     X:    -0.3657      Y:     1.3521      Z:     1.7044     Total:     2.2061

*** Psi4 exiting successfully. Buy a developer a beer!
