                               Psi4 1.3.2 release

  ==> Input File <==

--------------------------------------------------------------------------
#psi4
#
memory 32 gb

molecule  {
0 1
  S       -0.6647438    -0.1539554    -0.7756080
  S        0.9490790    -1.0924950     0.0459080
  C       -1.8138760    -0.0304820     0.6345850
  C        1.9109420     0.2797190     0.7637780
  C       -3.1055240     0.6383450     0.1798380
  C        2.5270550     1.2077640    -0.2710270
  H       -2.0036980    -1.0433510     0.9976740
  H       -1.3479990     0.5419670     1.4415090
  H        1.2751640     0.8312490     1.4628040
  H        2.6882710    -0.2183730     1.3542260
  H       -2.9201200     1.6535150    -0.1804290
  H       -3.5810360     0.0698190    -0.6233660
  H       -3.8066230     0.6970240     1.0170440
  H        3.1944500     0.6554300    -0.9366350
  H        1.7503090     1.6808700    -0.8763170
  H        3.1026000     1.9962990     0.2242510
units angstrom
no_reorient  #important for SAPT in psi4, default
symmetry c1  #important for SAPT in psi4, default
}

set PROPERTIES_ORIGIN ["COM"]
properties('MP2/aug-cc-pvtz', properties = ['dipole'])
--------------------------------------------------------------------------

    Molecular point group: c1
  Charge       = 0
  Multiplicity = 1
  Basis Set: AUG-CC-PVTZ
    Blend: AUG-CC-PVTZ
  Basis Set: (AUG-CC-PVTZ AUX)
    Blend: AUG-CC-PVTZ-JKFIT

    Orbital Energies [Eh]
    ---------------------

    Doubly Occupied:

       1A    -91.967295     2A    -91.966697     3A    -11.261877
       4A    -11.260844     5A    -11.229909     6A    -11.221492
       7A     -8.966307     8A     -8.965830     9A     -6.647475
      10A     -6.646888    11A     -6.646135    12A     -6.645728
      13A     -6.645316    14A     -6.644872    15A     -1.098311
      16A     -1.056736    17A     -0.982000    18A     -0.894628
      19A     -0.833729    20A     -0.766920    21A     -0.637933
      22A     -0.627294    23A     -0.599276    24A     -0.585292
      25A     -0.543258    26A     -0.538528    27A     -0.517761
      28A     -0.510104    29A     -0.491734    30A     -0.464886
      31A     -0.433673    32A     -0.353299    33A     -0.343206

  @DF-RHF Final Energy:  -952.45371993834863

   => Energetics <=

    Nuclear Repulsion Energy =            375.9534240978883304
    One-Electron Energy =               -2058.8238192917056040
    Two-Electron Energy =                 730.4166752554687037
    Total Energy =                       -952.4537199383486268
  Basis Set: (AUG-CC-PVTZ AUX)
    Blend: AUG-CC-PVTZ-RI
    Molecular point group: c1

    Geometry (in Angstrom), charge = 0, multiplicity = 1:

       Center              X                  Y                   Z               Mass
    ------------   -----------------  -----------------  -----------------  -----------------
         S           -0.678285300259    -0.090120515279    -0.745016858699    31.972071174400
         S            0.935537499741    -1.028660115279     0.076499141301    31.972071174400
         C           -1.827417500259     0.033352884721     0.665176141301    12.000000000000
         C            1.897400499741     0.343553884721     0.794369141301    12.000000000000
         C           -3.119065500259     0.702179884721     0.210429141301    12.000000000000
         C            2.513513499741     1.271598884721    -0.240435858699    12.000000000000
         H           -2.017239500259    -0.979516115279     1.028265141301     1.007825032230
         H           -1.361540500259     0.605801884721     1.472100141301     1.007825032230
         H            1.261622499741     0.895083884721     1.493395141301     1.007825032230
         H            2.674729499741    -0.154538115279     1.384817141301     1.007825032230
         H           -2.933661500259     1.717349884721    -0.149837858699     1.007825032230
         H           -3.594577500259     0.133653884721    -0.592774858699     1.007825032230
         H           -3.820164500259     0.760858884721     1.047635141301     1.007825032230
         H            3.180908499741     0.719264884721    -0.906043858699     1.007825032230
         H            1.736767499741     1.744704884721    -0.845725858699     1.007825032230
         H            3.089058499741     2.060133884721     0.254842141301     1.007825032230

  Basis Set: AUG-CC-PVTZ
    Blend: AUG-CC-PVTZ
  Basis Set: (AUG-CC-PVTZ AUX)
    Blend: AUG-CC-PVTZ-JKFIT
	 Reference Energy          =    -952.4537199383486268 [Eh]
	 Singles Energy            =      -0.0000000000000000 [Eh]
	 Same-Spin Energy          =      -0.2816124667718343 [Eh]
	 Opposite-Spin Energy      =      -0.9563680037029272 [Eh]
	 Correlation Energy        =      -1.2379804704747615 [Eh]
	 Total Energy              =    -953.6917004088234080 [Eh]

	 ================> DF-SCS-MP2 Energies <==================
	-----------------------------------------------------------
	 SCS Same-Spin Scale       =       0.3333333333333333 [-]
	 SCS Opposite-Spin Scale   =       1.2000000000000000 [-]
	 SCS Same-Spin Energy      =      -0.0938708222572781 [Eh]
	 SCS Opposite-Spin Energy  =      -1.1476416044435125 [Eh]
	 SCS Correlation Energy    =      -1.2415124267007907 [Eh]
	 SCS Total Energy          =    -953.6952323650493781 [Eh]
	-----------------------------------------------------------

  Dipole Moment: [D]
     X:    -0.2975      Y:     1.3637      Z:     1.6697     Total:     2.1763

*** Psi4 exiting successfully. Buy a developer a beer!
