                               Psi4 1.3.2 release

  ==> Input File <==

--------------------------------------------------------------------------
#psi4
#
memory 32 gb

molecule  {
0 1
  S       -0.6655100    -0.1222880    -0.7786460
  S        0.9490790    -1.0924950     0.0459080
  C       -1.7508929    -0.0355172     0.5570752
  C        1.9109420     0.2797190     0.7637780
  C       -3.1055240     0.6383450     0.1798380
  C        2.5270550     1.2077640    -0.2710270
  H       -2.0036980    -1.0433510     0.9976740
  H       -1.3479990     0.5419670     1.4415090
  H        1.2751640     0.8312490     1.4628040
  H        2.6882710    -0.2183730     1.3542260
  H       -2.9201200     1.6535150    -0.1804290
  H       -3.5810360     0.0698190    -0.6233660
  H       -3.8066230     0.6970240     1.0170440
  H        3.1944500     0.6554300    -0.9366350
  H        1.7503090     1.6808700    -0.8763170
  H        3.1026000     1.9962990     0.2242510
units angstrom
no_reorient  #important for SAPT in psi4, default
symmetry c1  #important for SAPT in psi4, default
}

set PROPERTIES_ORIGIN ["COM"]
properties('MP2/aug-cc-pvtz', properties = ['dipole'])
--------------------------------------------------------------------------

    Molecular point group: c1
  Charge       = 0
  Multiplicity = 1
  Basis Set: AUG-CC-PVTZ
    Blend: AUG-CC-PVTZ
  Basis Set: (AUG-CC-PVTZ AUX)
    Blend: AUG-CC-PVTZ-JKFIT

    Orbital Energies [Eh]
    ---------------------

    Doubly Occupied:

       1A    -91.969075     2A    -91.968357     3A    -11.263039
       4A    -11.261622     5A    -11.231323     6A    -11.222253
       7A     -8.968852     8A     -8.967944     9A     -6.650055
      10A     -6.649058    11A     -6.648822    12A     -6.647846
      13A     -6.647778    14A     -6.646938    15A     -1.105222
      16A     -1.057782    17A     -0.978590    18A     -0.900971
      19A     -0.829365    20A     -0.766249    21A     -0.636735
      22A     -0.620448    23A     -0.600098    24A     -0.586362
      25A     -0.542034    26A     -0.531680    27A     -0.513958
      28A     -0.509408    29A     -0.502309    30A     -0.466827
      31A     -0.429249    32A     -0.354995    33A     -0.345765

  @DF-RHF Final Energy:  -952.44437544215020

   => Energetics <=

    Nuclear Repulsion Energy =            377.2824474380707898
    One-Electron Energy =               -2061.4116308851703252
    Two-Electron Energy =                 731.6848080049492182
    Total Energy =                       -952.4443754421502035
  Basis Set: (AUG-CC-PVTZ AUX)
    Blend: AUG-CC-PVTZ-RI
    Molecular point group: c1

    Geometry (in Angstrom), charge = 0, multiplicity = 1:

       Center              X                  Y                   Z               Mass
    ------------   -----------------  -----------------  -----------------  -----------------
         S           -0.685044664162    -0.066255371454    -0.739636332151    31.972071174400
         S            0.929544335838    -1.036462371454     0.084917667849    31.972071174400
         C           -1.770427564162     0.020515428546     0.596084867849    12.000000000000
         C            1.891407335838     0.335751628546     0.802787667849    12.000000000000
         C           -3.125058664162     0.694377628546     0.218847667849    12.000000000000
         C            2.507520335838     1.263796628546    -0.232017332151    12.000000000000
         H           -2.023232664162    -0.987318371454     1.036683667849     1.007825032230
         H           -1.367533664162     0.597999628546     1.480518667849     1.007825032230
         H            1.255629335838     0.887281628546     1.501813667849     1.007825032230
         H            2.668736335838    -0.162340371454     1.393235667849     1.007825032230
         H           -2.939654664162     1.709547628546    -0.141419332151     1.007825032230
         H           -3.600570664162     0.125851628546    -0.584356332151     1.007825032230
         H           -3.826157664162     0.753056628546     1.056053667849     1.007825032230
         H            3.174915335838     0.711462628546    -0.897625332151     1.007825032230
         H            1.730774335838     1.736902628546    -0.837307332151     1.007825032230
         H            3.083065335838     2.052331628546     0.263260667849     1.007825032230

  Basis Set: AUG-CC-PVTZ
    Blend: AUG-CC-PVTZ
  Basis Set: (AUG-CC-PVTZ AUX)
    Blend: AUG-CC-PVTZ-JKFIT
	 Reference Energy          =    -952.4443754421502035 [Eh]
	 Singles Energy            =      -0.0000000000000000 [Eh]
	 Same-Spin Energy          =      -0.2822447716954353 [Eh]
	 Opposite-Spin Energy      =      -0.9573053009187468 [Eh]
	 Correlation Energy        =      -1.2395500726141822 [Eh]
	 Total Energy              =    -953.6839255147643826 [Eh]

	 ================> DF-SCS-MP2 Energies <==================
	-----------------------------------------------------------
	 SCS Same-Spin Scale       =       0.3333333333333333 [-]
	 SCS Opposite-Spin Scale   =       1.2000000000000000 [-]
	 SCS Same-Spin Energy      =      -0.0940815905651451 [Eh]
	 SCS Opposite-Spin Energy  =      -1.1487663611024961 [Eh]
	 SCS Correlation Energy    =      -1.2428479516676412 [Eh]
	 SCS Total Energy          =    -953.6872233938178169 [Eh]
	-----------------------------------------------------------

  Dipole Moment: [D]
     X:    -0.1884      Y:     1.3252      Z:     1.6114     Total:     2.0948

*** Psi4 exiting successfully. Buy a developer a beer!
