                               Psi4 1.3.2 release

  ==> Input File <==

--------------------------------------------------------------------------
#psi4
#
memory 32 gb

molecule  {
0 1
  S       -0.6229450    -0.1506578    -0.7407825
  S        0.9490790    -1.0924950     0.0459080
  C       -1.8138760    -0.0304820     0.6345850
  C        1.9109420     0.2797190     0.7637780
  C       -3.1055240     0.6383450     0.1798380
  C        2.5270550     1.2077640    -0.2710270
  H       -2.0036980    -1.0433510     0.9976740
  H       -1.3479990     0.5419670     1.4415090
  H        1.2751640     0.8312490     1.4628040
  H        2.6882710    -0.2183730     1.3542260
  H       -2.9201200     1.6535150    -0.1804290
  H       -3.5810360     0.0698190    -0.6233660
  H       -3.8066230     0.6970240     1.0170440
  H        3.1944500     0.6554300    -0.9366350
  H        1.7503090     1.6808700    -0.8763170
  H        3.1026000     1.9962990     0.2242510
units angstrom
no_reorient  #important for SAPT in psi4, default
symmetry c1  #important for SAPT in psi4, default
}

set PROPERTIES_ORIGIN ["COM"]
properties('MP2/aug-cc-pvtz', properties = ['dipole'])
--------------------------------------------------------------------------

    Molecular point group: c1
  Charge       = 0
  Multiplicity = 1
  Basis Set: AUG-CC-PVTZ
    Blend: AUG-CC-PVTZ
  Basis Set: (AUG-CC-PVTZ AUX)
    Blend: AUG-CC-PVTZ-JKFIT

    Orbital Energies [Eh]
    ---------------------

    Doubly Occupied:

       1A    -91.966555     2A    -91.963730     3A    -11.260907
       4A    -11.260171     5A    -11.230284     6A    -11.221337
       7A     -8.966256     8A     -8.963730     9A     -6.647498
      10A     -6.646098    11A     -6.645312    12A     -6.644924
      13A     -6.643650    14A     -6.642821    15A     -1.103505
      16A     -1.055988    17A     -0.987285    18A     -0.894139
      19A     -0.835713    20A     -0.763906    21A     -0.637909
      22A     -0.627460    23A     -0.599701    24A     -0.585634
      25A     -0.544503    26A     -0.538530    27A     -0.518151
      28A     -0.510601    29A     -0.493964    30A     -0.466818
      31A     -0.437524    32A     -0.350596    33A     -0.342240

  @DF-RHF Final Energy:  -952.45239056429091

   => Energetics <=

    Nuclear Repulsion Energy =            377.8919276384704062
    One-Electron Energy =               -2062.6937633494762849
    Two-Electron Energy =                 732.3494451467149702
    Total Energy =                       -952.4523905642909085
  Basis Set: (AUG-CC-PVTZ AUX)
    Blend: AUG-CC-PVTZ-RI
    Molecular point group: c1

    Geometry (in Angstrom), charge = 0, multiplicity = 1:

       Center              X                  Y                   Z               Mass
    ------------   -----------------  -----------------  -----------------  -----------------
         S           -0.647438540941    -0.087686946049    -0.719316268811    31.972071174400
         S            0.924585459059    -1.029524146049     0.067374231189    31.972071174400
         C           -1.838369540941     0.032488853951     0.656051231189    12.000000000000
         C            1.886448459059     0.342689853951     0.785244231189    12.000000000000
         C           -3.130017540941     0.701315853951     0.201304231189    12.000000000000
         C            2.502561459059     1.270734853951    -0.249560768811    12.000000000000
         H           -2.028191540941    -0.980380146049     1.019140231189     1.007825032230
         H           -1.372492540941     0.604937853951     1.462975231189     1.007825032230
         H            1.250670459059     0.894219853951     1.484270231189     1.007825032230
         H            2.663777459059    -0.155402146049     1.375692231189     1.007825032230
         H           -2.944613540941     1.716485853951    -0.158962768811     1.007825032230
         H           -3.605529540941     0.132789853951    -0.601899768811     1.007825032230
         H           -3.831116540941     0.759994853951     1.038510231189     1.007825032230
         H            3.169956459059     0.718400853951    -0.915168768811     1.007825032230
         H            1.725815459059     1.743840853951    -0.854850768811     1.007825032230
         H            3.078106459059     2.059269853951     0.245717231189     1.007825032230

  Basis Set: AUG-CC-PVTZ
    Blend: AUG-CC-PVTZ
  Basis Set: (AUG-CC-PVTZ AUX)
    Blend: AUG-CC-PVTZ-JKFIT
	 Reference Energy          =    -952.4523905642909085 [Eh]
	 Singles Energy            =      -0.0000000000000000 [Eh]
	 Same-Spin Energy          =      -0.2821267241364085 [Eh]
	 Opposite-Spin Energy      =      -0.9563223175972588 [Eh]
	 Correlation Energy        =      -1.2384490417336673 [Eh]
	 Total Energy              =    -953.6908396060246105 [Eh]

	 ================> DF-SCS-MP2 Energies <==================
	-----------------------------------------------------------
	 SCS Same-Spin Scale       =       0.3333333333333333 [-]
	 SCS Opposite-Spin Scale   =       1.2000000000000000 [-]
	 SCS Same-Spin Energy      =      -0.0940422413788028 [Eh]
	 SCS Opposite-Spin Energy  =      -1.1475867811167106 [Eh]
	 SCS Correlation Energy    =      -1.2416290224955135 [Eh]
	 SCS Total Energy          =    -953.6940195867864531 [Eh]
	-----------------------------------------------------------

  Dipole Moment: [D]
     X:    -0.2973      Y:     1.3305      Z:     1.6570     Total:     2.1457

*** Psi4 exiting successfully. Buy a developer a beer!
