                               Psi4 1.3.2 release

  ==> Input File <==

--------------------------------------------------------------------------
#psi4
#
memory 32 gb

molecule  {
0 1
  S       -0.5818310    -0.1788811    -0.7012434
  S        0.9490790    -1.0924950     0.0459080
  C       -1.8138760    -0.0304820     0.6345850
  C        1.9109420     0.2797190     0.7637780
  C       -3.1055240     0.6383450     0.1798380
  C        2.5270550     1.2077640    -0.2710270
  H       -2.0036980    -1.0433510     0.9976740
  H       -1.3479990     0.5419670     1.4415090
  H        1.2751640     0.8312490     1.4628040
  H        2.6882710    -0.2183730     1.3542260
  H       -2.9201200     1.6535150    -0.1804290
  H       -3.5810360     0.0698190    -0.6233660
  H       -3.8066230     0.6970240     1.0170440
  H        3.1944500     0.6554300    -0.9366350
  H        1.7503090     1.6808700    -0.8763170
  H        3.1026000     1.9962990     0.2242510
units angstrom
no_reorient  #important for SAPT in psi4, default
symmetry c1  #important for SAPT in psi4, default
}

set PROPERTIES_ORIGIN ["COM"]
properties('MP2/aug-cc-pvtz', properties = ['dipole'])
--------------------------------------------------------------------------

    Molecular point group: c1
  Charge       = 0
  Multiplicity = 1
  Basis Set: AUG-CC-PVTZ
    Blend: AUG-CC-PVTZ
  Basis Set: (AUG-CC-PVTZ AUX)
    Blend: AUG-CC-PVTZ-JKFIT

    Orbital Energies [Eh]
    ---------------------

    Doubly Occupied:

       1A    -91.965212     2A    -91.959855     3A    -11.259664
       4A    -11.259191     5A    -11.230882     6A    -11.221322
       7A     -8.966066     8A     -8.961183     9A     -6.647490
      10A     -6.645857    11A     -6.645142    12A     -6.642579
      13A     -6.641112    14A     -6.640333    15A     -1.112065
      16A     -1.055146    17A     -0.994528    18A     -0.893622
      19A     -0.838692    20A     -0.759565    21A     -0.638212
      22A     -0.627417    23A     -0.601208    24A     -0.585783
      25A     -0.546697    26A     -0.538491    27A     -0.519085
      28A     -0.511609    29A     -0.497208    30A     -0.469275
      31A     -0.442510    32A     -0.348179    33A     -0.338788

  @DF-RHF Final Energy:  -952.44705346253522

   => Energetics <=

    Nuclear Repulsion Energy =            380.3254400221372293
    One-Electron Energy =               -2067.5370529678502862
    Two-Electron Energy =                 734.7645594831778908
    Total Energy =                       -952.4470534625352229
  Basis Set: (AUG-CC-PVTZ AUX)
    Blend: AUG-CC-PVTZ-RI
    Molecular point group: c1

    Geometry (in Angstrom), charge = 0, multiplicity = 1:

       Center              X                  Y                   Z               Mass
    ------------   -----------------  -----------------  -----------------  -----------------
         S           -0.617097151652    -0.108515231605    -0.690137127271    31.972071174400
         S            0.913812848348    -1.022129131605     0.057014272729    31.972071174400
         C           -1.849142151652     0.039883868395     0.645691272729    12.000000000000
         C            1.875675848348     0.350084868395     0.774884272729    12.000000000000
         C           -3.140790151652     0.708710868395     0.190944272729    12.000000000000
         C            2.491788848348     1.278129868395    -0.259920727271    12.000000000000
         H           -2.038964151652    -0.972985131605     1.008780272729     1.007825032230
         H           -1.383265151652     0.612332868395     1.452615272729     1.007825032230
         H            1.239897848348     0.901614868395     1.473910272729     1.007825032230
         H            2.653004848348    -0.148007131605     1.365332272729     1.007825032230
         H           -2.955386151652     1.723880868395    -0.169322727271     1.007825032230
         H           -3.616302151652     0.140184868395    -0.612259727271     1.007825032230
         H           -3.841889151652     0.767389868395     1.028150272729     1.007825032230
         H            3.159183848348     0.725795868395    -0.925528727271     1.007825032230
         H            1.715042848348     1.751235868395    -0.865210727271     1.007825032230
         H            3.067333848348     2.066664868395     0.235357272729     1.007825032230

  Basis Set: AUG-CC-PVTZ
    Blend: AUG-CC-PVTZ
  Basis Set: (AUG-CC-PVTZ AUX)
    Blend: AUG-CC-PVTZ-JKFIT
	 Reference Energy          =    -952.4470534625352229 [Eh]
	 Singles Energy            =      -0.0000000000000000 [Eh]
	 Same-Spin Energy          =      -0.2828830306476978 [Eh]
	 Opposite-Spin Energy      =      -0.9563677237876359 [Eh]
	 Correlation Energy        =      -1.2392507544353337 [Eh]
	 Total Energy              =    -953.6863042169705977 [Eh]

	 ================> DF-SCS-MP2 Energies <==================
	-----------------------------------------------------------
	 SCS Same-Spin Scale       =       0.3333333333333333 [-]
	 SCS Opposite-Spin Scale   =       1.2000000000000000 [-]
	 SCS Same-Spin Energy      =      -0.0942943435492326 [Eh]
	 SCS Opposite-Spin Energy  =      -1.1476412685451631 [Eh]
	 SCS Correlation Energy    =      -1.2419356120943958 [Eh]
	 SCS Total Energy          =    -953.6889890746296032 [Eh]
	-----------------------------------------------------------

  Dipole Moment: [D]
     X:    -0.2932      Y:     1.3164      Z:     1.6374     Total:     2.1213

*** Psi4 exiting successfully. Buy a developer a beer!
