                               Psi4 1.3.2 release

  ==> Input File <==

--------------------------------------------------------------------------
#psi4
#
memory 32 gb

molecule  {
0 1
  S       -0.6655100    -0.1222880    -0.7786460
  S        1.0136062    -1.0831592    -0.0819509
  C       -1.8138760    -0.0304820     0.6345850
  C        1.9109420     0.2797190     0.7637780
  C       -3.1055240     0.6383450     0.1798380
  C        2.5270550     1.2077640    -0.2710270
  H       -2.0036980    -1.0433510     0.9976740
  H       -1.3479990     0.5419670     1.4415090
  H        1.2751640     0.8312490     1.4628040
  H        2.6882710    -0.2183730     1.3542260
  H       -2.9201200     1.6535150    -0.1804290
  H       -3.5810360     0.0698190    -0.6233660
  H       -3.8066230     0.6970240     1.0170440
  H        3.1944500     0.6554300    -0.9366350
  H        1.7503090     1.6808700    -0.8763170
  H        3.1026000     1.9962990     0.2242510
units angstrom
no_reorient  #important for SAPT in psi4, default
symmetry c1  #important for SAPT in psi4, default
}

set PROPERTIES_ORIGIN ["COM"]
properties('MP2/aug-cc-pvtz', properties = ['dipole'])
--------------------------------------------------------------------------

    Molecular point group: c1
  Charge       = 0
  Multiplicity = 1
  Basis Set: AUG-CC-PVTZ
    Blend: AUG-CC-PVTZ
  Basis Set: (AUG-CC-PVTZ AUX)
    Blend: AUG-CC-PVTZ-JKFIT

    Orbital Energies [Eh]
    ---------------------

    Doubly Occupied:

       1A    -91.969519     2A    -91.966424     3A    -11.263222
       4A    -11.261897     5A    -11.230867     6A    -11.220046
       7A     -8.967961     8A     -8.965323     9A     -6.649009
      10A     -6.647776    11A     -6.646948    12A     -6.646397
      13A     -6.645215    14A     -6.644339    15A     -1.095443
      16A     -1.057165    17A     -0.979245    18A     -0.891936
      19A     -0.834390    20A     -0.769593    21A     -0.637747
      22A     -0.628176    23A     -0.599508    24A     -0.584030
      25A     -0.542857    26A     -0.536005    27A     -0.517431
      28A     -0.509719    29A     -0.493197    30A     -0.460791
      31A     -0.432810    32A     -0.358915    33A     -0.338484

  @DF-RHF Final Energy:  -952.45176920346489

   => Energetics <=

    Nuclear Repulsion Energy =            374.9244341756518111
    One-Electron Energy =               -2056.7676369790560784
    Two-Electron Energy =                 729.3914335999393188
    Total Energy =                       -952.4517692034648917
  Basis Set: (AUG-CC-PVTZ AUX)
    Blend: AUG-CC-PVTZ-RI
    Molecular point group: c1

    Geometry (in Angstrom), charge = 0, multiplicity = 1:

       Center              X                  Y                   Z               Mass
    ------------   -----------------  -----------------  -----------------  -----------------
         S           -0.695758034081    -0.069196694389    -0.713757506290    31.972071174400
         S            0.983358165919    -1.030067894389    -0.017062406290    31.972071174400
         C           -1.844124034081     0.022609305611     0.699473493710    12.000000000000
         C            1.880693965919     0.332810305611     0.828666493710    12.000000000000
         C           -3.135772034081     0.691436305611     0.244726493710    12.000000000000
         C            2.496806965919     1.260855305611    -0.206138506290    12.000000000000
         H           -2.033946034081    -0.990259694389     1.062562493710     1.007825032230
         H           -1.378247034081     0.595058305611     1.506397493710     1.007825032230
         H            1.244915965919     0.884340305611     1.527692493710     1.007825032230
         H            2.658022965919    -0.165281694389     1.419114493710     1.007825032230
         H           -2.950368034081     1.706606305611    -0.115540506290     1.007825032230
         H           -3.611284034081     0.122910305611    -0.558477506290     1.007825032230
         H           -3.836871034081     0.750115305611     1.081932493710     1.007825032230
         H            3.164201965919     0.708521305611    -0.871746506290     1.007825032230
         H            1.720060965919     1.733961305611    -0.811428506290     1.007825032230
         H            3.072351965919     2.049390305611     0.289139493710     1.007825032230

  Basis Set: AUG-CC-PVTZ
    Blend: AUG-CC-PVTZ
  Basis Set: (AUG-CC-PVTZ AUX)
    Blend: AUG-CC-PVTZ-JKFIT
	 Reference Energy          =    -952.4517692034648917 [Eh]
	 Singles Energy            =      -0.0000000000000000 [Eh]
	 Same-Spin Energy          =      -0.2814421847983208 [Eh]
	 Opposite-Spin Energy      =      -0.9565804474538814 [Eh]
	 Correlation Energy        =      -1.2380226322522021 [Eh]
	 Total Energy              =    -953.6897918357170738 [Eh]

	 ================> DF-SCS-MP2 Energies <==================
	-----------------------------------------------------------
	 SCS Same-Spin Scale       =       0.3333333333333333 [-]
	 SCS Opposite-Spin Scale   =       1.2000000000000000 [-]
	 SCS Same-Spin Energy      =      -0.0938140615994403 [Eh]
	 SCS Opposite-Spin Energy  =      -1.1478965369446577 [Eh]
	 SCS Correlation Energy    =      -1.2417105985440979 [Eh]
	 SCS Total Energy          =    -953.6934798020089374 [Eh]
	-----------------------------------------------------------

  Dipole Moment: [D]
     X:    -0.3293      Y:     1.2913      Z:     1.7874     Total:     2.2295

*** Psi4 exiting successfully. Buy a developer a beer!
