                               Psi4 1.3.2 release

  ==> Input File <==

--------------------------------------------------------------------------
#psi4
#
memory 32 gb

molecule  {
0 1
  S       -0.6655100    -0.1222880    -0.7786460
  S        0.9659612    -1.0906028     0.0142959
  C       -1.8138760    -0.0304820     0.6345850
  C        1.9109420     0.2797190     0.7637780
  C       -3.1055240     0.6383450     0.1798380
  C        2.5270550     1.2077640    -0.2710270
  H       -2.0036980    -1.0433510     0.9976740
  H       -1.3479990     0.5419670     1.4415090
  H        1.2751640     0.8312490     1.4628040
  H        2.6882710    -0.2183730     1.3542260
  H       -2.9201200     1.6535150    -0.1804290
  H       -3.5810360     0.0698190    -0.6233660
  H       -3.8066230     0.6970240     1.0170440
  H        3.1944500     0.6554300    -0.9366350
  H        1.7503090     1.6808700    -0.8763170
  H        3.1026000     1.9962990     0.2242510
units angstrom
no_reorient  #important for SAPT in psi4, default
symmetry c1  #important for SAPT in psi4, default
}

set PROPERTIES_ORIGIN ["COM"]
properties('MP2/aug-cc-pvtz', properties = ['dipole'])
--------------------------------------------------------------------------

    Molecular point group: c1
  Charge       = 0
  Multiplicity = 1
  Basis Set: AUG-CC-PVTZ
    Blend: AUG-CC-PVTZ
  Basis Set: (AUG-CC-PVTZ AUX)
    Blend: AUG-CC-PVTZ-JKFIT

    Orbital Energies [Eh]
    ---------------------

    Doubly Occupied:

       1A    -91.968201     2A    -91.967105     3A    -11.262176
       4A    -11.261205     5A    -11.229997     6A    -11.220997
       7A     -8.966905     8A     -8.966015     9A     -6.647998
      10A     -6.647075    11A     -6.646726    12A     -6.645914
      13A     -6.645887    14A     -6.645027    15A     -1.096608
      16A     -1.056977    17A     -0.979666    18A     -0.894067
      19A     -0.833200    20A     -0.768385    21A     -0.637674
      22A     -0.627692    23A     -0.598676    24A     -0.585159
      25A     -0.542833    26A     -0.537825    27A     -0.517390
      28A     -0.509924    29A     -0.490913    30A     -0.464158
      31A     -0.432342    32A     -0.354190    33A     -0.343513

  @DF-RHF Final Energy:  -952.45354866730918

   => Energetics <=

    Nuclear Repulsion Energy =            375.4316428584133973
    One-Electron Energy =               -2057.7855451239192917
    Two-Electron Energy =                 729.9003535981967161
    Total Energy =                       -952.4535486673091782
  Basis Set: (AUG-CC-PVTZ AUX)
    Blend: AUG-CC-PVTZ-RI
    Molecular point group: c1

    Geometry (in Angstrom), charge = 0, multiplicity = 1:

       Center              X                  Y                   Z               Mass
    ------------   -----------------  -----------------  -----------------  -----------------
         S           -0.683274183390    -0.067246336723    -0.738975906557    31.972071174400
         S            0.948197016610    -1.035561136723     0.053965993443    31.972071174400
         C           -1.831640183390     0.024559663277     0.674255093443    12.000000000000
         C            1.893177816610     0.334760663277     0.803448093443    12.000000000000
         C           -3.123288183390     0.693386663277     0.219508093443    12.000000000000
         C            2.509290816610     1.262805663277    -0.231356906557    12.000000000000
         H           -2.021462183390    -0.988309336723     1.037344093443     1.007825032230
         H           -1.365763183390     0.597008663277     1.481179093443     1.007825032230
         H            1.257399816610     0.886290663277     1.502474093443     1.007825032230
         H            2.670506816610    -0.163331336723     1.393896093443     1.007825032230
         H           -2.937884183390     1.708556663277    -0.140758906557     1.007825032230
         H           -3.598800183390     0.124860663277    -0.583695906557     1.007825032230
         H           -3.824387183390     0.752065663277     1.056714093443     1.007825032230
         H            3.176685816610     0.710471663277    -0.896964906557     1.007825032230
         H            1.732544816610     1.735911663277    -0.836646906557     1.007825032230
         H            3.084835816610     2.051340663277     0.263921093443     1.007825032230

  Basis Set: AUG-CC-PVTZ
    Blend: AUG-CC-PVTZ
  Basis Set: (AUG-CC-PVTZ AUX)
    Blend: AUG-CC-PVTZ-JKFIT
	 Reference Energy          =    -952.4535486673091782 [Eh]
	 Singles Energy            =      -0.0000000000000000 [Eh]
	 Same-Spin Energy          =      -0.2815032246943307 [Eh]
	 Opposite-Spin Energy      =      -0.9565226518719472 [Eh]
	 Correlation Energy        =      -1.2380258765662779 [Eh]
	 Total Energy              =    -953.6915745438755039 [Eh]

	 ================> DF-SCS-MP2 Energies <==================
	-----------------------------------------------------------
	 SCS Same-Spin Scale       =       0.3333333333333333 [-]
	 SCS Opposite-Spin Scale   =       1.2000000000000000 [-]
	 SCS Same-Spin Energy      =      -0.0938344082314436 [Eh]
	 SCS Opposite-Spin Energy  =      -1.1478271822463366 [Eh]
	 SCS Correlation Energy    =      -1.2416615904777801 [Eh]
	 SCS Total Energy          =    -953.6952102577869255 [Eh]
	-----------------------------------------------------------

  Dipole Moment: [D]
     X:    -0.3064      Y:     1.3281      Z:     1.7022     Total:     2.1807

*** Psi4 exiting successfully. Buy a developer a beer!
