                               Psi4 1.4a3.dev225

  ==> Input File <==

--------------------------------------------------------------------------
#psi4
#
memory 32 gb

molecule  {
0 1
  S       -0.6655530    -0.1220590    -0.7786460
  S        0.9489660    -1.0924840     0.0458050
  C       -1.7823839    -0.0328562     0.5958155
  C        1.9111290     0.2795150     0.7637510
  C       -3.1057290     0.6381390     0.1798960
  C        2.5273480     1.2076490    -0.2709040
  H       -2.0034770    -1.0432030     0.9978170
  H       -1.3481120     0.5422780     1.4414500
  H        1.2754980     0.8309680     1.4629580
  H        2.6884280    -0.2188630     1.3540000
  H       -2.9206320     1.6533640    -0.1803630
  H       -3.5811280     0.0695040    -0.6233010
  H       -3.8067870     0.6965710     1.0171520
  H        3.1946220     0.6553210    -0.9366420
  H        1.7506840     1.6810450    -0.8760630
  H        3.1030560     1.9959310     0.2245760
units angstrom
no_reorient  #important for SAPT in psi4, default
symmetry c1  #important for SAPT in psi4, default
}

set PROPERTIES_ORIGIN ["COM"]
properties('MP2/aug-cc-pvtz', properties = ['dipole'])
--------------------------------------------------------------------------

    Molecular point group: c1
  Charge       = 0
  Multiplicity = 1
  Basis Set: AUG-CC-PVTZ
    Blend: AUG-CC-PVTZ
  Basis Set: (AUG-CC-PVTZ AUX)
    Blend: AUG-CC-PVTZ-JKFIT

    Orbital Energies [Eh]
    ---------------------

    Doubly Occupied:

       1A    -91.968520     2A    -91.968098     3A    -11.262529
       4A    -11.260915     5A    -11.230220     6A    -11.221848
       7A     -8.967727     8A     -8.967313     9A     -6.648883
      10A     -6.648357    11A     -6.647657    12A     -6.647172
      13A     -6.646714    14A     -6.646336    15A     -1.100563
      16A     -1.057002    17A     -0.979387    18A     -0.897690
      19A     -0.830871    20A     -0.767491    21A     -0.636478
      22A     -0.624259    23A     -0.599315    24A     -0.585959
      25A     -0.541158    26A     -0.535240    27A     -0.515346
      28A     -0.508867    29A     -0.496978    30A     -0.466954
      31A     -0.431197    32A     -0.353765    33A     -0.346093

  @DF-RHF Final Energy:  -952.45113839220221

   => Energetics <=

    Nuclear Repulsion Energy =            376.4096327722313049
    One-Electron Energy =               -2059.7077371986092658
    Two-Electron Energy =                 730.8469660341756935
    Total Energy =                       -952.4511383922022105
  Basis Set: (AUG-CC-PVTZ AUX)
    Blend: AUG-CC-PVTZ-RI
    Molecular point group: c1

    Geometry (in Angstrom), charge = 0, multiplicity = 1:

       Center              X                  Y                   Z               Mass
    ------------   -----------------  -----------------  -----------------  -----------------
         S           -0.681983814871    -0.066286654019    -0.743441108524    31.972071174400
         S            0.932535185129    -1.036711654019     0.081009891476    31.972071174400
         C           -1.798814714871     0.022916145981     0.631020391476    12.000000000000
         C            1.894698185129     0.335287345981     0.798955891476    12.000000000000
         C           -3.122159814871     0.693911345981     0.215100891476    12.000000000000
         C            2.510917185129     1.263421345981    -0.235699108524    12.000000000000
         H           -2.019907814871    -0.987430654019     1.033021891476     1.007825032230
         H           -1.364542814871     0.598050345981     1.476654891476     1.007825032230
         H            1.259067185129     0.886740345981     1.498162891476     1.007825032230
         H            2.671997185129    -0.163090654019     1.389204891476     1.007825032230
         H           -2.937062814871     1.709136345981    -0.145158108524     1.007825032230
         H           -3.597558814871     0.125276345981    -0.588096108524     1.007825032230
         H           -3.823217814871     0.752343345981     1.052356891476     1.007825032230
         H            3.178191185129     0.711093345981    -0.901437108524     1.007825032230
         H            1.734253185129     1.736817345981    -0.840858108524     1.007825032230
         H            3.086625185129     2.051703345981     0.259780891476     1.007825032230

  Basis Set: AUG-CC-PVTZ
    Blend: AUG-CC-PVTZ
  Basis Set: (AUG-CC-PVTZ AUX)
    Blend: AUG-CC-PVTZ-JKFIT
	 Reference Energy          =    -952.4511383922022105 [Eh]
	 Singles Energy            =      -0.0000000000000000 [Eh]
	 Same-Spin Energy          =      -0.2817904849230143 [Eh]
	 Opposite-Spin Energy      =      -0.9567826917651356 [Eh]
	 Correlation Energy        =      -1.2385731766881500 [Eh]
	 Total Energy              =    -953.6897115688904023 [Eh]

	 ================> DF-SCS-MP2 Energies <==================
	-----------------------------------------------------------
	 SCS Same-Spin Scale       =       0.3333333333333333 [-]
	 SCS Opposite-Spin Scale   =       1.2000000000000000 [-]
	 SCS Same-Spin Energy      =      -0.0939301616410048 [Eh]
	 SCS Opposite-Spin Energy  =      -1.1481392301181628 [Eh]
	 SCS Correlation Energy    =      -1.2420693917591676 [Eh]
	 SCS Total Energy          =    -953.6932077839613839 [Eh]
	-----------------------------------------------------------

  Dipole Moment: [D]
     X:    -0.2375      Y:     1.3305      Z:     1.6423     Total:     2.1269

*** Psi4 exiting successfully. Buy a developer a beer!
