                               Psi4 1.3.2 release

  ==> Input File <==

--------------------------------------------------------------------------
#psi4
#
memory 32 gb

molecule  {
0 1
  S       -0.6655100    -0.1222880    -0.7786460
  S        0.8376480    -1.0976282     0.2299749
  C       -1.8138760    -0.0304820     0.6345850
  C        1.9109420     0.2797190     0.7637780
  C       -3.1055240     0.6383450     0.1798380
  C        2.5270550     1.2077640    -0.2710270
  H       -2.0036980    -1.0433510     0.9976740
  H       -1.3479990     0.5419670     1.4415090
  H        1.2751640     0.8312490     1.4628040
  H        2.6882710    -0.2183730     1.3542260
  H       -2.9201200     1.6535150    -0.1804290
  H       -3.5810360     0.0698190    -0.6233660
  H       -3.8066230     0.6970240     1.0170440
  H        3.1944500     0.6554300    -0.9366350
  H        1.7503090     1.6808700    -0.8763170
  H        3.1026000     1.9962990     0.2242510
units angstrom
no_reorient  #important for SAPT in psi4, default
symmetry c1  #important for SAPT in psi4, default
}

set PROPERTIES_ORIGIN ["COM"]
properties('MP2/aug-cc-pvtz', properties = ['dipole'])
--------------------------------------------------------------------------

    Molecular point group: c1
  Charge       = 0
  Multiplicity = 1
  Basis Set: AUG-CC-PVTZ
    Blend: AUG-CC-PVTZ
  Basis Set: (AUG-CC-PVTZ AUX)
    Blend: AUG-CC-PVTZ-JKFIT

    Orbital Energies [Eh]
    ---------------------

    Doubly Occupied:

       1A    -91.968007     2A    -91.965857     3A    -11.261634
       4A    -11.260019     5A    -11.227608     6A    -11.223963
       7A     -8.967049     8A     -8.964839     9A     -6.648083
      10A     -6.646909    11A     -6.646002    12A     -6.645899
      13A     -6.644683    14A     -6.643827    15A     -1.097768
      16A     -1.054885    17A     -0.980775    18A     -0.896745
      19A     -0.829706    20A     -0.767045    21A     -0.637276
      22A     -0.626023    23A     -0.595859    24A     -0.587346
      25A     -0.542900    26A     -0.541431    27A     -0.517496
      28A     -0.510102    29A     -0.482038    30A     -0.469803
      31A     -0.432166    32A     -0.354836    33A     -0.341554

  @DF-RHF Final Energy:  -952.44906813563057

   => Energetics <=

    Nuclear Repulsion Energy =            376.2517368587164128
    One-Electron Energy =               -2059.4413434437242358
    Two-Electron Energy =                 730.7405384493772544
    Total Energy =                       -952.4490681356305686
  Basis Set: (AUG-CC-PVTZ AUX)
    Blend: AUG-CC-PVTZ-RI
    Molecular point group: c1

    Geometry (in Angstrom), charge = 0, multiplicity = 1:

       Center              X                  Y                   Z               Mass
    ------------   -----------------  -----------------  -----------------  -----------------
         S           -0.649653807054    -0.065405555011    -0.795487700727    31.972071174400
         S            0.853504192946    -1.040745755011     0.213133199273    31.972071174400
         C           -1.798019807054     0.026400444989     0.617743299273    12.000000000000
         C            1.926798192946     0.336601444989     0.746936299273    12.000000000000
         C           -3.089667807054     0.695227444989     0.162996299273    12.000000000000
         C            2.542911192946     1.264646444989    -0.287868700727    12.000000000000
         H           -1.987841807054    -0.986468555011     0.980832299273     1.007825032230
         H           -1.332142807054     0.598849444989     1.424667299273     1.007825032230
         H            1.291020192946     0.888131444989     1.445962299273     1.007825032230
         H            2.704127192946    -0.161490555011     1.337384299273     1.007825032230
         H           -2.904263807054     1.710397444989    -0.197270700727     1.007825032230
         H           -3.565179807054     0.126701444989    -0.640207700727     1.007825032230
         H           -3.790766807054     0.753906444989     1.000202299273     1.007825032230
         H            3.210306192946     0.712312444989    -0.953476700727     1.007825032230
         H            1.766165192946     1.737752444989    -0.893158700727     1.007825032230
         H            3.118456192946     2.053181444989     0.207409299273     1.007825032230

  Basis Set: AUG-CC-PVTZ
    Blend: AUG-CC-PVTZ
  Basis Set: (AUG-CC-PVTZ AUX)
    Blend: AUG-CC-PVTZ-JKFIT
	 Reference Energy          =    -952.4490681356305686 [Eh]
	 Singles Energy            =      -0.0000000000000000 [Eh]
	 Same-Spin Energy          =      -0.2818535106464796 [Eh]
	 Opposite-Spin Energy      =      -0.9572580277198373 [Eh]
	 Correlation Energy        =      -1.2391115383663167 [Eh]
	 Total Energy              =    -953.6881796739968422 [Eh]

	 ================> DF-SCS-MP2 Energies <==================
	-----------------------------------------------------------
	 SCS Same-Spin Scale       =       0.3333333333333333 [-]
	 SCS Opposite-Spin Scale   =       1.2000000000000000 [-]
	 SCS Same-Spin Energy      =      -0.0939511702154932 [Eh]
	 SCS Opposite-Spin Energy  =      -1.1487096332638047 [Eh]
	 SCS Correlation Energy    =      -1.2426608034792979 [Eh]
	 SCS Total Energy          =    -953.6917289391099075 [Eh]
	-----------------------------------------------------------

  Dipole Moment: [D]
     X:    -0.2312      Y:     1.4066      Z:     1.4900     Total:     2.0621

*** Psi4 exiting successfully. Buy a developer a beer!
