                               Psi4 1.3.2 release

  ==> Input File <==

--------------------------------------------------------------------------
#psi4
#
memory 32 gb

molecule  {
0 1
  S       -0.6774373     0.0679658    -0.7878108
  S        0.9490790    -1.0924950     0.0459080
  C       -1.8138760    -0.0304820     0.6345850
  C        1.9109420     0.2797190     0.7637780
  C       -3.1055240     0.6383450     0.1798380
  C        2.5270550     1.2077640    -0.2710270
  H       -2.0036980    -1.0433510     0.9976740
  H       -1.3479990     0.5419670     1.4415090
  H        1.2751640     0.8312490     1.4628040
  H        2.6882710    -0.2183730     1.3542260
  H       -2.9201200     1.6535150    -0.1804290
  H       -3.5810360     0.0698190    -0.6233660
  H       -3.8066230     0.6970240     1.0170440
  H        3.1944500     0.6554300    -0.9366350
  H        1.7503090     1.6808700    -0.8763170
  H        3.1026000     1.9962990     0.2242510
units angstrom
no_reorient  #important for SAPT in psi4, default
symmetry c1  #important for SAPT in psi4, default
}

set PROPERTIES_ORIGIN ["COM"]
properties('MP2/aug-cc-pvtz', properties = ['dipole'])
--------------------------------------------------------------------------

    Molecular point group: c1
  Charge       = 0
  Multiplicity = 1
  Basis Set: AUG-CC-PVTZ
    Blend: AUG-CC-PVTZ
  Basis Set: (AUG-CC-PVTZ AUX)
    Blend: AUG-CC-PVTZ-JKFIT

    Orbital Energies [Eh]
    ---------------------

    Doubly Occupied:

       1A    -91.971114     2A    -91.970723     3A    -11.262297
       4A    -11.261761     5A    -11.228446     6A    -11.220741
       7A     -8.968897     8A     -8.968296     9A     -6.649758
      10A     -6.649144    11A     -6.648629    12A     -6.648108
      13A     -6.647699    14A     -6.647165    15A     -1.089916
      16A     -1.057565    17A     -0.966486    18A     -0.895220
      19A     -0.827027    20A     -0.774845    21A     -0.635968
      22A     -0.628694    23A     -0.593184    24A     -0.586780
      25A     -0.540758    26A     -0.537641    27A     -0.516088
      28A     -0.509428    29A     -0.478145    30A     -0.466386
      31A     -0.422373    32A     -0.354940    33A     -0.348914

  @DF-RHF Final Energy:  -952.44625894788555

   => Energetics <=

    Nuclear Repulsion Energy =            373.1813043486450852
    One-Electron Energy =               -2053.3088600008372850
    Two-Electron Energy =                 727.6812967043067601
    Total Energy =                       -952.4462589478855534
  Basis Set: (AUG-CC-PVTZ AUX)
    Blend: AUG-CC-PVTZ-RI
    Molecular point group: c1

    Geometry (in Angstrom), charge = 0, multiplicity = 1:

       Center              X                  Y                   Z               Mass
    ------------   -----------------  -----------------  -----------------  -----------------
         S           -0.687652873955     0.073653321387    -0.754022304660    31.972071174400
         S            0.938863426045    -1.086807478613     0.079696495340    31.972071174400
         C           -1.824091573955    -0.024794478613     0.668373495340    12.000000000000
         C            1.900726426045     0.285406521387     0.797566495340    12.000000000000
         C           -3.115739573955     0.644032521387     0.213626495340    12.000000000000
         C            2.516839426045     1.213451521387    -0.237238504660    12.000000000000
         H           -2.013913573955    -1.037663478613     1.031462495340     1.007825032230
         H           -1.358214573955     0.547654521387     1.475297495340     1.007825032230
         H            1.264948426045     0.836936521387     1.496592495340     1.007825032230
         H            2.678055426045    -0.212685478613     1.388014495340     1.007825032230
         H           -2.930335573955     1.659202521387    -0.146640504660     1.007825032230
         H           -3.591251573955     0.075506521387    -0.589577504660     1.007825032230
         H           -3.816838573955     0.702711521387     1.050832495340     1.007825032230
         H            3.184234426045     0.661117521387    -0.902846504660     1.007825032230
         H            1.740093426045     1.686557521387    -0.842528504660     1.007825032230
         H            3.092384426045     2.001986521387     0.258039495340     1.007825032230

  Basis Set: AUG-CC-PVTZ
    Blend: AUG-CC-PVTZ
  Basis Set: (AUG-CC-PVTZ AUX)
    Blend: AUG-CC-PVTZ-JKFIT
	 Reference Energy          =    -952.4462589478855534 [Eh]
	 Singles Energy            =      -0.0000000000000000 [Eh]
	 Same-Spin Energy          =      -0.2813237841225150 [Eh]
	 Opposite-Spin Energy      =      -0.9582858431687133 [Eh]
	 Correlation Energy        =      -1.2396096272912285 [Eh]
	 Total Energy              =    -953.6858685751767553 [Eh]

	 ================> DF-SCS-MP2 Energies <==================
	-----------------------------------------------------------
	 SCS Same-Spin Scale       =       0.3333333333333333 [-]
	 SCS Opposite-Spin Scale   =       1.2000000000000000 [-]
	 SCS Same-Spin Energy      =      -0.0937745947075050 [Eh]
	 SCS Opposite-Spin Energy  =      -1.1499430118024561 [Eh]
	 SCS Correlation Energy    =      -1.2437176065099611 [Eh]
	 SCS Total Energy          =    -953.6899765543955709 [Eh]
	-----------------------------------------------------------

  Dipole Moment: [D]
     X:    -0.2977      Y:     1.2047      Z:     1.6851     Total:     2.0927

*** Psi4 exiting successfully. Buy a developer a beer!
