                               Psi4 1.3.2 release

  ==> Input File <==

--------------------------------------------------------------------------
#psi4
#
memory 32 gb

molecule  {
0 1
  S       -0.6720688     0.0045648    -0.7864860
  S        0.9490790    -1.0924950     0.0459080
  C       -1.8138760    -0.0304820     0.6345850
  C        1.9109420     0.2797190     0.7637780
  C       -3.1055240     0.6383450     0.1798380
  C        2.5270550     1.2077640    -0.2710270
  H       -2.0036980    -1.0433510     0.9976740
  H       -1.3479990     0.5419670     1.4415090
  H        1.2751640     0.8312490     1.4628040
  H        2.6882710    -0.2183730     1.3542260
  H       -2.9201200     1.6535150    -0.1804290
  H       -3.5810360     0.0698190    -0.6233660
  H       -3.8066230     0.6970240     1.0170440
  H        3.1944500     0.6554300    -0.9366350
  H        1.7503090     1.6808700    -0.8763170
  H        3.1026000     1.9962990     0.2242510
units angstrom
no_reorient  #important for SAPT in psi4, default
symmetry c1  #important for SAPT in psi4, default
}

set PROPERTIES_ORIGIN ["COM"]
properties('MP2/aug-cc-pvtz', properties = ['dipole'])
--------------------------------------------------------------------------

    Molecular point group: c1
  Charge       = 0
  Multiplicity = 1
  Basis Set: AUG-CC-PVTZ
    Blend: AUG-CC-PVTZ
  Basis Set: (AUG-CC-PVTZ AUX)
    Blend: AUG-CC-PVTZ-JKFIT

    Orbital Energies [Eh]
    ---------------------

    Doubly Occupied:

       1A    -91.969794     2A    -91.969772     3A    -11.262186
       4A    -11.261536     5A    -11.228835     6A    -11.220919
       7A     -8.967942     8A     -8.967685     9A     -6.648888
      10A     -6.648580    11A     -6.647714    12A     -6.647530
      13A     -6.646799    14A     -6.646627    15A     -1.091956
      16A     -1.057281    17A     -0.970918    18A     -0.894979
      19A     -0.828899    20A     -0.772593    21A     -0.636501
      22A     -0.628295    23A     -0.594807    24A     -0.586387
      25A     -0.541341    26A     -0.537916    27A     -0.516339
      28A     -0.509586    29A     -0.482167    30A     -0.466129
      31A     -0.425876    32A     -0.352237    33A     -0.349742

  @DF-RHF Final Energy:  -952.45000968735462

   => Energetics <=

    Nuclear Repulsion Energy =            374.0044616450569492
    One-Electron Energy =               -2054.9514308660236566
    Two-Electron Energy =                 728.4969595336121984
    Total Energy =                       -952.4500096873546227
  Basis Set: (AUG-CC-PVTZ AUX)
    Blend: AUG-CC-PVTZ-RI
    Molecular point group: c1

    Geometry (in Angstrom), charge = 0, multiplicity = 1:

       Center              X                  Y                   Z               Mass
    ------------   -----------------  -----------------  -----------------  -----------------
         S           -0.683691017936     0.026864528705    -0.753044626192    31.972071174400
         S            0.937456782064    -1.070195271295     0.079349373808    31.972071174400
         C           -1.825498217936    -0.008182271295     0.668026373808    12.000000000000
         C            1.899319782064     0.302018728705     0.797219373808    12.000000000000
         C           -3.117146217936     0.660644728705     0.213279373808    12.000000000000
         C            2.515432782064     1.230063728705    -0.237585626192    12.000000000000
         H           -2.015320217936    -1.021051271295     1.031115373808     1.007825032230
         H           -1.359621217936     0.564266728705     1.474950373808     1.007825032230
         H            1.263541782064     0.853548728705     1.496245373808     1.007825032230
         H            2.676648782064    -0.196073271295     1.387667373808     1.007825032230
         H           -2.931742217936     1.675814728705    -0.146987626192     1.007825032230
         H           -3.592658217936     0.092118728705    -0.589924626192     1.007825032230
         H           -3.818245217936     0.719323728705     1.050485373808     1.007825032230
         H            3.182827782064     0.677729728705    -0.903193626192     1.007825032230
         H            1.738686782064     1.703169728705    -0.842875626192     1.007825032230
         H            3.090977782064     2.018598728705     0.257692373808     1.007825032230

  Basis Set: AUG-CC-PVTZ
    Blend: AUG-CC-PVTZ
  Basis Set: (AUG-CC-PVTZ AUX)
    Blend: AUG-CC-PVTZ-JKFIT
	 Reference Energy          =    -952.4500096873546227 [Eh]
	 Singles Energy            =      -0.0000000000000000 [Eh]
	 Same-Spin Energy          =      -0.2813415834597200 [Eh]
	 Opposite-Spin Energy      =      -0.9575839470717018 [Eh]
	 Correlation Energy        =      -1.2389255305314217 [Eh]
	 Total Energy              =    -953.6889352178860690 [Eh]

	 ================> DF-SCS-MP2 Energies <==================
	-----------------------------------------------------------
	 SCS Same-Spin Scale       =       0.3333333333333333 [-]
	 SCS Opposite-Spin Scale   =       1.2000000000000000 [-]
	 SCS Same-Spin Energy      =      -0.0937805278199067 [Eh]
	 SCS Opposite-Spin Energy  =      -1.1491007364860422 [Eh]
	 SCS Correlation Energy    =      -1.2428812643059488 [Eh]
	 SCS Total Energy          =    -953.6928909516606154 [Eh]
	-----------------------------------------------------------

  Dipole Moment: [D]
     X:    -0.2975      Y:     1.2485      Z:     1.6820     Total:     2.1158

*** Psi4 exiting successfully. Buy a developer a beer!
