                               Psi4 1.3.2 release

  ==> Input File <==

--------------------------------------------------------------------------
#psi4
#
memory 32 gb

molecule  {
0 1
  S       -0.6645459    -0.2486935    -0.7639209
  S        0.9490790    -1.0924950     0.0459080
  C       -1.8138760    -0.0304820     0.6345850
  C        1.9109420     0.2797190     0.7637780
  C       -3.1055240     0.6383450     0.1798380
  C        2.5270550     1.2077640    -0.2710270
  H       -2.0036980    -1.0433510     0.9976740
  H       -1.3479990     0.5419670     1.4415090
  H        1.2751640     0.8312490     1.4628040
  H        2.6882710    -0.2183730     1.3542260
  H       -2.9201200     1.6535150    -0.1804290
  H       -3.5810360     0.0698190    -0.6233660
  H       -3.8066230     0.6970240     1.0170440
  H        3.1944500     0.6554300    -0.9366350
  H        1.7503090     1.6808700    -0.8763170
  H        3.1026000     1.9962990     0.2242510
units angstrom
no_reorient  #important for SAPT in psi4, default
symmetry c1  #important for SAPT in psi4, default
}

set PROPERTIES_ORIGIN ["COM"]
properties('MP2/aug-cc-pvtz', properties = ['dipole'])
--------------------------------------------------------------------------

    Molecular point group: c1
  Charge       = 0
  Multiplicity = 1
  Basis Set: AUG-CC-PVTZ
    Blend: AUG-CC-PVTZ
  Basis Set: (AUG-CC-PVTZ AUX)
    Blend: AUG-CC-PVTZ-JKFIT

    Orbital Energies [Eh]
    ---------------------

    Doubly Occupied:

       1A    -91.965734     2A    -91.965011     3A    -11.261716
       4A    -11.260359     5A    -11.230585     6A    -11.221910
       7A     -8.965474     8A     -8.964861     9A     -6.646799
      10A     -6.646022    11A     -6.645291    12A     -6.644783
      13A     -6.644524    14A     -6.643953    15A     -1.102882
      16A     -1.056539    17A     -0.988313    18A     -0.894623
      19A     -0.836610    20A     -0.763611    21A     -0.638872
      22A     -0.626669    23A     -0.602125    24A     -0.584569
      25A     -0.544781    26A     -0.538800    27A     -0.519128
      28A     -0.510501    29A     -0.496600    30A     -0.463716
      31A     -0.437910    32A     -0.356045    33A     -0.336722

  @DF-RHF Final Energy:  -952.45191630053273

   => Energetics <=

    Nuclear Repulsion Energy =            377.0125633271694028
    One-Electron Energy =               -2060.9168813343330839
    Two-Electron Energy =                 731.4524017066310080
    Total Energy =                       -952.4519163005327300
  Basis Set: (AUG-CC-PVTZ AUX)
    Blend: AUG-CC-PVTZ-RI
    Molecular point group: c1

    Geometry (in Angstrom), charge = 0, multiplicity = 1:

       Center              X                  Y                   Z               Mass
    ------------   -----------------  -----------------  -----------------  -----------------
         S           -0.678139253634    -0.160035521667    -0.736391990023    31.972071174400
         S            0.935485646366    -1.003837021667     0.073436909977    31.972071174400
         C           -1.827469353634     0.058175978333     0.662113909977    12.000000000000
         C            1.897348646366     0.368376978333     0.791306909977    12.000000000000
         C           -3.119117353634     0.727002978333     0.207366909977    12.000000000000
         C            2.513461646366     1.296421978333    -0.243498090023    12.000000000000
         H           -2.017291353634    -0.954693021667     1.025202909977     1.007825032230
         H           -1.361592353634     0.630624978333     1.469037909977     1.007825032230
         H            1.261570646366     0.919906978333     1.490332909977     1.007825032230
         H            2.674677646366    -0.129715021667     1.381754909977     1.007825032230
         H           -2.933713353634     1.742172978333    -0.152900090023     1.007825032230
         H           -3.594629353634     0.158476978333    -0.595837090023     1.007825032230
         H           -3.820216353634     0.785681978333     1.044572909977     1.007825032230
         H            3.180856646366     0.744087978333    -0.909106090023     1.007825032230
         H            1.736715646366     1.769527978333    -0.848788090023     1.007825032230
         H            3.089006646366     2.084956978333     0.251779909977     1.007825032230

  Basis Set: AUG-CC-PVTZ
    Blend: AUG-CC-PVTZ
  Basis Set: (AUG-CC-PVTZ AUX)
    Blend: AUG-CC-PVTZ-JKFIT
	 Reference Energy          =    -952.4519163005327300 [Eh]
	 Singles Energy            =      -0.0000000000000000 [Eh]
	 Same-Spin Energy          =      -0.2819026048793785 [Eh]
	 Opposite-Spin Energy      =      -0.9559739284225163 [Eh]
	 Correlation Energy        =      -1.2378765333018946 [Eh]
	 Total Energy              =    -953.6897928338346446 [Eh]

	 ================> DF-SCS-MP2 Energies <==================
	-----------------------------------------------------------
	 SCS Same-Spin Scale       =       0.3333333333333333 [-]
	 SCS Opposite-Spin Scale   =       1.2000000000000000 [-]
	 SCS Same-Spin Energy      =      -0.0939675349597928 [Eh]
	 SCS Opposite-Spin Energy  =      -1.1471687141070195 [Eh]
	 SCS Correlation Energy    =      -1.2411362490668123 [Eh]
	 SCS Total Energy          =    -953.6930525495995425 [Eh]
	-----------------------------------------------------------

  Dipole Moment: [D]
     X:    -0.2981      Y:     1.4367      Z:     1.6579     Total:     2.2140

*** Psi4 exiting successfully. Buy a developer a beer!
