                               Psi4 1.3.2 release

  ==> Input File <==

--------------------------------------------------------------------------
#psi4
#
memory 32 gb

molecule  {
0 1
  S       -0.6655100    -0.1222880    -0.7786460
  S        0.9490790    -1.0924950     0.0459080
  C       -1.8138760    -0.0304820     0.6345850
  C        1.9109420     0.2797190     0.7637780
  C       -3.1055240     0.6383450     0.1798380
  C        2.5270550     1.2077640    -0.2710270
  H       -2.0036980    -1.0433510     0.9976740
  H       -1.3479990     0.5419670     1.4415090
  H        1.2751640     0.8312490     1.4628040
  H        2.6882710    -0.2183730     1.3542260
  H       -2.9201200     1.6535150    -0.1804290
  H       -3.5810360     0.0698190    -0.6233660
  H       -3.8066230     0.6970240     1.0170440
  H        3.1944500     0.6554300    -0.9366350
  H        1.7503090     1.6808700    -0.8763170
  H        3.1026000     1.9962990     0.2242510
units angstrom
no_reorient  #important for SAPT in psi4, default
symmetry c1  #important for SAPT in psi4, default
}

set PROPERTIES_ORIGIN ["COM"]
properties('MP2/aug-cc-pvtz', properties = ['dipole'])
--------------------------------------------------------------------------

    Molecular point group: c1
  Charge       = 0
  Multiplicity = 1
  Basis Set: AUG-CC-PVTZ
    Blend: AUG-CC-PVTZ
  Basis Set: (AUG-CC-PVTZ AUX)
    Blend: AUG-CC-PVTZ-JKFIT

    Orbital Energies [Eh]
    ---------------------

    Doubly Occupied:

       1A    -91.967802     2A    -91.967290     3A    -11.261939
       4A    -11.260996     5A    -11.229686     6A    -11.221364
       7A     -8.966589     8A     -8.966196     9A     -6.647712
      10A     -6.647217    11A     -6.646414    12A     -6.646084
      13A     -6.645577    14A     -6.645219    15A     -1.096904
      16A     -1.056824    17A     -0.979817    18A     -0.894666
      19A     -0.832758    20A     -0.768048    21A     -0.637635
      22A     -0.627497    23A     -0.598346    24A     -0.585523
      25A     -0.542816    26A     -0.538419    27A     -0.517387
      28A     -0.509986    29A     -0.489938    30A     -0.465204
      31A     -0.432196    32A     -0.352512    33A     -0.345170

  @DF-RHF Final Energy:  -952.45364513752907

   => Energetics <=

    Nuclear Repulsion Energy =            375.5794757686910543
    One-Electron Energy =               -2058.0827782626079170
    Two-Electron Energy =                 730.0496573563877973
    Total Energy =                       -952.4536451375290653
  Basis Set: (AUG-CC-PVTZ AUX)
    Blend: AUG-CC-PVTZ-RI
    Molecular point group: c1

    Geometry (in Angstrom), charge = 0, multiplicity = 1:

       Center              X                  Y                   Z               Mass
    ------------   -----------------  -----------------  -----------------  -----------------
         S           -0.678850742018    -0.066750546141    -0.747258847819    31.972071174400
         S            0.935738257982    -1.036957546141     0.077295152181    31.972071174400
         C           -1.827216742018     0.025055453859     0.665972152181    12.000000000000
         C            1.897601257982     0.335256453859     0.795165152181    12.000000000000
         C           -3.118864742018     0.693882453859     0.211225152181    12.000000000000
         C            2.513714257982     1.263301453859    -0.239639847819    12.000000000000
         H           -2.017038742018    -0.987813546141     1.029061152181     1.007825032230
         H           -1.361339742018     0.597504453859     1.472896152181     1.007825032230
         H            1.261823257982     0.886786453859     1.494191152181     1.007825032230
         H            2.674930257982    -0.162835546141     1.385613152181     1.007825032230
         H           -2.933460742018     1.709052453859    -0.149041847819     1.007825032230
         H           -3.594376742018     0.125356453859    -0.591978847819     1.007825032230
         H           -3.819963742018     0.752561453859     1.048431152181     1.007825032230
         H            3.181109257982     0.710967453859    -0.905247847819     1.007825032230
         H            1.736968257982     1.736407453859    -0.844929847819     1.007825032230
         H            3.089259257982     2.051836453859     0.255638152181     1.007825032230

  Basis Set: AUG-CC-PVTZ
    Blend: AUG-CC-PVTZ
  Basis Set: (AUG-CC-PVTZ AUX)
    Blend: AUG-CC-PVTZ-JKFIT
	 Reference Energy          =    -952.4536451375290653 [Eh]
	 Singles Energy            =      -0.0000000000000000 [Eh]
	 Same-Spin Energy          =      -0.2815349878654746 [Eh]
	 Opposite-Spin Energy      =      -0.9565528561107250 [Eh]
	 Correlation Energy        =      -1.2380878439761998 [Eh]
	 Total Energy              =    -953.6917329815053108 [Eh]

	 ================> DF-SCS-MP2 Energies <==================
	-----------------------------------------------------------
	 SCS Same-Spin Scale       =       0.3333333333333333 [-]
	 SCS Opposite-Spin Scale   =       1.2000000000000000 [-]
	 SCS Same-Spin Energy      =      -0.0938449959551582 [Eh]
	 SCS Opposite-Spin Energy  =      -1.1478634273328701 [Eh]
	 SCS Correlation Energy    =      -1.2417084232880282 [Eh]
	 SCS Total Energy          =    -953.6953535608171251 [Eh]
	-----------------------------------------------------------

  Dipole Moment: [D]
     X:    -0.2975      Y:     1.3400      Z:     1.6729     Total:     2.1639

*** Psi4 exiting successfully. Buy a developer a beer!
