                               Psi4 1.3.2 release

  ==> Input File <==

--------------------------------------------------------------------------
#psi4
#
memory 32 gb

molecule  {
0 1
  S       -0.6873205    -0.1080590    -0.7969349
  S        0.9490790    -1.0924950     0.0459080
  C       -1.8138760    -0.0304820     0.6345850
  C        1.9109420     0.2797190     0.7637780
  C       -3.1055240     0.6383450     0.1798380
  C        2.5270550     1.2077640    -0.2710270
  H       -2.0036980    -1.0433510     0.9976740
  H       -1.3479990     0.5419670     1.4415090
  H        1.2751640     0.8312490     1.4628040
  H        2.6882710    -0.2183730     1.3542260
  H       -2.9201200     1.6535150    -0.1804290
  H       -3.5810360     0.0698190    -0.6233660
  H       -3.8066230     0.6970240     1.0170440
  H        3.1944500     0.6554300    -0.9366350
  H        1.7503090     1.6808700    -0.8763170
  H        3.1026000     1.9962990     0.2242510
units angstrom
no_reorient  #important for SAPT in psi4, default
symmetry c1  #important for SAPT in psi4, default
}

set PROPERTIES_ORIGIN ["COM"]
properties('MP2/aug-cc-pvtz', properties = ['dipole'])
--------------------------------------------------------------------------

    Molecular point group: c1
  Charge       = 0
  Multiplicity = 1
  Basis Set: AUG-CC-PVTZ
    Blend: AUG-CC-PVTZ
  Basis Set: (AUG-CC-PVTZ AUX)
    Blend: AUG-CC-PVTZ-JKFIT

    Orbital Energies [Eh]
    ---------------------

    Doubly Occupied:

       1A    -91.968958     2A    -91.968389     3A    -11.262386
       4A    -11.261358     5A    -11.229395     6A    -11.221381
       7A     -8.967444     8A     -8.966746     9A     -6.648459
      10A     -6.647744    11A     -6.647262    12A     -6.646604
      13A     -6.646380    14A     -6.645738    15A     -1.094237
      16A     -1.057240    17A     -0.976094    18A     -0.894925
      19A     -0.831319    20A     -0.770034    21A     -0.637509
      22A     -0.627517    23A     -0.597729    24A     -0.585478
      25A     -0.542135    26A     -0.538320    27A     -0.517055
      28A     -0.509789    29A     -0.487750    30A     -0.464688
      31A     -0.429349    32A     -0.353354    33A     -0.346417

  @DF-RHF Final Energy:  -952.45297896445652

   => Energetics <=

    Nuclear Repulsion Energy =            374.4683559085521551
    One-Electron Energy =               -2055.8643071996507388
    Two-Electron Energy =                 728.9429723266420069
    Total Energy =                       -952.4529789644565199
  Basis Set: (AUG-CC-PVTZ AUX)
    Blend: AUG-CC-PVTZ-RI
    Molecular point group: c1

    Geometry (in Angstrom), charge = 0, multiplicity = 1:

       Center              X                  Y                   Z               Mass
    ------------   -----------------  -----------------  -----------------  -----------------
         S           -0.694946497019    -0.056249801183    -0.760755725636    31.972071174400
         S            0.941453002981    -1.040685801183     0.082087174364    31.972071174400
         C           -1.821501997019     0.021327198817     0.670764174364    12.000000000000
         C            1.903316002981     0.331528198817     0.799957174364    12.000000000000
         C           -3.113149997019     0.690154198817     0.216017174364    12.000000000000
         C            2.519429002981     1.259573198817    -0.234847825636    12.000000000000
         H           -2.011323997019    -0.991541801183     1.033853174364     1.007825032230
         H           -1.355624997019     0.593776198817     1.477688174364     1.007825032230
         H            1.267538002981     0.883058198817     1.498983174364     1.007825032230
         H            2.680645002981    -0.166563801183     1.390405174364     1.007825032230
         H           -2.927745997019     1.705324198817    -0.144249825636     1.007825032230
         H           -3.588661997019     0.121628198817    -0.587186825636     1.007825032230
         H           -3.814248997019     0.748833198817     1.053223174364     1.007825032230
         H            3.186824002981     0.707239198817    -0.900455825636     1.007825032230
         H            1.742683002981     1.732679198817    -0.840137825636     1.007825032230
         H            3.094974002981     2.048108198817     0.260430174364     1.007825032230

  Basis Set: AUG-CC-PVTZ
    Blend: AUG-CC-PVTZ
  Basis Set: (AUG-CC-PVTZ AUX)
    Blend: AUG-CC-PVTZ-JKFIT
	 Reference Energy          =    -952.4529789644565199 [Eh]
	 Singles Energy            =      -0.0000000000000000 [Eh]
	 Same-Spin Energy          =      -0.2813004433447056 [Eh]
	 Opposite-Spin Energy      =      -0.9567710750076726 [Eh]
	 Correlation Energy        =      -1.2380715183523781 [Eh]
	 Total Energy              =    -953.6910504828089188 [Eh]

	 ================> DF-SCS-MP2 Energies <==================
	-----------------------------------------------------------
	 SCS Same-Spin Scale       =       0.3333333333333333 [-]
	 SCS Opposite-Spin Scale   =       1.2000000000000000 [-]
	 SCS Same-Spin Energy      =      -0.0937668144482352 [Eh]
	 SCS Opposite-Spin Energy  =      -1.1481252900092069 [Eh]
	 SCS Correlation Energy    =      -1.2418921044574420 [Eh]
	 SCS Total Energy          =    -953.6948710689139261 [Eh]
	-----------------------------------------------------------

  Dipole Moment: [D]
     X:    -0.2962      Y:     1.3432      Z:     1.6799     Total:     2.1712

*** Psi4 exiting successfully. Buy a developer a beer!
