                               Psi4 1.3.2 release

  ==> Input File <==

--------------------------------------------------------------------------
#psi4
#
memory 32 gb

molecule  {
0 1
  S       -0.6661645    -0.3115360    -0.7539976
  S        0.9490790    -1.0924950     0.0459080
  C       -1.8138760    -0.0304820     0.6345850
  C        1.9109420     0.2797190     0.7637780
  C       -3.1055240     0.6383450     0.1798380
  C        2.5270550     1.2077640    -0.2710270
  H       -2.0036980    -1.0433510     0.9976740
  H       -1.3479990     0.5419670     1.4415090
  H        1.2751640     0.8312490     1.4628040
  H        2.6882710    -0.2183730     1.3542260
  H       -2.9201200     1.6535150    -0.1804290
  H       -3.5810360     0.0698190    -0.6233660
  H       -3.8066230     0.6970240     1.0170440
  H        3.1944500     0.6554300    -0.9366350
  H        1.7503090     1.6808700    -0.8763170
  H        3.1026000     1.9962990     0.2242510
units angstrom
no_reorient  #important for SAPT in psi4, default
symmetry c1  #important for SAPT in psi4, default
}

set PROPERTIES_ORIGIN ["COM"]
properties('MP2/aug-cc-pvtz', properties = ['dipole'])
--------------------------------------------------------------------------

    Molecular point group: c1
  Charge       = 0
  Multiplicity = 1
  Basis Set: AUG-CC-PVTZ
    Blend: AUG-CC-PVTZ
  Basis Set: (AUG-CC-PVTZ AUX)
    Blend: AUG-CC-PVTZ-JKFIT

    Orbital Energies [Eh]
    ---------------------

    Doubly Occupied:

       1A    -91.964656     2A    -91.963975     3A    -11.261650
       4A    -11.260023     5A    -11.231037     6A    -11.222212
       7A     -8.964915     8A     -8.964329     9A     -6.646368
      10A     -6.645545    11A     -6.644715    12A     -6.644257
      13A     -6.643975    14A     -6.643445    15A     -1.106157
      16A     -1.056469    17A     -0.992248    18A     -0.894714
      19A     -0.838482    20A     -0.761496    21A     -0.639539
      22A     -0.626235    23A     -0.604033    24A     -0.584066
      25A     -0.545956    26A     -0.538933    27A     -0.520214
      28A     -0.510794    29A     -0.499364    30A     -0.462755
      31A     -0.440581    32A     -0.358165    33A     -0.331966

  @DF-RHF Final Energy:  -952.44904762635986

   => Energetics <=

    Nuclear Repulsion Energy =            377.6560277732085069
    One-Electron Energy =               -2062.1836112711671376
    Two-Electron Energy =                 732.0785358715987741
    Total Energy =                       -952.4490476263598566
  Basis Set: (AUG-CC-PVTZ AUX)
    Blend: AUG-CC-PVTZ-RI
    Molecular point group: c1

    Geometry (in Angstrom), charge = 0, multiplicity = 1:

       Center              X                  Y                   Z               Mass
    ------------   -----------------  -----------------  -----------------  -----------------
         S           -0.679333751195    -0.206412151437    -0.729068773884    31.972071174400
         S            0.935909748805    -0.987371151437     0.070836826116    31.972071174400
         C           -1.827045251195     0.074641848563     0.659513826116    12.000000000000
         C            1.897772748805     0.384842848563     0.788706826116    12.000000000000
         C           -3.118693251195     0.743468848563     0.204766826116    12.000000000000
         C            2.513885748805     1.312887848563    -0.246098173884    12.000000000000
         H           -2.016867251195    -0.938227151437     1.022602826116     1.007825032230
         H           -1.361168251195     0.647090848563     1.466437826116     1.007825032230
         H            1.261994748805     0.936372848563     1.487732826116     1.007825032230
         H            2.675101748805    -0.113249151437     1.379154826116     1.007825032230
         H           -2.933289251195     1.758638848563    -0.155500173884     1.007825032230
         H           -3.594205251195     0.174942848563    -0.598437173884     1.007825032230
         H           -3.819792251195     0.802147848563     1.041972826116     1.007825032230
         H            3.181280748805     0.760553848563    -0.911706173884     1.007825032230
         H            1.737139748805     1.785993848563    -0.851388173884     1.007825032230
         H            3.089430748805     2.101422848563     0.249179826116     1.007825032230

  Basis Set: AUG-CC-PVTZ
    Blend: AUG-CC-PVTZ
  Basis Set: (AUG-CC-PVTZ AUX)
    Blend: AUG-CC-PVTZ-JKFIT
	 Reference Energy          =    -952.4490476263598566 [Eh]
	 Singles Energy            =      -0.0000000000000000 [Eh]
	 Same-Spin Energy          =      -0.2821356611091807 [Eh]
	 Opposite-Spin Energy      =      -0.9558354872759636 [Eh]
	 Correlation Energy        =      -1.2379711483851443 [Eh]
	 Total Energy              =    -953.6870187747449563 [Eh]

	 ================> DF-SCS-MP2 Energies <==================
	-----------------------------------------------------------
	 SCS Same-Spin Scale       =       0.3333333333333333 [-]
	 SCS Opposite-Spin Scale   =       1.2000000000000000 [-]
	 SCS Same-Spin Energy      =      -0.0940452203697269 [Eh]
	 SCS Opposite-Spin Energy  =      -1.1470025847311562 [Eh]
	 SCS Correlation Energy    =      -1.2410478051008831 [Eh]
	 SCS Total Energy          =    -953.6900954314606906 [Eh]
	-----------------------------------------------------------

  Dipole Moment: [D]
     X:    -0.2990      Y:     1.4870      Z:     1.6480     Total:     2.2398

*** Psi4 exiting successfully. Buy a developer a beer!
