                               Psi4 1.3.2 release

  ==> Input File <==

--------------------------------------------------------------------------
#psi4
#
memory 32 gb

molecule  {
0 1
  S       -0.5422180    -0.2069236    -0.6600768
  S        0.9490790    -1.0924950     0.0459080
  C       -1.8138760    -0.0304820     0.6345850
  C        1.9109420     0.2797190     0.7637780
  C       -3.1055240     0.6383450     0.1798380
  C        2.5270550     1.2077640    -0.2710270
  H       -2.0036980    -1.0433510     0.9976740
  H       -1.3479990     0.5419670     1.4415090
  H        1.2751640     0.8312490     1.4628040
  H        2.6882710    -0.2183730     1.3542260
  H       -2.9201200     1.6535150    -0.1804290
  H       -3.5810360     0.0698190    -0.6233660
  H       -3.8066230     0.6970240     1.0170440
  H        3.1944500     0.6554300    -0.9366350
  H        1.7503090     1.6808700    -0.8763170
  H        3.1026000     1.9962990     0.2242510
units angstrom
no_reorient  #important for SAPT in psi4, default
symmetry c1  #important for SAPT in psi4, default
}

set PROPERTIES_ORIGIN ["COM"]
properties('MP2/aug-cc-pvtz', properties = ['dipole'])
--------------------------------------------------------------------------

    Molecular point group: c1
  Charge       = 0
  Multiplicity = 1
  Basis Set: AUG-CC-PVTZ
    Blend: AUG-CC-PVTZ
  Basis Set: (AUG-CC-PVTZ AUX)
    Blend: AUG-CC-PVTZ-JKFIT

    Orbital Energies [Eh]
    ---------------------

    Doubly Occupied:

       1A    -91.963772     2A    -91.955666     3A    -11.258175
       4A    -11.258035     5A    -11.231467     6A    -11.221322
       7A     -8.966040     8A     -8.958617     9A     -6.647692
      10A     -6.645732    11A     -6.645093    12A     -6.640252
      13A     -6.638503    14A     -6.637786    15A     -1.122856
      16A     -1.054298    17A     -1.001235    18A     -0.893143
      19A     -0.841604    20A     -0.755065    21A     -0.638545
      22A     -0.627363    23A     -0.602852    24A     -0.585983
      25A     -0.549448    26A     -0.538273    27A     -0.520267
      28A     -0.513009    29A     -0.499462    30A     -0.472529
      31A     -0.447393    32A     -0.345080    33A     -0.334861

  @DF-RHF Final Energy:  -952.43674801131635

   => Energetics <=

    Nuclear Repulsion Energy =            382.8800760450022267
    One-Electron Energy =               -2072.6108180167284445
    Two-Electron Energy =                 737.2939939604099209
    Total Energy =                       -952.4367480113163538
  Basis Set: (AUG-CC-PVTZ AUX)
    Blend: AUG-CC-PVTZ-RI
    Molecular point group: c1

    Geometry (in Angstrom), charge = 0, multiplicity = 1:

       Center              X                  Y                   Z               Mass
    ------------   -----------------  -----------------  -----------------  -----------------
         S           -0.587863473248    -0.129210090026    -0.659756920133    31.972071174400
         S            0.903433526752    -1.014781490026     0.046227879867    31.972071174400
         C           -1.859521473248     0.047231509974     0.634904879867    12.000000000000
         C            1.865296526752     0.357432509974     0.764097879867    12.000000000000
         C           -3.151169473248     0.716058509974     0.180157879867    12.000000000000
         C            2.481409526752     1.285477509974    -0.270707120133    12.000000000000
         H           -2.049343473248    -0.965637490026     0.997993879867     1.007825032230
         H           -1.393644473248     0.619680509974     1.441828879867     1.007825032230
         H            1.229518526752     0.908962509974     1.463123879867     1.007825032230
         H            2.642625526752    -0.140659490026     1.354545879867     1.007825032230
         H           -2.965765473248     1.731228509974    -0.180109120133     1.007825032230
         H           -3.626681473248     0.147532509974    -0.623046120133     1.007825032230
         H           -3.852268473248     0.774737509974     1.017363879867     1.007825032230
         H            3.148804526752     0.733143509974    -0.936315120133     1.007825032230
         H            1.704663526752     1.758583509974    -0.875997120133     1.007825032230
         H            3.056954526752     2.074012509974     0.224570879867     1.007825032230

  Basis Set: AUG-CC-PVTZ
    Blend: AUG-CC-PVTZ
  Basis Set: (AUG-CC-PVTZ AUX)
    Blend: AUG-CC-PVTZ-JKFIT
	 Reference Energy          =    -952.4367480113163538 [Eh]
	 Singles Energy            =      -0.0000000000000000 [Eh]
	 Same-Spin Energy          =      -0.2838017721120487 [Eh]
	 Opposite-Spin Energy      =      -0.9566882649007000 [Eh]
	 Correlation Energy        =      -1.2404900370127487 [Eh]
	 Total Energy              =    -953.6772380483290590 [Eh]

	 ================> DF-SCS-MP2 Energies <==================
	-----------------------------------------------------------
	 SCS Same-Spin Scale       =       0.3333333333333333 [-]
	 SCS Opposite-Spin Scale   =       1.2000000000000000 [-]
	 SCS Same-Spin Energy      =      -0.0946005907040162 [Eh]
	 SCS Opposite-Spin Energy  =      -1.1480259178808401 [Eh]
	 SCS Correlation Energy    =      -1.2426265085848562 [Eh]
	 SCS Total Energy          =    -953.6793745199012164 [Eh]
	-----------------------------------------------------------

  Dipole Moment: [D]
     X:    -0.2857      Y:     1.2972      Z:     1.6127     Total:     2.0893

*** Psi4 exiting successfully. Buy a developer a beer!
