                               Psi4 1.3.2 release

  ==> Input File <==

--------------------------------------------------------------------------
#psi4
#
memory 32 gb

molecule  {
0 1
  S       -0.6666260    -0.0905926    -0.7812535
  S        0.9490790    -1.0924950     0.0459080
  C       -1.8138760    -0.0304820     0.6345850
  C        1.9109420     0.2797190     0.7637780
  C       -3.1055240     0.6383450     0.1798380
  C        2.5270550     1.2077640    -0.2710270
  H       -2.0036980    -1.0433510     0.9976740
  H       -1.3479990     0.5419670     1.4415090
  H        1.2751640     0.8312490     1.4628040
  H        2.6882710    -0.2183730     1.3542260
  H       -2.9201200     1.6535150    -0.1804290
  H       -3.5810360     0.0698190    -0.6233660
  H       -3.8066230     0.6970240     1.0170440
  H        3.1944500     0.6554300    -0.9366350
  H        1.7503090     1.6808700    -0.8763170
  H        3.1026000     1.9962990     0.2242510
units angstrom
no_reorient  #important for SAPT in psi4, default
symmetry c1  #important for SAPT in psi4, default
}

set PROPERTIES_ORIGIN ["COM"]
properties('MP2/aug-cc-pvtz', properties = ['dipole'])
--------------------------------------------------------------------------

    Molecular point group: c1
  Charge       = 0
  Multiplicity = 1
  Basis Set: AUG-CC-PVTZ
    Blend: AUG-CC-PVTZ
  Basis Set: (AUG-CC-PVTZ AUX)
    Blend: AUG-CC-PVTZ-JKFIT

    Orbital Energies [Eh]
    ---------------------

    Doubly Occupied:

       1A    -91.968303     2A    -91.967897     3A    -11.262002
       4A    -11.261142     5A    -11.229467     6A    -11.221242
       7A     -8.966877     8A     -8.966582     9A     -6.647959
      10A     -6.647564    11A     -6.646695    12A     -6.646460
      13A     -6.645837    14A     -6.645585    15A     -1.095562
      16A     -1.056923    17A     -0.977609    18A     -0.894721
      19A     -0.831787    20A     -0.769182    21A     -0.637342
      22A     -0.627698    23A     -0.597431    24A     -0.585748
      25A     -0.542404    26A     -0.538302    27A     -0.517058
      28A     -0.509874    29A     -0.488070    30A     -0.465487
      31A     -0.430684    32A     -0.351800    33A     -0.347021

  @DF-RHF Final Energy:  -952.45323327278038

   => Energetics <=

    Nuclear Repulsion Energy =            375.1967058250482978
    One-Electron Energy =               -2057.3232512547824626
    Two-Electron Energy =                 729.6733121569536706
    Total Energy =                       -952.4532332727803805
  Basis Set: (AUG-CC-PVTZ AUX)
    Blend: AUG-CC-PVTZ-RI
    Molecular point group: c1

    Geometry (in Angstrom), charge = 0, multiplicity = 1:

       Center              X                  Y                   Z               Mass
    ------------   -----------------  -----------------  -----------------  -----------------
         S           -0.679674329858    -0.043359913508    -0.749183135715    31.972071174400
         S            0.936030670142    -1.045262313508     0.077978364285    31.972071174400
         C           -1.826924329858     0.016750686492     0.666655364285    12.000000000000
         C            1.897893670142     0.326951686492     0.795848364285    12.000000000000
         C           -3.118572329858     0.685577686492     0.211908364285    12.000000000000
         C            2.514006670142     1.254996686492    -0.238956635715    12.000000000000
         H           -2.016746329858    -0.996118313508     1.029744364285     1.007825032230
         H           -1.361047329858     0.589199686492     1.473579364285     1.007825032230
         H            1.262115670142     0.878481686492     1.494874364285     1.007825032230
         H            2.675222670142    -0.171140313508     1.386296364285     1.007825032230
         H           -2.933168329858     1.700747686492    -0.148358635715     1.007825032230
         H           -3.594084329858     0.117051686492    -0.591295635715     1.007825032230
         H           -3.819671329858     0.744256686492     1.049114364285     1.007825032230
         H            3.181401670142     0.702662686492    -0.904564635715     1.007825032230
         H            1.737260670142     1.728102686492    -0.844246635715     1.007825032230
         H            3.089551670142     2.043531686492     0.256321364285     1.007825032230

  Basis Set: AUG-CC-PVTZ
    Blend: AUG-CC-PVTZ
  Basis Set: (AUG-CC-PVTZ AUX)
    Blend: AUG-CC-PVTZ-JKFIT
	 Reference Energy          =    -952.4532332727803805 [Eh]
	 Singles Energy            =      -0.0000000000000000 [Eh]
	 Same-Spin Energy          =      -0.2814684513890528 [Eh]
	 Opposite-Spin Energy      =      -0.9567660062796541 [Eh]
	 Correlation Energy        =      -1.2382344576687070 [Eh]
	 Total Energy              =    -953.6914677304490624 [Eh]

	 ================> DF-SCS-MP2 Energies <==================
	-----------------------------------------------------------
	 SCS Same-Spin Scale       =       0.3333333333333333 [-]
	 SCS Opposite-Spin Scale   =       1.2000000000000000 [-]
	 SCS Same-Spin Energy      =      -0.0938228171296843 [Eh]
	 SCS Opposite-Spin Energy  =      -1.1481192075355848 [Eh]
	 SCS Correlation Energy    =      -1.2419420246652690 [Eh]
	 SCS Total Energy          =    -953.6951752974456440 [Eh]
	-----------------------------------------------------------

  Dipole Moment: [D]
     X:    -0.2975      Y:     1.3166      Z:     1.6756     Total:     2.1517

*** Psi4 exiting successfully. Buy a developer a beer!
