                               Psi4 1.3.2 release

  ==> Input File <==

--------------------------------------------------------------------------
#psi4
#
memory 32 gb

molecule  {
0 1
  S       -0.6440493    -0.1364890    -0.7599267
  S        0.9490790    -1.0924950     0.0459080
  C       -1.8138760    -0.0304820     0.6345850
  C        1.9109420     0.2797190     0.7637780
  C       -3.1055240     0.6383450     0.1798380
  C        2.5270550     1.2077640    -0.2710270
  H       -2.0036980    -1.0433510     0.9976740
  H       -1.3479990     0.5419670     1.4415090
  H        1.2751640     0.8312490     1.4628040
  H        2.6882710    -0.2183730     1.3542260
  H       -2.9201200     1.6535150    -0.1804290
  H       -3.5810360     0.0698190    -0.6233660
  H       -3.8066230     0.6970240     1.0170440
  H        3.1944500     0.6554300    -0.9366350
  H        1.7503090     1.6808700    -0.8763170
  H        3.1026000     1.9962990     0.2242510
units angstrom
no_reorient  #important for SAPT in psi4, default
symmetry c1  #important for SAPT in psi4, default
}

set PROPERTIES_ORIGIN ["COM"]
properties('MP2/aug-cc-pvtz', properties = ['dipole'])
--------------------------------------------------------------------------

    Molecular point group: c1
  Charge       = 0
  Multiplicity = 1
  Basis Set: AUG-CC-PVTZ
    Blend: AUG-CC-PVTZ
  Basis Set: (AUG-CC-PVTZ AUX)
    Blend: AUG-CC-PVTZ-JKFIT

    Orbital Energies [Eh]
    ---------------------

    Doubly Occupied:

       1A    -91.967190     2A    -91.965549     3A    -11.261447
       4A    -11.260601     5A    -11.229983     6A    -11.221349
       7A     -8.966402     8A     -8.964980     9A     -6.647570
      10A     -6.646283    11A     -6.646056    12A     -6.645434
      13A     -6.644882    14A     -6.644032    15A     -1.099980
      16A     -1.056407    17A     -0.983560    18A     -0.894403
      19A     -0.834227    20A     -0.766003    21A     -0.637768
      22A     -0.627479    23A     -0.599004    24A     -0.585575
      25A     -0.543601    26A     -0.538491    27A     -0.517751
      28A     -0.510251    29A     -0.492026    30A     -0.465909
      31A     -0.434915    32A     -0.351603    33A     -0.343775

  @DF-RHF Final Energy:  -952.45347854147610

   => Energetics <=

    Nuclear Repulsion Energy =            376.7206121911931405
    One-Electron Energy =               -2060.3592148814559550
    Two-Electron Energy =                 731.1851241487867128
    Total Energy =                       -952.4534785414761018
  Basis Set: (AUG-CC-PVTZ AUX)
    Blend: AUG-CC-PVTZ-RI
    Molecular point group: c1

    Geometry (in Angstrom), charge = 0, multiplicity = 1:

       Center              X                  Y                   Z               Mass
    ------------   -----------------  -----------------  -----------------  -----------------
         S           -0.663013133099    -0.077230627604    -0.733444342577    31.972071174400
         S            0.930115166901    -1.033236627604     0.072390357423    31.972071174400
         C           -1.832839833099     0.028776372396     0.661067357423    12.000000000000
         C            1.891978166901     0.338977372396     0.790260357423    12.000000000000
         C           -3.124487833099     0.697603372396     0.206320357423    12.000000000000
         C            2.508091166901     1.267022372396    -0.244544642577    12.000000000000
         H           -2.022661833099    -0.984092627604     1.024156357423     1.007825032230
         H           -1.366962833099     0.601225372396     1.467991357423     1.007825032230
         H            1.256200166901     0.890507372396     1.489286357423     1.007825032230
         H            2.669307166901    -0.159114627604     1.380708357423     1.007825032230
         H           -2.939083833099     1.712773372396    -0.153946642577     1.007825032230
         H           -3.599999833099     0.129077372396    -0.596883642577     1.007825032230
         H           -3.825586833099     0.756282372396     1.043526357423     1.007825032230
         H            3.175486166901     0.714688372396    -0.910152642577     1.007825032230
         H            1.731345166901     1.740128372396    -0.849834642577     1.007825032230
         H            3.083636166901     2.055557372396     0.250733357423     1.007825032230

  Basis Set: AUG-CC-PVTZ
    Blend: AUG-CC-PVTZ
  Basis Set: (AUG-CC-PVTZ AUX)
    Blend: AUG-CC-PVTZ-JKFIT
	 Reference Energy          =    -952.4534785414761018 [Eh]
	 Singles Energy            =      -0.0000000000000000 [Eh]
	 Same-Spin Energy          =      -0.2818103093960875 [Eh]
	 Opposite-Spin Energy      =      -0.9564031533266211 [Eh]
	 Correlation Energy        =      -1.2382134627227086 [Eh]
	 Total Energy              =    -953.6916920041987851 [Eh]

	 ================> DF-SCS-MP2 Energies <==================
	-----------------------------------------------------------
	 SCS Same-Spin Scale       =       0.3333333333333333 [-]
	 SCS Opposite-Spin Scale   =       1.2000000000000000 [-]
	 SCS Same-Spin Energy      =      -0.0939367697986958 [Eh]
	 SCS Opposite-Spin Energy  =      -1.1476837839919452 [Eh]
	 SCS Correlation Energy    =      -1.2416205537906411 [Eh]
	 SCS Total Energy          =    -953.6950990952667553 [Eh]
	-----------------------------------------------------------

  Dipole Moment: [D]
     X:    -0.2979      Y:     1.3358      Z:     1.6653     Total:     2.1555

*** Psi4 exiting successfully. Buy a developer a beer!
