                               Psi4 1.3.2 release

  ==> Input File <==

--------------------------------------------------------------------------
#psi4
#
memory 32 gb

molecule  {
0 1
  S       -0.6655100    -0.1222880    -0.7786460
  S        0.9317050    -1.0940917     0.0772690
  C       -1.8138760    -0.0304820     0.6345850
  C        1.9109420     0.2797190     0.7637780
  C       -3.1055240     0.6383450     0.1798380
  C        2.5270550     1.2077640    -0.2710270
  H       -2.0036980    -1.0433510     0.9976740
  H       -1.3479990     0.5419670     1.4415090
  H        1.2751640     0.8312490     1.4628040
  H        2.6882710    -0.2183730     1.3542260
  H       -2.9201200     1.6535150    -0.1804290
  H       -3.5810360     0.0698190    -0.6233660
  H       -3.8066230     0.6970240     1.0170440
  H        3.1944500     0.6554300    -0.9366350
  H        1.7503090     1.6808700    -0.8763170
  H        3.1026000     1.9962990     0.2242510
units angstrom
no_reorient  #important for SAPT in psi4, default
symmetry c1  #important for SAPT in psi4, default
}

set PROPERTIES_ORIGIN ["COM"]
properties('MP2/aug-cc-pvtz', properties = ['dipole'])
--------------------------------------------------------------------------

    Molecular point group: c1
  Charge       = 0
  Multiplicity = 1
  Basis Set: AUG-CC-PVTZ
    Blend: AUG-CC-PVTZ
  Basis Set: (AUG-CC-PVTZ AUX)
    Blend: AUG-CC-PVTZ-JKFIT

    Orbital Energies [Eh]
    ---------------------

    Doubly Occupied:

       1A    -91.967456     2A    -91.967424     3A    -11.261757
       4A    -11.260799     5A    -11.229365     6A    -11.221752
       7A     -8.966446     8A     -8.966200     9A     -6.647578
      10A     -6.647209    11A     -6.646269    12A     -6.646091
      13A     -6.645393    14A     -6.645259    15A     -1.097153
      16A     -1.056624    17A     -0.979973    18A     -0.895201
      19A     -0.832296    20A     -0.767751    21A     -0.637588
      22A     -0.627287    23A     -0.597989    24A     -0.585875
      25A     -0.542794    26A     -0.539002    27A     -0.517390
      28A     -0.510040    29A     -0.488856    30A     -0.466192
      31A     -0.432078    32A     -0.350813    33A     -0.346789

  @DF-RHF Final Energy:  -952.45349554002166

   => Energetics <=

    Nuclear Repulsion Energy =            375.7167562002396721
    One-Electron Energy =               -2058.3591263187390723
    Two-Electron Energy =                 730.1888745784777939
    Total Energy =                       -952.4534955400216631
  Basis Set: (AUG-CC-PVTZ AUX)
    Blend: AUG-CC-PVTZ-RI
    Molecular point group: c1

    Geometry (in Angstrom), charge = 0, multiplicity = 1:

       Center              X                  Y                   Z               Mass
    ------------   -----------------  -----------------  -----------------  -----------------
         S           -0.674298440163    -0.066332181897    -0.755475996345    31.972071174400
         S            0.922916559837    -1.038135881897     0.100439003655    31.972071174400
         C           -1.822664440163     0.025473818103     0.657755003655    12.000000000000
         C            1.902153559837     0.335674818103     0.786948003655    12.000000000000
         C           -3.114312440163     0.694300818103     0.203008003655    12.000000000000
         C            2.518266559837     1.263719818103    -0.247856996345    12.000000000000
         H           -2.012486440163    -0.987395181897     1.020844003655     1.007825032230
         H           -1.356787440163     0.597922818103     1.464679003655     1.007825032230
         H            1.266375559837     0.887204818103     1.485974003655     1.007825032230
         H            2.679482559837    -0.162417181897     1.377396003655     1.007825032230
         H           -2.928908440163     1.709470818103    -0.157258996345     1.007825032230
         H           -3.589824440163     0.125774818103    -0.600195996345     1.007825032230
         H           -3.815411440163     0.752979818103     1.040214003655     1.007825032230
         H            3.185661559837     0.711385818103    -0.913464996345     1.007825032230
         H            1.741520559837     1.736825818103    -0.853146996345     1.007825032230
         H            3.093811559837     2.052254818103     0.247421003655     1.007825032230

  Basis Set: AUG-CC-PVTZ
    Blend: AUG-CC-PVTZ
  Basis Set: (AUG-CC-PVTZ AUX)
    Blend: AUG-CC-PVTZ-JKFIT
	 Reference Energy          =    -952.4534955400216631 [Eh]
	 Singles Energy            =      -0.0000000000000000 [Eh]
	 Same-Spin Energy          =      -0.2815724469238831 [Eh]
	 Opposite-Spin Energy      =      -0.9566076478300035 [Eh]
	 Correlation Energy        =      -1.2381800947538866 [Eh]
	 Total Energy              =    -953.6916756347756063 [Eh]

	 ================> DF-SCS-MP2 Energies <==================
	-----------------------------------------------------------
	 SCS Same-Spin Scale       =       0.3333333333333333 [-]
	 SCS Opposite-Spin Scale   =       1.2000000000000000 [-]
	 SCS Same-Spin Energy      =      -0.0938574823079610 [Eh]
	 SCS Opposite-Spin Energy  =      -1.1479291773960041 [Eh]
	 SCS Correlation Energy    =      -1.2417866597039651 [Eh]
	 SCS Total Energy          =    -953.6952821997256251 [Eh]
	-----------------------------------------------------------

  Dipole Moment: [D]
     X:    -0.2879      Y:     1.3518      Z:     1.6431     Total:     2.1471

*** Psi4 exiting successfully. Buy a developer a beer!
