                               Psi4 1.3.2 release

  ==> Input File <==

--------------------------------------------------------------------------
#psi4
#
memory 32 gb

molecule  {
0 1
  S       -0.6655100    -0.1222880    -0.7786460
  S        0.9490790    -1.0924950     0.0459080
  C       -1.8768591    -0.0254468     0.7120948
  C        1.9109420     0.2797190     0.7637780
  C       -3.1055240     0.6383450     0.1798380
  C        2.5270550     1.2077640    -0.2710270
  H       -2.0036980    -1.0433510     0.9976740
  H       -1.3479990     0.5419670     1.4415090
  H        1.2751640     0.8312490     1.4628040
  H        2.6882710    -0.2183730     1.3542260
  H       -2.9201200     1.6535150    -0.1804290
  H       -3.5810360     0.0698190    -0.6233660
  H       -3.8066230     0.6970240     1.0170440
  H        3.1944500     0.6554300    -0.9366350
  H        1.7503090     1.6808700    -0.8763170
  H        3.1026000     1.9962990     0.2242510
units angstrom
no_reorient  #important for SAPT in psi4, default
symmetry c1  #important for SAPT in psi4, default
}

set PROPERTIES_ORIGIN ["COM"]
properties('MP2/aug-cc-pvtz', properties = ['dipole'])
--------------------------------------------------------------------------

    Molecular point group: c1
  Charge       = 0
  Multiplicity = 1
  Basis Set: AUG-CC-PVTZ
    Blend: AUG-CC-PVTZ
  Basis Set: (AUG-CC-PVTZ AUX)
    Blend: AUG-CC-PVTZ-JKFIT

    Orbital Energies [Eh]
    ---------------------

    Doubly Occupied:

       1A    -91.965888     2A    -91.964084     3A    -11.263826
       4A    -11.260514     5A    -11.230280     6A    -11.220170
       7A     -8.964560     8A     -8.962168     9A     -6.645646
      10A     -6.644437    11A     -6.643595    12A     -6.643124
      13A     -6.641869    14A     -6.641107    15A     -1.091709
      16A     -1.058317    17A     -0.979571    18A     -0.889550
      19A     -0.837347    20A     -0.767502    21A     -0.646693
      22A     -0.628707    23A     -0.596117    24A     -0.584802
      25A     -0.557300    26A     -0.537626    27A     -0.522931
      28A     -0.510930    29A     -0.480963    30A     -0.454210
      31A     -0.432044    32A     -0.349859    33A     -0.339869

  @DF-RHF Final Energy:  -952.44823255057872

   => Energetics <=

    Nuclear Repulsion Energy =            373.9843353595759936
    One-Electron Energy =               -2054.9505013475286432
    Two-Electron Energy =                 728.5179334373738129
    Total Energy =                       -952.4482325505787230
  Basis Set: (AUG-CC-PVTZ AUX)
    Blend: AUG-CC-PVTZ-RI
    Molecular point group: c1

    Geometry (in Angstrom), charge = 0, multiplicity = 1:

       Center              X                  Y                   Z               Mass
    ------------   -----------------  -----------------  -----------------  -----------------
         S           -0.672656819874    -0.067245720827    -0.754881363487    31.972071174400
         S            0.941932180126    -1.037452720827     0.069672636513    31.972071174400
         C           -1.884005919874     0.029595479173     0.735859436513    12.000000000000
         C            1.903795180126     0.334761279173     0.787542636513    12.000000000000
         C           -3.112670819874     0.693387279173     0.203602636513    12.000000000000
         C            2.519908180126     1.262806279173    -0.247262363487    12.000000000000
         H           -2.010844819874    -0.988308720827     1.021438636513     1.007825032230
         H           -1.355145819874     0.597009279173     1.465273636513     1.007825032230
         H            1.268017180126     0.886291279173     1.486568636513     1.007825032230
         H            2.681124180126    -0.163330720827     1.377990636513     1.007825032230
         H           -2.927266819874     1.708557279173    -0.156664363487     1.007825032230
         H           -3.588182819874     0.124861279173    -0.599601363487     1.007825032230
         H           -3.813769819874     0.752066279173     1.040808636513     1.007825032230
         H            3.187303180126     0.710472279173    -0.912870363487     1.007825032230
         H            1.743162180126     1.735912279173    -0.852552363487     1.007825032230
         H            3.095453180126     2.051341279173     0.248015636513     1.007825032230

  Basis Set: AUG-CC-PVTZ
    Blend: AUG-CC-PVTZ
  Basis Set: (AUG-CC-PVTZ AUX)
    Blend: AUG-CC-PVTZ-JKFIT
	 Reference Energy          =    -952.4482325505787230 [Eh]
	 Singles Energy            =      -0.0000000000000000 [Eh]
	 Same-Spin Energy          =      -0.2815238952528062 [Eh]
	 Opposite-Spin Energy      =      -0.9568547644467011 [Eh]
	 Correlation Energy        =      -1.2383786596995074 [Eh]
	 Total Energy              =    -953.6866112102782154 [Eh]

	 ================> DF-SCS-MP2 Energies <==================
	-----------------------------------------------------------
	 SCS Same-Spin Scale       =       0.3333333333333333 [-]
	 SCS Opposite-Spin Scale   =       1.2000000000000000 [-]
	 SCS Same-Spin Energy      =      -0.0938412984176021 [Eh]
	 SCS Opposite-Spin Energy  =      -1.1482257173360413 [Eh]
	 SCS Correlation Energy    =      -1.2420670157536433 [Eh]
	 SCS Total Energy          =    -953.6902995663323281 [Eh]
	-----------------------------------------------------------

  Dipole Moment: [D]
     X:    -0.4413      Y:     1.3671      Z:     1.7359     Total:     2.2532

*** Psi4 exiting successfully. Buy a developer a beer!
