                               Psi4 1.3.2 release

  ==> Input File <==

--------------------------------------------------------------------------
#psi4
#
memory 32 gb

molecule  {
0 1
  S       -0.6655100    -0.1222880    -0.7786460
  S        1.0428202    -1.0767320    -0.1471929
  C       -1.8138760    -0.0304820     0.6345850
  C        1.9109420     0.2797190     0.7637780
  C       -3.1055240     0.6383450     0.1798380
  C        2.5270550     1.2077640    -0.2710270
  H       -2.0036980    -1.0433510     0.9976740
  H       -1.3479990     0.5419670     1.4415090
  H        1.2751640     0.8312490     1.4628040
  H        2.6882710    -0.2183730     1.3542260
  H       -2.9201200     1.6535150    -0.1804290
  H       -3.5810360     0.0698190    -0.6233660
  H       -3.8066230     0.6970240     1.0170440
  H        3.1944500     0.6554300    -0.9366350
  H        1.7503090     1.6808700    -0.8763170
  H        3.1026000     1.9962990     0.2242510
units angstrom
no_reorient  #important for SAPT in psi4, default
symmetry c1  #important for SAPT in psi4, default
}

set PROPERTIES_ORIGIN ["COM"]
properties('MP2/aug-cc-pvtz', properties = ['dipole'])
--------------------------------------------------------------------------

    Molecular point group: c1
  Charge       = 0
  Multiplicity = 1
  Basis Set: AUG-CC-PVTZ
    Blend: AUG-CC-PVTZ
  Basis Set: (AUG-CC-PVTZ AUX)
    Blend: AUG-CC-PVTZ-JKFIT

    Orbital Energies [Eh]
    ---------------------

    Doubly Occupied:

       1A    -91.970491     2A    -91.965858     3A    -11.264208
       4A    -11.262402     5A    -11.231391     6A    -11.219550
       7A     -8.968725     8A     -8.964761     9A     -6.649744
      10A     -6.648506    11A     -6.647690    12A     -6.645852
      13A     -6.644664    14A     -6.643780    15A     -1.094456
      16A     -1.057073    17A     -0.978997    18A     -0.890302
      19A     -0.835063    20A     -0.770509    21A     -0.637760
      22A     -0.628415    23A     -0.599931    24A     -0.583278
      25A     -0.542855    26A     -0.534792    27A     -0.517476
      28A     -0.509585    29A     -0.494214    30A     -0.458494
      31A     -0.432977    32A     -0.361731    33A     -0.335146

  @DF-RHF Final Energy:  -952.44932368881712

   => Energetics <=

    Nuclear Repulsion Energy =            374.5337786446573887
    One-Electron Energy =               -2055.9848516501874656
    Two-Electron Energy =                 729.0017493167130169
    Total Energy =                       -952.4493236888171168
  Basis Set: (AUG-CC-PVTZ AUX)
    Blend: AUG-CC-PVTZ-RI
    Molecular point group: c1

    Geometry (in Angstrom), charge = 0, multiplicity = 1:

       Center              X                  Y                   Z               Mass
    ------------   -----------------  -----------------  -----------------  -----------------
         S           -0.703412629822    -0.070880736894    -0.696662923714    31.972071174400
         S            1.004917570178    -1.025324736894    -0.065209823714    31.972071174400
         C           -1.851778629822     0.020925263106     0.716568076286    12.000000000000
         C            1.873039370178     0.331126263106     0.845761076286    12.000000000000
         C           -3.143426629822     0.689752263106     0.261821076286    12.000000000000
         C            2.489152370178     1.259171263106    -0.189043923714    12.000000000000
         H           -2.041600629822    -0.991943736894     1.079657076286     1.007825032230
         H           -1.385901629822     0.593374263106     1.523492076286     1.007825032230
         H            1.237261370178     0.882656263106     1.544787076286     1.007825032230
         H            2.650368370178    -0.166965736894     1.436209076286     1.007825032230
         H           -2.958022629822     1.704922263106    -0.098445923714     1.007825032230
         H           -3.618938629822     0.121226263106    -0.541382923714     1.007825032230
         H           -3.844525629822     0.748431263106     1.099027076286     1.007825032230
         H            3.156547370178     0.706837263106    -0.854651923714     1.007825032230
         H            1.712406370178     1.732277263106    -0.794333923714     1.007825032230
         H            3.064697370178     2.047706263106     0.306234076286     1.007825032230

  Basis Set: AUG-CC-PVTZ
    Blend: AUG-CC-PVTZ
  Basis Set: (AUG-CC-PVTZ AUX)
    Blend: AUG-CC-PVTZ-JKFIT
	 Reference Energy          =    -952.4493236888171168 [Eh]
	 Singles Energy            =      -0.0000000000000000 [Eh]
	 Same-Spin Energy          =      -0.2814314506999432 [Eh]
	 Opposite-Spin Energy      =      -0.9567449978594394 [Eh]
	 Correlation Energy        =      -1.2381764485593827 [Eh]
	 Total Energy              =    -953.6875001373764462 [Eh]

	 ================> DF-SCS-MP2 Energies <==================
	-----------------------------------------------------------
	 SCS Same-Spin Scale       =       0.3333333333333333 [-]
	 SCS Opposite-Spin Scale   =       1.2000000000000000 [-]
	 SCS Same-Spin Energy      =      -0.0938104835666477 [Eh]
	 SCS Opposite-Spin Energy  =      -1.1480939974313273 [Eh]
	 SCS Correlation Energy    =      -1.2419044809979751 [Eh]
	 SCS Total Energy          =    -953.6912281698150764 [Eh]
	-----------------------------------------------------------

  Dipole Moment: [D]
     X:    -0.3410      Y:     1.2662      Z:     1.8414     Total:     2.2606

*** Psi4 exiting successfully. Buy a developer a beer!
