                               Psi4 1.3.2 release

  ==> Input File <==

--------------------------------------------------------------------------
#psi4
#
memory 32 gb

molecule  {
0 1
  S       -0.7094741    -0.0938064    -0.8147877
  S        0.9490790    -1.0924950     0.0459080
  C       -1.8138760    -0.0304820     0.6345850
  C        1.9109420     0.2797190     0.7637780
  C       -3.1055240     0.6383450     0.1798380
  C        2.5270550     1.2077640    -0.2710270
  H       -2.0036980    -1.0433510     0.9976740
  H       -1.3479990     0.5419670     1.4415090
  H        1.2751640     0.8312490     1.4628040
  H        2.6882710    -0.2183730     1.3542260
  H       -2.9201200     1.6535150    -0.1804290
  H       -3.5810360     0.0698190    -0.6233660
  H       -3.8066230     0.6970240     1.0170440
  H        3.1944500     0.6554300    -0.9366350
  H        1.7503090     1.6808700    -0.8763170
  H        3.1026000     1.9962990     0.2242510
units angstrom
no_reorient  #important for SAPT in psi4, default
symmetry c1  #important for SAPT in psi4, default
}

set PROPERTIES_ORIGIN ["COM"]
properties('MP2/aug-cc-pvtz', properties = ['dipole'])
--------------------------------------------------------------------------

    Molecular point group: c1
  Charge       = 0
  Multiplicity = 1
  Basis Set: AUG-CC-PVTZ
    Blend: AUG-CC-PVTZ
  Basis Set: (AUG-CC-PVTZ AUX)
    Blend: AUG-CC-PVTZ-JKFIT

    Orbital Energies [Eh]
    ---------------------

    Doubly Occupied:

       1A    -91.970555     2A    -91.968950     3A    -11.262791
       4A    -11.261691     5A    -11.229112     6A    -11.221399
       7A     -8.968627     8A     -8.966963     9A     -6.649565
      10A     -6.648428    11A     -6.647898    12A     -6.647515
      13A     -6.646808    14A     -6.645912    15A     -1.091940
      16A     -1.057654    17A     -0.972421    18A     -0.895176
      19A     -0.829921    20A     -0.771960    21A     -0.637394
      22A     -0.627539    23A     -0.597154    24A     -0.585439
      25A     -0.541546    26A     -0.538200    27A     -0.516751
      28A     -0.509647    29A     -0.485514    30A     -0.464340
      31A     -0.426360    32A     -0.354158    33A     -0.347503

  @DF-RHF Final Energy:  -952.45156075337957

   => Energetics <=

    Nuclear Repulsion Energy =            373.3870621456874233
    One-Electron Energy =               -2053.7035791853072624
    Two-Electron Energy =                 727.8649562862402718
    Total Energy =                       -952.4515607533795674
  Basis Set: (AUG-CC-PVTZ AUX)
    Blend: AUG-CC-PVTZ-RI
    Molecular point group: c1

    Geometry (in Angstrom), charge = 0, multiplicity = 1:

       Center              X                  Y                   Z               Mass
    ------------   -----------------  -----------------  -----------------  -----------------
         S           -0.711295453621    -0.045731639851    -0.773930769531    31.972071174400
         S            0.947257646379    -1.044420239851     0.086764930469    31.972071174400
         C           -1.815697353621     0.017592760149     0.675441930469    12.000000000000
         C            1.909120646379     0.327793760149     0.804634930469    12.000000000000
         C           -3.107345353621     0.686419760149     0.220694930469    12.000000000000
         C            2.525233646379     1.255838760149    -0.230170069531    12.000000000000
         H           -2.005519353621    -0.995276239851     1.038530930469     1.007825032230
         H           -1.349820353621     0.590041760149     1.482365930469     1.007825032230
         H            1.273342646379     0.879323760149     1.503660930469     1.007825032230
         H            2.686449646379    -0.170298239851     1.395082930469     1.007825032230
         H           -2.921941353621     1.701589760149    -0.139572069531     1.007825032230
         H           -3.582857353621     0.117893760149    -0.582509069531     1.007825032230
         H           -3.808444353621     0.745098760149     1.057900930469     1.007825032230
         H            3.192628646379     0.703504760149    -0.895778069531     1.007825032230
         H            1.748487646379     1.728944760149    -0.835460069531     1.007825032230
         H            3.100778646379     2.044373760149     0.265107930469     1.007825032230

  Basis Set: AUG-CC-PVTZ
    Blend: AUG-CC-PVTZ
  Basis Set: (AUG-CC-PVTZ AUX)
    Blend: AUG-CC-PVTZ-JKFIT
	 Reference Energy          =    -952.4515607533795674 [Eh]
	 Singles Energy            =      -0.0000000000000000 [Eh]
	 Same-Spin Energy          =      -0.2811061881346559 [Eh]
	 Opposite-Spin Energy      =      -0.9570572629439207 [Eh]
	 Correlation Energy        =      -1.2381634510785766 [Eh]
	 Total Energy              =    -953.6897242044581162 [Eh]

	 ================> DF-SCS-MP2 Energies <==================
	-----------------------------------------------------------
	 SCS Same-Spin Scale       =       0.3333333333333333 [-]
	 SCS Opposite-Spin Scale   =       1.2000000000000000 [-]
	 SCS Same-Spin Energy      =      -0.0937020627115520 [Eh]
	 SCS Opposite-Spin Energy  =      -1.1484687155327047 [Eh]
	 SCS Correlation Energy    =      -1.2421707782442566 [Eh]
	 SCS Total Energy          =    -953.6937315316238255 [Eh]
	-----------------------------------------------------------

  Dipole Moment: [D]
     X:    -0.2940      Y:     1.3454      Z:     1.6867     Total:     2.1775

*** Psi4 exiting successfully. Buy a developer a beer!
