                               Psi4 1.4a3.dev225

  ==> Input File <==

--------------------------------------------------------------------------
#psi4
#
memory 32 gb

molecule  {
0 1
  O        2.7382740    -0.7425350    -0.0126020
  N        0.6793120    -1.7266560     0.0061990
  C       -0.6027900     0.6893070    -0.0105920
  C        0.7782570     0.6611280     0.0035530
  C       -1.3671740    -0.5278470     0.0018860
  C        1.6233819    -0.4421232    -0.0059399
  C       -0.6863680    -1.7128580     0.0067460
  C       -1.3542970     1.9956390    -0.0048030
  C        1.6363160     1.8972900     0.0117510
  C       -2.8711540    -0.5219980    -0.0023590
  H       -1.1766380    -2.6823000     0.0159410
  H       -2.1333760     2.0016470    -0.7732430
  H       -0.6949600     2.8439520    -0.1887900
  H       -1.8505650     2.1568320     0.9594550
  H        1.1855660    -2.6081270     0.0055670
  H        1.5190430     2.4748580    -0.9113220
  H        2.6811620     1.5965790     0.0968200
  H        1.3890810     2.5538390     0.8512930
  H       -3.2566820    -1.5436220     0.0624630
  H       -3.2744260    -0.0723770    -0.9160080
  H       -3.2759870     0.0412750     0.8446610
units angstrom
no_reorient  #important for SAPT in psi4, default
symmetry c1  #important for SAPT in psi4, default
}

set PROPERTIES_ORIGIN ["COM"]
properties('MP2/aug-cc-pvtz', properties = ['dipole'])
--------------------------------------------------------------------------

    Molecular point group: c1
  Charge       = 0
  Multiplicity = 1
  Basis Set: AUG-CC-PVTZ
    Blend: AUG-CC-PVTZ
  Basis Set: (AUG-CC-PVTZ AUX)
    Blend: AUG-CC-PVTZ-JKFIT

    Orbital Energies [Eh]
    ---------------------

    Doubly Occupied:

       1A    -20.529251     2A    -15.585841     3A    -11.352875
       4A    -11.292785     5A    -11.278500     6A    -11.239201
       7A    -11.230236     8A    -11.227031     9A    -11.226786
      10A    -11.212992    11A     -1.424238    12A     -1.230970
      13A     -1.125485    14A     -1.063362    15A     -0.995971
      16A     -0.934983    17A     -0.921071    18A     -0.836334
      19A     -0.785878    20A     -0.709808    21A     -0.699450
      22A     -0.663368    23A     -0.619052    24A     -0.615147
      25A     -0.586881    26A     -0.580215    27A     -0.569500
      28A     -0.566100    29A     -0.558533    30A     -0.548321
      31A     -0.530675    32A     -0.513612    33A     -0.500977
      34A     -0.488804    35A     -0.415737    36A     -0.379536
      37A     -0.288581

  @DF-RHF Final Energy:  -438.79125915730879

   => Energetics <=

    Nuclear Repulsion Energy =            522.5627350540190719
    One-Electron Energy =               -1632.0518079429768932
    Two-Electron Energy =                 670.6978137316489210
    Total Energy =                       -438.7912591573087866
  Basis Set: (AUG-CC-PVTZ AUX)
    Blend: AUG-CC-PVTZ-RI
    Molecular point group: c1

    Geometry (in Angstrom), charge = 0, multiplicity = 1:

       Center              X                  Y                   Z               Mass
    ------------   -----------------  -----------------  -----------------  -----------------
         O            2.663665410455    -0.707685224483    -0.012130361245    15.994914619570
         N            0.604703410455    -1.691806224483     0.006670638755    14.003074004430
         C           -0.677398589545     0.724156775517    -0.010120361245    12.000000000000
         C            0.703648410455     0.695977775517     0.004024638755    12.000000000000
         C           -1.441782589545    -0.492997224483     0.002357638755    12.000000000000
         C            1.548773310455    -0.407273424483    -0.005468261245    12.000000000000
         C           -0.760976589545    -1.678008224483     0.007217638755    12.000000000000
         C           -1.428905589545     2.030488775517    -0.004331361245    12.000000000000
         C            1.561707410455     1.932139775517     0.012222638755    12.000000000000
         C           -2.945762589545    -0.487148224483    -0.001887361245    12.000000000000
         H           -1.251246589545    -2.647450224483     0.016412638755     1.007825032230
         H           -2.207984589545     2.036496775517    -0.772771361245     1.007825032230
         H           -0.769568589545     2.878801775517    -0.188318361245     1.007825032230
         H           -1.925173589545     2.191681775517     0.959926638755     1.007825032230
         H            1.110957410455    -2.573277224483     0.006038638755     1.007825032230
         H            1.444434410455     2.509707775517    -0.910850361245     1.007825032230
         H            2.606553410455     1.631428775517     0.097291638755     1.007825032230
         H            1.314472410455     2.588688775517     0.851764638755     1.007825032230
         H           -3.331290589545    -1.508772224483     0.062934638755     1.007825032230
         H           -3.349034589545    -0.037527224483    -0.915536361245     1.007825032230
         H           -3.350595589545     0.076124775517     0.845132638755     1.007825032230

  Basis Set: AUG-CC-PVTZ
    Blend: AUG-CC-PVTZ
  Basis Set: (AUG-CC-PVTZ AUX)
    Blend: AUG-CC-PVTZ-JKFIT
	 Reference Energy          =    -438.7912591573087866 [Eh]
	 Singles Energy            =      -0.0000000000000000 [Eh]
	 Same-Spin Energy          =      -0.4717303729899152 [Eh]
	 Opposite-Spin Energy      =      -1.5007260101530584 [Eh]
	 Correlation Energy        =      -1.9724563831429736 [Eh]
	 Total Energy              =    -440.7637155404517557 [Eh]

	 ================> DF-SCS-MP2 Energies <==================
	-----------------------------------------------------------
	 SCS Same-Spin Scale       =       0.3333333333333333 [-]
	 SCS Opposite-Spin Scale   =       1.2000000000000000 [-]
	 SCS Same-Spin Energy      =      -0.1572434576633051 [Eh]
	 SCS Opposite-Spin Energy  =      -1.8008712121836701 [Eh]
	 SCS Correlation Energy    =      -1.9581146698469751 [Eh]
	 SCS Total Energy          =    -440.7493738271557504 [Eh]
	-----------------------------------------------------------

  Dipole Moment: [D]
     X:    -3.3712      Y:     0.0837      Z:     0.0306     Total:     3.3724

*** Psi4 exiting successfully. Buy a developer a beer!
