                               Psi4 1.4a3.dev225

  ==> Input File <==

--------------------------------------------------------------------------
#psi4
#
memory 32 gb

molecule  {
0 1
  O        2.7382740    -0.7425350    -0.0126020
  N        0.6793120    -1.7266560     0.0061990
  C       -0.6027900     0.6893070    -0.0105920
  C        0.7782570     0.6611280     0.0035530
  C       -1.3671740    -0.5278470     0.0018860
  C        1.5049430    -0.6032750    -0.0044170
  C       -0.6863680    -1.7128580     0.0067460
  C       -1.3542970     1.9956390    -0.0048030
  C        1.6363160     1.8972900     0.0117510
  C       -2.8711540    -0.5219980    -0.0023590
  H       -1.1766380    -2.6823000     0.0159410
  H       -2.2757641     2.0027451    -0.9136867
  H       -0.6949600     2.8439520    -0.1887900
  H       -1.8505650     2.1568320     0.9594550
  H        1.1855660    -2.6081270     0.0055670
  H        1.5190430     2.4748580    -0.9113220
  H        2.6811620     1.5965790     0.0968200
  H        1.3890810     2.5538390     0.8512930
  H       -3.2566820    -1.5436220     0.0624630
  H       -3.2744260    -0.0723770    -0.9160080
  H       -3.2759870     0.0412750     0.8446610
units angstrom
no_reorient  #important for SAPT in psi4, default
symmetry c1  #important for SAPT in psi4, default
}

set PROPERTIES_ORIGIN ["COM"]
properties('MP2/aug-cc-pvtz', properties = ['dipole'])
--------------------------------------------------------------------------

    Molecular point group: c1
  Charge       = 0
  Multiplicity = 1
  Basis Set: AUG-CC-PVTZ
    Blend: AUG-CC-PVTZ
  Basis Set: (AUG-CC-PVTZ AUX)
    Blend: AUG-CC-PVTZ-JKFIT

    Orbital Energies [Eh]
    ---------------------

    Doubly Occupied:

       1A    -20.501137     2A    -15.616428     3A    -11.345186
       4A    -11.297124     5A    -11.271355     6A    -11.259267
       7A    -11.243444     8A    -11.240265     9A    -11.236479
      10A    -11.214074    11A     -1.362619    12A     -1.263844
      13A     -1.131461    14A     -1.062650    15A     -0.984016
      16A     -0.948604    17A     -0.932894    18A     -0.826929
      19A     -0.809338    20A     -0.726593    21A     -0.705538
      22A     -0.646108    23A     -0.618771    24A     -0.597848
      25A     -0.586787    26A     -0.580119    27A     -0.569853
      28A     -0.569426    29A     -0.556846    30A     -0.545557
      31A     -0.517800    32A     -0.504865    33A     -0.499561
      34A     -0.469150    35A     -0.416552    36A     -0.387401
      37A     -0.296209

  @DF-RHF Final Energy:  -438.80737326458842

   => Energetics <=

    Nuclear Repulsion Energy =            522.0144994910612013
    One-Electron Energy =               -1630.9595511744012128
    Two-Electron Energy =                 670.1376784187515341
    Total Energy =                       -438.8073732645883638
  Basis Set: (AUG-CC-PVTZ AUX)
    Blend: AUG-CC-PVTZ-RI
    Molecular point group: c1

    Geometry (in Angstrom), charge = 0, multiplicity = 1:

       Center              X                  Y                   Z               Mass
    ------------   -----------------  -----------------  -----------------  -----------------
         O            2.675080078551    -0.693586467478    -0.011231147486    15.994914619570
         N            0.616118078551    -1.677707467478     0.007569852514    14.003074004430
         C           -0.665983921449     0.738255532522    -0.009221147486    12.000000000000
         C            0.715063078551     0.710076532522     0.004923852514    12.000000000000
         C           -1.430367921449    -0.478898467478     0.003256852514    12.000000000000
         C            1.441749078551    -0.554326467478    -0.003046147486    12.000000000000
         C           -0.749561921449    -1.663909467478     0.008116852514    12.000000000000
         C           -1.417490921449     2.044587532522    -0.003432147486    12.000000000000
         C            1.573122078551     1.946238532522     0.013121852514    12.000000000000
         C           -2.934347921449    -0.473049467478    -0.000988147486    12.000000000000
         H           -1.239831921449    -2.633351467478     0.017311852514     1.007825032230
         H           -2.338958021449     2.051693632522    -0.912315847486     1.007825032230
         H           -0.758153921449     2.892900532522    -0.187419147486     1.007825032230
         H           -1.913758921449     2.205780532522     0.960825852514     1.007825032230
         H            1.122372078551    -2.559178467478     0.006937852514     1.007825032230
         H            1.455849078551     2.523806532522    -0.909951147486     1.007825032230
         H            2.617968078551     1.645527532522     0.098190852514     1.007825032230
         H            1.325887078551     2.602787532522     0.852663852514     1.007825032230
         H           -3.319875921449    -1.494673467478     0.063833852514     1.007825032230
         H           -3.337619921449    -0.023428467478    -0.914637147486     1.007825032230
         H           -3.339180921449     0.090223532522     0.846031852514     1.007825032230

  Basis Set: AUG-CC-PVTZ
    Blend: AUG-CC-PVTZ
  Basis Set: (AUG-CC-PVTZ AUX)
    Blend: AUG-CC-PVTZ-JKFIT
	 Reference Energy          =    -438.8073732645884206 [Eh]
	 Singles Energy            =      -0.0000000000000000 [Eh]
	 Same-Spin Energy          =      -0.4703575176397669 [Eh]
	 Opposite-Spin Energy      =      -1.5009785616826616 [Eh]
	 Correlation Energy        =      -1.9713360793224286 [Eh]
	 Total Energy              =    -440.7787093439108617 [Eh]

	 ================> DF-SCS-MP2 Energies <==================
	-----------------------------------------------------------
	 SCS Same-Spin Scale       =       0.3333333333333333 [-]
	 SCS Opposite-Spin Scale   =       1.2000000000000000 [-]
	 SCS Same-Spin Energy      =      -0.1567858392132556 [Eh]
	 SCS Opposite-Spin Energy  =      -1.8011742740191938 [Eh]
	 SCS Correlation Energy    =      -1.9579601132324493 [Eh]
	 SCS Total Energy          =    -440.7653333778208662 [Eh]
	-----------------------------------------------------------

  Dipole Moment: [D]
     X:    -4.3583      Y:    -0.3392      Z:     0.1092     Total:     4.3728

*** Psi4 exiting successfully. Buy a developer a beer!
