                               Psi4 1.4a3.dev225

  ==> Input File <==

--------------------------------------------------------------------------
#psi4
#
memory 32 gb

molecule  {
0 1
  O        2.7382740    -0.7425350    -0.0126020
  N        0.6793120    -1.7266560     0.0061990
  C       -0.6027900     0.6893070    -0.0105920
  C        0.7782570     0.6611280     0.0035530
  C       -1.3671740    -0.5278470     0.0018860
  C        1.5049430    -0.6032750    -0.0044170
  C       -0.6863680    -1.7128580     0.0067460
  C       -1.3542970     1.9956390    -0.0048030
  C        1.6363160     1.8972900     0.0117510
  C       -2.8711540    -0.5219980    -0.0023590
  H       -1.1766380    -2.6823000     0.0159410
  H       -2.1333760     2.0016470    -0.7732430
  H       -0.6949600     2.8439520    -0.1887900
  H       -1.8505650     2.1568320     0.9594550
  H        1.1855660    -2.6081270     0.0055670
  H        1.5190430     2.4748580    -0.9113220
  H        2.6811620     1.5965790     0.0968200
  H        1.3890810     2.5538390     0.8512930
  H       -3.2566820    -1.5436220     0.0624630
  H       -3.2744260    -0.0723770    -0.9160080
  H       -3.2390095    -0.0101744     0.7672942
units angstrom
no_reorient  #important for SAPT in psi4, default
symmetry c1  #important for SAPT in psi4, default
}

set PROPERTIES_ORIGIN ["COM"]
properties('MP2/aug-cc-pvtz', properties = ['dipole'])
--------------------------------------------------------------------------

    Molecular point group: c1
  Charge       = 0
  Multiplicity = 1
  Basis Set: AUG-CC-PVTZ
    Blend: AUG-CC-PVTZ
  Basis Set: (AUG-CC-PVTZ AUX)
    Blend: AUG-CC-PVTZ-JKFIT

    Orbital Energies [Eh]
    ---------------------

    Doubly Occupied:

       1A    -20.499890     2A    -15.615321     3A    -11.343817
       4A    -11.296115     5A    -11.269084     6A    -11.242153
       7A    -11.238279     8A    -11.237247     9A    -11.224923
      10A    -11.212718    11A     -1.361432    12A     -1.262746
      13A     -1.131873    14A     -1.063551    15A     -0.991389
      16A     -0.957061    17A     -0.933920    18A     -0.830144
      19A     -0.811380    20A     -0.727153    21A     -0.705394
      22A     -0.645309    23A     -0.623807    24A     -0.597962
      25A     -0.591689    26A     -0.584473    27A     -0.576441
      28A     -0.568779    29A     -0.561667    30A     -0.551267
      31A     -0.535794    32A     -0.505658    33A     -0.499215
      34A     -0.468724    35A     -0.415400    36A     -0.387997
      37A     -0.295463

  @DF-RHF Final Energy:  -438.82169910267146

   => Energetics <=

    Nuclear Repulsion Energy =            523.2789430559345192
    One-Electron Energy =               -1633.4708106817529369
    Two-Electron Energy =                 671.3701685231468446
    Total Energy =                       -438.8216991026714595
  Basis Set: (AUG-CC-PVTZ AUX)
    Blend: AUG-CC-PVTZ-RI
    Molecular point group: c1

    Geometry (in Angstrom), charge = 0, multiplicity = 1:

       Center              X                  Y                   Z               Mass
    ------------   -----------------  -----------------  -----------------  -----------------
         O            2.673761404911    -0.693200144777    -0.011694881030    15.994914619570
         N            0.614799404911    -1.677321144777     0.007106118970    14.003074004430
         C           -0.667302595089     0.738641855223    -0.009684881030    12.000000000000
         C            0.713744404911     0.710462855223     0.004460118970    12.000000000000
         C           -1.431686595089    -0.478512144777     0.002793118970    12.000000000000
         C            1.440430404911    -0.553940144777    -0.003509881030    12.000000000000
         C           -0.750880595089    -1.663523144777     0.007653118970    12.000000000000
         C           -1.418809595089     2.044973855223    -0.003895881030    12.000000000000
         C            1.571803404911     1.946624855223     0.012658118970    12.000000000000
         C           -2.935666595089    -0.472663144777    -0.001451881030    12.000000000000
         H           -1.241150595089    -2.632965144777     0.016848118970     1.007825032230
         H           -2.197888595089     2.050981855223    -0.772335881030     1.007825032230
         H           -0.759472595089     2.893286855223    -0.187882881030     1.007825032230
         H           -1.915077595089     2.206166855223     0.960362118970     1.007825032230
         H            1.121053404911    -2.558792144777     0.006474118970     1.007825032230
         H            1.454530404911     2.524192855223    -0.910414881030     1.007825032230
         H            2.616649404911     1.645913855223     0.097727118970     1.007825032230
         H            1.324568404911     2.603173855223     0.852200118970     1.007825032230
         H           -3.321194595089    -1.494287144777     0.063370118970     1.007825032230
         H           -3.338938595089    -0.023042144777    -0.915100881030     1.007825032230
         H           -3.303522095089     0.039160455223     0.768201318970     1.007825032230

  Basis Set: AUG-CC-PVTZ
    Blend: AUG-CC-PVTZ
  Basis Set: (AUG-CC-PVTZ AUX)
    Blend: AUG-CC-PVTZ-JKFIT
	 Reference Energy          =    -438.8216991026714595 [Eh]
	 Singles Energy            =      -0.0000000000000000 [Eh]
	 Same-Spin Energy          =      -0.4701614475789729 [Eh]
	 Opposite-Spin Energy      =      -1.4986923490066775 [Eh]
	 Correlation Energy        =      -1.9688537965856505 [Eh]
	 Total Energy              =    -440.7905528992571362 [Eh]

	 ================> DF-SCS-MP2 Energies <==================
	-----------------------------------------------------------
	 SCS Same-Spin Scale       =       0.3333333333333333 [-]
	 SCS Opposite-Spin Scale   =       1.2000000000000000 [-]
	 SCS Same-Spin Energy      =      -0.1567204825263243 [Eh]
	 SCS Opposite-Spin Energy  =      -1.7984308188080129 [Eh]
	 SCS Correlation Energy    =      -1.9551513013343371 [Eh]
	 SCS Total Energy          =    -440.7768504040058133 [Eh]
	-----------------------------------------------------------

  Dipole Moment: [D]
     X:    -4.5035      Y:    -0.2746      Z:     0.0665     Total:     4.5124

*** Psi4 exiting successfully. Buy a developer a beer!
