                               Psi4 1.4a3.dev225

  ==> Input File <==

--------------------------------------------------------------------------
#psi4
#
memory 32 gb

molecule  {
0 1
  O        2.7382740    -0.7425350    -0.0126020
  N        0.6793120    -1.7266560     0.0061990
  C       -0.6027900     0.6893070    -0.0105920
  C        0.7782570     0.6611280     0.0035530
  C       -1.3671740    -0.5278470     0.0018860
  C        1.5049430    -0.6032750    -0.0044170
  C       -0.6863680    -1.7128580     0.0067460
  C       -1.3542970     1.9956390    -0.0048030
  C        1.6363160     1.8972900     0.0117510
  C       -2.8711540    -0.5219980    -0.0023590
  H       -1.1766380    -2.6823000     0.0159410
  H       -2.1333760     2.0016470    -0.7732430
  H       -0.6949600     2.8439520    -0.1887900
  H       -1.8505650     2.1568320     0.9594550
  H        1.1855660    -2.6081270     0.0055670
  H        1.5169014     2.4854055    -0.9281791
  H        2.6811620     1.5965790     0.0968200
  H        1.3890810     2.5538390     0.8512930
  H       -3.2566820    -1.5436220     0.0624630
  H       -3.2744260    -0.0723770    -0.9160080
  H       -3.2759870     0.0412750     0.8446610
units angstrom
no_reorient  #important for SAPT in psi4, default
symmetry c1  #important for SAPT in psi4, default
}

set PROPERTIES_ORIGIN ["COM"]
properties('MP2/aug-cc-pvtz', properties = ['dipole'])
--------------------------------------------------------------------------

    Molecular point group: c1
  Charge       = 0
  Multiplicity = 1
  Basis Set: AUG-CC-PVTZ
    Blend: AUG-CC-PVTZ
  Basis Set: (AUG-CC-PVTZ AUX)
    Blend: AUG-CC-PVTZ-JKFIT

    Orbital Energies [Eh]
    ---------------------

    Doubly Occupied:

       1A    -20.500309     2A    -15.615847     3A    -11.344252
       4A    -11.296888     5A    -11.269382     6A    -11.243076
       7A    -11.238640     8A    -11.237312     9A    -11.236973
      10A    -11.215276    11A     -1.361853    12A     -1.263249
      13A     -1.131550    14A     -1.061910    15A     -0.990956
      16A     -0.948883    17A     -0.933051    18A     -0.830192
      19A     -0.809419    20A     -0.726252    21A     -0.705445
      22A     -0.645430    23A     -0.620564    24A     -0.598271
      25A     -0.586277    26A     -0.582247    27A     -0.571004
      28A     -0.569337    29A     -0.561543    30A     -0.548213
      31A     -0.533559    32A     -0.505745    33A     -0.499365
      34A     -0.468641    35A     -0.415784    36A     -0.387807
      37A     -0.295644

  @DF-RHF Final Energy:  -438.82718410598824

   => Energetics <=

    Nuclear Repulsion Energy =            522.7277147783030387
    One-Electron Energy =               -1632.4095092367033430
    Two-Electron Energy =                 670.8546103524122373
    Total Energy =                       -438.8271841059881808
  Basis Set: (AUG-CC-PVTZ AUX)
    Blend: AUG-CC-PVTZ-RI
    Molecular point group: c1

    Geometry (in Angstrom), charge = 0, multiplicity = 1:

       Center              X                  Y                   Z               Mass
    ------------   -----------------  -----------------  -----------------  -----------------
         O            2.674049003681    -0.693655938294    -0.012139740838    15.994914619570
         N            0.615087003681    -1.677776938294     0.006661259162    14.003074004430
         C           -0.667014996319     0.738186061706    -0.010129740838    12.000000000000
         C            0.714032003681     0.710007061706     0.004015259162    12.000000000000
         C           -1.431398996319    -0.478967938294     0.002348259162    12.000000000000
         C            1.440718003681    -0.554395938294    -0.003954740838    12.000000000000
         C           -0.750592996319    -1.663978938294     0.007208259162    12.000000000000
         C           -1.418521996319     2.044518061706    -0.004340740838    12.000000000000
         C            1.572091003681     1.946169061706     0.012213259162    12.000000000000
         C           -2.935378996319    -0.473118938294    -0.001896740838    12.000000000000
         H           -1.240862996319    -2.633420938294     0.016403259162     1.007825032230
         H           -2.197600996319     2.050526061706    -0.772780740838     1.007825032230
         H           -0.759184996319     2.892831061706    -0.188327740838     1.007825032230
         H           -1.914789996319     2.205711061706     0.959917259162     1.007825032230
         H            1.121341003681    -2.559247938294     0.006029259162     1.007825032230
         H            1.452676403681     2.534284561706    -0.927716840838     1.007825032230
         H            2.616937003681     1.645458061706     0.097282259162     1.007825032230
         H            1.324856003681     2.602718061706     0.851755259162     1.007825032230
         H           -3.320906996319    -1.494742938294     0.062925259162     1.007825032230
         H           -3.338650996319    -0.023497938294    -0.915545740838     1.007825032230
         H           -3.340211996319     0.090154061706     0.845123259162     1.007825032230

  Basis Set: AUG-CC-PVTZ
    Blend: AUG-CC-PVTZ
  Basis Set: (AUG-CC-PVTZ AUX)
    Blend: AUG-CC-PVTZ-JKFIT
	 Reference Energy          =    -438.8271841059882377 [Eh]
	 Singles Energy            =      -0.0000000000000000 [Eh]
	 Same-Spin Energy          =      -0.4701515688109814 [Eh]
	 Opposite-Spin Energy      =      -1.4992783332188238 [Eh]
	 Correlation Energy        =      -1.9694299020298052 [Eh]
	 Total Energy              =    -440.7966140080180253 [Eh]

	 ================> DF-SCS-MP2 Energies <==================
	-----------------------------------------------------------
	 SCS Same-Spin Scale       =       0.3333333333333333 [-]
	 SCS Opposite-Spin Scale   =       1.2000000000000000 [-]
	 SCS Same-Spin Energy      =      -0.1567171896036604 [Eh]
	 SCS Opposite-Spin Energy  =      -1.7991339998625884 [Eh]
	 SCS Correlation Energy    =      -1.9558511894662489 [Eh]
	 SCS Total Energy          =    -440.7830352954545106 [Eh]
	-----------------------------------------------------------

  Dipole Moment: [D]
     X:    -4.4642      Y:    -0.3017      Z:     0.0485     Total:     4.4746

*** Psi4 exiting successfully. Buy a developer a beer!
