                               Psi4 1.4a3.dev225

  ==> Input File <==

--------------------------------------------------------------------------
#psi4
#
memory 32 gb

molecule  {
0 1
  O        2.7382740    -0.7425350    -0.0126020
  N        0.6793120    -1.7266560     0.0061990
  C       -0.6027900     0.6893070    -0.0105920
  C        0.7782570     0.6611280     0.0035530
  C       -1.3671740    -0.5278470     0.0018860
  C        1.5049430    -0.6032750    -0.0044170
  C       -0.6863680    -1.7128580     0.0067460
  C       -1.3542970     1.9956390    -0.0048030
  C        1.6363160     1.8972900     0.0117510
  C       -2.8711540    -0.5219980    -0.0023590
  H       -1.1766380    -2.6823000     0.0159410
  H       -2.1333760     2.0016470    -0.7732430
  H       -0.7070574     2.8283874    -0.1854143
  H       -1.8505650     2.1568320     0.9594550
  H        1.1855660    -2.6081270     0.0055670
  H        1.5190430     2.4748580    -0.9113220
  H        2.6811620     1.5965790     0.0968200
  H        1.3890810     2.5538390     0.8512930
  H       -3.2566820    -1.5436220     0.0624630
  H       -3.2744260    -0.0723770    -0.9160080
  H       -3.2759870     0.0412750     0.8446610
units angstrom
no_reorient  #important for SAPT in psi4, default
symmetry c1  #important for SAPT in psi4, default
}

set PROPERTIES_ORIGIN ["COM"]
properties('MP2/aug-cc-pvtz', properties = ['dipole'])
--------------------------------------------------------------------------

    Molecular point group: c1
  Charge       = 0
  Multiplicity = 1
  Basis Set: AUG-CC-PVTZ
    Blend: AUG-CC-PVTZ
  Basis Set: (AUG-CC-PVTZ AUX)
    Blend: AUG-CC-PVTZ-JKFIT

    Orbital Energies [Eh]
    ---------------------

    Doubly Occupied:

       1A    -20.500192     2A    -15.615697     3A    -11.344098
       4A    -11.296702     5A    -11.269132     6A    -11.242881
       7A    -11.238441     8A    -11.237173     9A    -11.234718
      10A    -11.212882    11A     -1.361726    12A     -1.263103
      13A     -1.131621    14A     -1.062015    15A     -0.992298
      16A     -0.948749    17A     -0.934384    18A     -0.830963
      19A     -0.809697    20A     -0.726230    21A     -0.705634
      22A     -0.645952    23A     -0.620657    24A     -0.598422
      25A     -0.586224    26A     -0.582347    27A     -0.571533
      28A     -0.569268    29A     -0.563465    30A     -0.550213
      31A     -0.534569    32A     -0.505827    33A     -0.500027
      34A     -0.468556    35A     -0.415655    36A     -0.387821
      37A     -0.295573

  @DF-RHF Final Energy:  -438.82778184496715

   => Energetics <=

    Nuclear Repulsion Energy =            522.9036332516257062
    One-Electron Energy =               -1632.7539408893860582
    Two-Electron Energy =                 671.0225257927932034
    Total Energy =                       -438.8277818449671486
  Basis Set: (AUG-CC-PVTZ AUX)
    Blend: AUG-CC-PVTZ-RI
    Molecular point group: c1

    Geometry (in Angstrom), charge = 0, multiplicity = 1:

       Center              X                  Y                   Z               Mass
    ------------   -----------------  -----------------  -----------------  -----------------
         O            2.674122197488    -0.693463965375    -0.012288489873    15.994914619570
         N            0.615160197488    -1.677584965375     0.006512510127    14.003074004430
         C           -0.666941802512     0.738378034625    -0.010278489873    12.000000000000
         C            0.714105197488     0.710199034625     0.003866510127    12.000000000000
         C           -1.431325802512    -0.478775965375     0.002199510127    12.000000000000
         C            1.440791197488    -0.554203965375    -0.004103489873    12.000000000000
         C           -0.750519802512    -1.663786965375     0.007059510127    12.000000000000
         C           -1.418448802512     2.044710034625    -0.004489489873    12.000000000000
         C            1.572164197488     1.946361034625     0.012064510127    12.000000000000
         C           -2.935305802512    -0.472926965375    -0.002045489873    12.000000000000
         H           -1.240789802512    -2.633228965375     0.016254510127     1.007825032230
         H           -2.197527802512     2.050718034625    -0.772929489873     1.007825032230
         H           -0.771209202512     2.877458434625    -0.185100789873     1.007825032230
         H           -1.914716802512     2.205903034625     0.959768510127     1.007825032230
         H            1.121414197488    -2.559055965375     0.005880510127     1.007825032230
         H            1.454891197488     2.523929034625    -0.911008489873     1.007825032230
         H            2.617010197488     1.645650034625     0.097133510127     1.007825032230
         H            1.324929197488     2.602910034625     0.851606510127     1.007825032230
         H           -3.320833802512    -1.494550965375     0.062776510127     1.007825032230
         H           -3.338577802512    -0.023305965375    -0.915694489873     1.007825032230
         H           -3.340138802512     0.090346034625     0.844974510127     1.007825032230

  Basis Set: AUG-CC-PVTZ
    Blend: AUG-CC-PVTZ
  Basis Set: (AUG-CC-PVTZ AUX)
    Blend: AUG-CC-PVTZ-JKFIT
	 Reference Energy          =    -438.8277818449671486 [Eh]
	 Singles Energy            =      -0.0000000000000000 [Eh]
	 Same-Spin Energy          =      -0.4701132903221559 [Eh]
	 Opposite-Spin Energy      =      -1.4989887995164746 [Eh]
	 Correlation Energy        =      -1.9691020898386304 [Eh]
	 Total Energy              =    -440.7968839348058054 [Eh]

	 ================> DF-SCS-MP2 Energies <==================
	-----------------------------------------------------------
	 SCS Same-Spin Scale       =       0.3333333333333333 [-]
	 SCS Opposite-Spin Scale   =       1.2000000000000000 [-]
	 SCS Same-Spin Energy      =      -0.1567044301073853 [Eh]
	 SCS Opposite-Spin Energy  =      -1.7987865594197694 [Eh]
	 SCS Correlation Energy    =      -1.9554909895271546 [Eh]
	 SCS Total Energy          =    -440.7832728344943121 [Eh]
	-----------------------------------------------------------

  Dipole Moment: [D]
     X:    -4.4621      Y:    -0.2839      Z:     0.0405     Total:     4.4713

*** Psi4 exiting successfully. Buy a developer a beer!
