                               Psi4 1.4a3.dev225

  ==> Input File <==

--------------------------------------------------------------------------
#psi4
#
memory 32 gb

molecule  {
0 1
  O        2.7382740    -0.7425350    -0.0126020
  N        0.6793120    -1.7266560     0.0061990
  C       -0.6027900     0.6893070    -0.0105920
  C        0.7782570     0.6611280     0.0035530
  C       -1.3671740    -0.5278470     0.0018860
  C        1.5049430    -0.6032750    -0.0044170
  C       -0.6863680    -1.7128580     0.0067460
  C       -1.3542970     1.9956390    -0.0048030
  C        1.6363160     1.8972900     0.0117510
  C       -2.8711540    -0.5219980    -0.0023590
  H       -1.1766380    -2.6823000     0.0159410
  H       -2.1333760     2.0016470    -0.7732430
  H       -0.6949600     2.8439520    -0.1887900
  H       -1.8505650     2.1568320     0.9594550
  H        1.1855660    -2.6081270     0.0055670
  H        1.5190430     2.4748580    -0.9113220
  H        2.6811620     1.5965790     0.0968200
  H        1.3890810     2.5538390     0.8512930
  H       -3.2566820    -1.5436220     0.0624630
  H       -3.2744260    -0.0723770    -0.9160080
  H       -3.2574983     0.0155503     0.8059776
units angstrom
no_reorient  #important for SAPT in psi4, default
symmetry c1  #important for SAPT in psi4, default
}

set PROPERTIES_ORIGIN ["COM"]
properties('MP2/aug-cc-pvtz', properties = ['dipole'])
--------------------------------------------------------------------------

    Molecular point group: c1
  Charge       = 0
  Multiplicity = 1
  Basis Set: AUG-CC-PVTZ
    Blend: AUG-CC-PVTZ
  Basis Set: (AUG-CC-PVTZ AUX)
    Blend: AUG-CC-PVTZ-JKFIT

    Orbital Energies [Eh]
    ---------------------

    Doubly Occupied:

       1A    -20.500038     2A    -15.615512     3A    -11.343958
       4A    -11.296411     5A    -11.269163     6A    -11.242546
       7A    -11.238377     8A    -11.237130     9A    -11.231150
      10A    -11.212766    11A     -1.361578    12A     -1.262927
      13A     -1.131653    14A     -1.062650    15A     -0.991264
      16A     -0.952616    17A     -0.933975    18A     -0.830209
      19A     -0.810480    20A     -0.726602    21A     -0.705416
      22A     -0.645341    23A     -0.621957    24A     -0.598045
      25A     -0.587655    26A     -0.583943    27A     -0.574710
      28A     -0.569040    29A     -0.561650    30A     -0.550841
      31A     -0.535021    32A     -0.505729    33A     -0.499341
      34A     -0.468669    35A     -0.415531    36A     -0.387938
      37A     -0.295525

  @DF-RHF Final Energy:  -438.82671335543677

   => Energetics <=

    Nuclear Repulsion Energy =            523.0411672375316812
    One-Electron Energy =               -1633.0210474325117502
    Two-Electron Energy =                 671.1531668395433599
    Total Energy =                       -438.8267133554367092
  Basis Set: (AUG-CC-PVTZ AUX)
    Blend: AUG-CC-PVTZ-RI
    Molecular point group: c1

    Geometry (in Angstrom), charge = 0, multiplicity = 1:

       Center              X                  Y                   Z               Mass
    ------------   -----------------  -----------------  -----------------  -----------------
         O            2.673897332275    -0.693389269580    -0.011979276588    15.994914619570
         N            0.614935332275    -1.677510269580     0.006821723412    14.003074004430
         C           -0.667166667725     0.738452730420    -0.009969276588    12.000000000000
         C            0.713880332275     0.710273730420     0.004175723412    12.000000000000
         C           -1.431550667725    -0.478701269580     0.002508723412    12.000000000000
         C            1.440566332275    -0.554129269580    -0.003794276588    12.000000000000
         C           -0.750744667725    -1.663712269580     0.007368723412    12.000000000000
         C           -1.418673667725     2.044784730420    -0.004180276588    12.000000000000
         C            1.571939332275     1.946435730420     0.012373723412    12.000000000000
         C           -2.935530667725    -0.472852269580    -0.001736276588    12.000000000000
         H           -1.241014667725    -2.633154269580     0.016563723412     1.007825032230
         H           -2.197752667725     2.050792730420    -0.772620276588     1.007825032230
         H           -0.759336667725     2.893097730420    -0.188167276588     1.007825032230
         H           -1.914941667725     2.205977730420     0.960077723412     1.007825032230
         H            1.121189332275    -2.558981269580     0.006189723412     1.007825032230
         H            1.454666332275     2.524003730420    -0.910699276588     1.007825032230
         H            2.616785332275     1.645724730420     0.097442723412     1.007825032230
         H            1.324704332275     2.602984730420     0.851915723412     1.007825032230
         H           -3.321058667725    -1.494476269580     0.063085723412     1.007825032230
         H           -3.338802667725    -0.023231269580    -0.915385276588     1.007825032230
         H           -3.321874967725     0.064696030420     0.806600323412     1.007825032230

  Basis Set: AUG-CC-PVTZ
    Blend: AUG-CC-PVTZ
  Basis Set: (AUG-CC-PVTZ AUX)
    Blend: AUG-CC-PVTZ-JKFIT
	 Reference Energy          =    -438.8267133554367661 [Eh]
	 Singles Energy            =      -0.0000000000000000 [Eh]
	 Same-Spin Energy          =      -0.4701505401490557 [Eh]
	 Opposite-Spin Energy      =      -1.4988935522675426 [Eh]
	 Correlation Energy        =      -1.9690440924165982 [Eh]
	 Total Energy              =    -440.7957574478533616 [Eh]

	 ================> DF-SCS-MP2 Energies <==================
	-----------------------------------------------------------
	 SCS Same-Spin Scale       =       0.3333333333333333 [-]
	 SCS Opposite-Spin Scale   =       1.2000000000000000 [-]
	 SCS Same-Spin Energy      =      -0.1567168467163519 [Eh]
	 SCS Opposite-Spin Energy  =      -1.7986722627210512 [Eh]
	 SCS Correlation Energy    =      -1.9553891094374030 [Eh]
	 SCS Total Energy          =    -440.7821024648741854 [Eh]
	-----------------------------------------------------------

  Dipole Moment: [D]
     X:    -4.4853      Y:    -0.2829      Z:     0.0555     Total:     4.4945

*** Psi4 exiting successfully. Buy a developer a beer!
