                               Psi4 1.4a3.dev225

  ==> Input File <==

--------------------------------------------------------------------------
#psi4
#
memory 32 gb

molecule  {
0 1
  O        2.7382740    -0.7425350    -0.0126020
  N        0.6793120    -1.7266560     0.0061990
  C       -0.6027900     0.6893070    -0.0105920
  C        0.7782570     0.6611280     0.0035530
  C       -1.3671740    -0.5278470     0.0018860
  C        1.5049430    -0.6032750    -0.0044170
  C       -0.6863680    -1.7128580     0.0067460
  C       -1.3542970     1.9956390    -0.0048030
  C        1.6363160     1.8972900     0.0117510
  C       -2.8711540    -0.5219980    -0.0023590
  H       -1.1766380    -2.6823000     0.0159410
  H       -2.1333760     2.0016470    -0.7732430
  H       -0.7554468     2.7661288    -0.1719113
  H       -1.8505650     2.1568320     0.9594550
  H        1.1855660    -2.6081270     0.0055670
  H        1.5190430     2.4748580    -0.9113220
  H        2.6811620     1.5965790     0.0968200
  H        1.3890810     2.5538390     0.8512930
  H       -3.2566820    -1.5436220     0.0624630
  H       -3.2744260    -0.0723770    -0.9160080
  H       -3.2759870     0.0412750     0.8446610
units angstrom
no_reorient  #important for SAPT in psi4, default
symmetry c1  #important for SAPT in psi4, default
}

set PROPERTIES_ORIGIN ["COM"]
properties('MP2/aug-cc-pvtz', properties = ['dipole'])
--------------------------------------------------------------------------

    Molecular point group: c1
  Charge       = 0
  Multiplicity = 1
  Basis Set: AUG-CC-PVTZ
    Blend: AUG-CC-PVTZ
  Basis Set: (AUG-CC-PVTZ AUX)
    Blend: AUG-CC-PVTZ-JKFIT

    Orbital Energies [Eh]
    ---------------------

    Doubly Occupied:

       1A    -20.500090     2A    -15.615507     3A    -11.343979
       4A    -11.296415     5A    -11.268657     6A    -11.242446
       7A    -11.238272     8A    -11.236838     9A    -11.225370
      10A    -11.213078    11A     -1.361610    12A     -1.262923
      13A     -1.132215    14A     -1.062080    15A     -0.997830
      16A     -0.948453    17A     -0.935860    18A     -0.833986
      19A     -0.809583    20A     -0.726450    21A     -0.706332
      22A     -0.648585    23A     -0.620504    24A     -0.599830
      25A     -0.585946    26A     -0.582267    27A     -0.574525
      28A     -0.569803    29A     -0.568088    30A     -0.550196
      31A     -0.536678    32A     -0.505929    33A     -0.501455
      34A     -0.468413    35A     -0.415526    36A     -0.387590
      37A     -0.295425

  @DF-RHF Final Energy:  -438.82179974979863

   => Energetics <=

    Nuclear Repulsion Energy =            523.2697028208140182
    One-Electron Energy =               -1633.4455337774218151
    Two-Electron Energy =                 671.3540312068091680
    Total Energy =                       -438.8217997497986289
  Basis Set: (AUG-CC-PVTZ AUX)
    Blend: AUG-CC-PVTZ-RI
    Molecular point group: c1

    Geometry (in Angstrom), charge = 0, multiplicity = 1:

       Center              X                  Y                   Z               Mass
    ------------   -----------------  -----------------  -----------------  -----------------
         O            2.674477950353    -0.693006247871    -0.012387762254    15.994914619570
         N            0.615515950353    -1.677127247871     0.006413237746    14.003074004430
         C           -0.666586049647     0.738835752129    -0.010377762254    12.000000000000
         C            0.714460950353     0.710656752129     0.003767237746    12.000000000000
         C           -1.430970049647    -0.478318247871     0.002100237746    12.000000000000
         C            1.441146950353    -0.553746247871    -0.004202762254    12.000000000000
         C           -0.750164049647    -1.663329247871     0.006960237746    12.000000000000
         C           -1.418093049647     2.045167752129    -0.004588762254    12.000000000000
         C            1.572519950353     1.946818752129     0.011965237746    12.000000000000
         C           -2.934950049647    -0.472469247871    -0.002144762254    12.000000000000
         H           -1.240434049647    -2.632771247871     0.016155237746     1.007825032230
         H           -2.197172049647     2.051175752129    -0.773028762254     1.007825032230
         H           -0.819242849647     2.815657552129    -0.171697062254     1.007825032230
         H           -1.914361049647     2.206360752129     0.959669237746     1.007825032230
         H            1.121769950353    -2.558598247871     0.005781237746     1.007825032230
         H            1.455246950353     2.524386752129    -0.911107762254     1.007825032230
         H            2.617365950353     1.646107752129     0.097034237746     1.007825032230
         H            1.325284950353     2.603367752129     0.851507237746     1.007825032230
         H           -3.320478049647    -1.494093247871     0.062677237746     1.007825032230
         H           -3.338222049647    -0.022848247871    -0.915793762254     1.007825032230
         H           -3.339783049647     0.090803752129     0.844875237746     1.007825032230

  Basis Set: AUG-CC-PVTZ
    Blend: AUG-CC-PVTZ
  Basis Set: (AUG-CC-PVTZ AUX)
    Blend: AUG-CC-PVTZ-JKFIT
	 Reference Energy          =    -438.8217997497986289 [Eh]
	 Singles Energy            =      -0.0000000000000000 [Eh]
	 Same-Spin Energy          =      -0.4699948971084206 [Eh]
	 Opposite-Spin Energy      =      -1.4984181191886927 [Eh]
	 Correlation Energy        =      -1.9684130162971134 [Eh]
	 Total Energy              =    -440.7902127660957490 [Eh]

	 ================> DF-SCS-MP2 Energies <==================
	-----------------------------------------------------------
	 SCS Same-Spin Scale       =       0.3333333333333333 [-]
	 SCS Opposite-Spin Scale   =       1.2000000000000000 [-]
	 SCS Same-Spin Energy      =      -0.1566649657028069 [Eh]
	 SCS Opposite-Spin Energy  =      -1.7981017430264312 [Eh]
	 SCS Correlation Energy    =      -1.9547667087292380 [Eh]
	 SCS Total Energy          =    -440.7765664585278387 [Eh]
	-----------------------------------------------------------

  Dipole Moment: [D]
     X:    -4.4605      Y:    -0.2524      Z:     0.0366     Total:     4.4678

*** Psi4 exiting successfully. Buy a developer a beer!
