                               Psi4 1.4a3.dev225

  ==> Input File <==

--------------------------------------------------------------------------
#psi4
#
memory 32 gb

molecule  {
0 1
  O        2.7382740    -0.7425350    -0.0126020
  N        0.6793120    -1.7266560     0.0061990
  C       -0.6027900     0.6893070    -0.0105920
  C        0.7782570     0.6611280     0.0035530
  C       -1.3671740    -0.5278470     0.0018860
  C        1.5049430    -0.6032750    -0.0044170
  C       -0.6863680    -1.7128580     0.0067460
  C       -1.3542970     1.9956390    -0.0048030
  C        1.6363160     1.8972900     0.0117510
  C       -2.8711540    -0.5219980    -0.0023590
  H       -1.1766380    -2.6823000     0.0159410
  H       -2.1333760     2.0016470    -0.7732430
  H       -0.6949600     2.8439520    -0.1887900
  H       -1.8505650     2.1568320     0.9594550
  H        1.1855660    -2.6081270     0.0055670
  H        1.5083348     2.5275957    -0.9956077
  H        2.6811620     1.5965790     0.0968200
  H        1.3890810     2.5538390     0.8512930
  H       -3.2566820    -1.5436220     0.0624630
  H       -3.2744260    -0.0723770    -0.9160080
  H       -3.2759870     0.0412750     0.8446610
units angstrom
no_reorient  #important for SAPT in psi4, default
symmetry c1  #important for SAPT in psi4, default
}

set PROPERTIES_ORIGIN ["COM"]
properties('MP2/aug-cc-pvtz', properties = ['dipole'])
--------------------------------------------------------------------------

    Molecular point group: c1
  Charge       = 0
  Multiplicity = 1
  Basis Set: AUG-CC-PVTZ
    Blend: AUG-CC-PVTZ
  Basis Set: (AUG-CC-PVTZ AUX)
    Blend: AUG-CC-PVTZ-JKFIT

    Orbital Energies [Eh]
    ---------------------

    Doubly Occupied:

       1A    -20.500707     2A    -15.616287     3A    -11.344786
       4A    -11.297397     5A    -11.269939     6A    -11.243419
       7A    -11.239285     8A    -11.237526     9A    -11.236872
      10A    -11.224772    11A     -1.362281    12A     -1.263686
      13A     -1.131749    14A     -1.061701    15A     -0.990329
      16A     -0.949158    17A     -0.929781    18A     -0.829927
      19A     -0.808386    20A     -0.726557    21A     -0.705394
      22A     -0.645527    23A     -0.620175    24A     -0.598657
      25A     -0.586480    26A     -0.581968    27A     -0.570391
      28A     -0.569131    29A     -0.561668    30A     -0.541476
      31A     -0.530705    32A     -0.505447    33A     -0.498151
      34A     -0.468808    35A     -0.416204    36A     -0.387446
      37A     -0.295800

  @DF-RHF Final Energy:  -438.82132207952122

   => Energetics <=

    Nuclear Repulsion Energy =            522.3856628423309303
    One-Electron Energy =               -1631.7180260316863496
    Two-Electron Energy =                 670.5110411098341956
    Total Energy =                       -438.8213220795212237
  Basis Set: (AUG-CC-PVTZ AUX)
    Blend: AUG-CC-PVTZ-RI
    Molecular point group: c1

    Geometry (in Angstrom), charge = 0, multiplicity = 1:

       Center              X                  Y                   Z               Mass
    ------------   -----------------  -----------------  -----------------  -----------------
         O            2.674111984262    -0.693966115411    -0.011644014135    15.994914619570
         N            0.615149984262    -1.678087115411     0.007156985865    14.003074004430
         C           -0.666952015738     0.737875884589    -0.009634014135    12.000000000000
         C            0.714094984262     0.709696884589     0.004510985865    12.000000000000
         C           -1.431336015738    -0.479278115411     0.002843985865    12.000000000000
         C            1.440780984262    -0.554706115411    -0.003459014135    12.000000000000
         C           -0.750530015738    -1.664289115411     0.007703985865    12.000000000000
         C           -1.418459015738     2.044207884589    -0.003845014135    12.000000000000
         C            1.572153984262     1.945858884589     0.012708985865    12.000000000000
         C           -2.935316015738    -0.473429115411    -0.001401014135    12.000000000000
         H           -1.240800015738    -2.633731115411     0.016898985865     1.007825032230
         H           -2.197538015738     2.050215884589    -0.772285014135     1.007825032230
         H           -0.759122015738     2.892520884589    -0.187832014135     1.007825032230
         H           -1.914727015738     2.205400884589     0.960412985865     1.007825032230
         H            1.121403984262    -2.559558115411     0.006524985865     1.007825032230
         H            1.444172784262     2.576164584589    -0.994649714135     1.007825032230
         H            2.616999984262     1.645147884589     0.097777985865     1.007825032230
         H            1.324918984262     2.602407884589     0.852250985865     1.007825032230
         H           -3.320844015738    -1.495053115411     0.063420985865     1.007825032230
         H           -3.338588015738    -0.023808115411    -0.915050014135     1.007825032230
         H           -3.340149015738     0.089843884589     0.845618985865     1.007825032230

  Basis Set: AUG-CC-PVTZ
    Blend: AUG-CC-PVTZ
  Basis Set: (AUG-CC-PVTZ AUX)
    Blend: AUG-CC-PVTZ-JKFIT
	 Reference Energy          =    -438.8213220795212237 [Eh]
	 Singles Energy            =      -0.0000000000000000 [Eh]
	 Same-Spin Energy          =      -0.4701577632791233 [Eh]
	 Opposite-Spin Energy      =      -1.4997971549071427 [Eh]
	 Correlation Energy        =      -1.9699549181862661 [Eh]
	 Total Energy              =    -440.7912769977074845 [Eh]

	 ================> DF-SCS-MP2 Energies <==================
	-----------------------------------------------------------
	 SCS Same-Spin Scale       =       0.3333333333333333 [-]
	 SCS Opposite-Spin Scale   =       1.2000000000000000 [-]
	 SCS Same-Spin Energy      =      -0.1567192544263744 [Eh]
	 SCS Opposite-Spin Energy  =      -1.7997565858885711 [Eh]
	 SCS Correlation Energy    =      -1.9564758403149456 [Eh]
	 SCS Total Energy          =    -440.7777979198361891 [Eh]
	-----------------------------------------------------------

  Dipole Moment: [D]
     X:    -4.4725      Y:    -0.3427      Z:     0.0804     Total:     4.4863

*** Psi4 exiting successfully. Buy a developer a beer!
