                               Psi4 1.4a3.dev225

  ==> Input File <==

--------------------------------------------------------------------------
#psi4
#
memory 32 gb

molecule  {
0 1
  O        2.7382740    -0.7425350    -0.0126020
  N        0.6793120    -1.7266560     0.0061990
  C       -0.6027900     0.6893070    -0.0105920
  C        0.7782570     0.6611280     0.0035530
  C       -1.3671740    -0.5278470     0.0018860
  C        1.5049430    -0.6032750    -0.0044170
  C       -0.6863680    -1.7128580     0.0067460
  C       -1.3542970     1.9956390    -0.0048030
  C        1.5792946     1.8151422     0.0112062
  C       -2.8711540    -0.5219980    -0.0023590
  H       -1.1766380    -2.6823000     0.0159410
  H       -2.1333760     2.0016470    -0.7732430
  H       -0.6949600     2.8439520    -0.1887900
  H       -1.8505650     2.1568320     0.9594550
  H        1.1855660    -2.6081270     0.0055670
  H        1.5190430     2.4748580    -0.9113220
  H        2.6811620     1.5965790     0.0968200
  H        1.3890810     2.5538390     0.8512930
  H       -3.2566820    -1.5436220     0.0624630
  H       -3.2744260    -0.0723770    -0.9160080
  H       -3.2759870     0.0412750     0.8446610
units angstrom
no_reorient  #important for SAPT in psi4, default
symmetry c1  #important for SAPT in psi4, default
}

set PROPERTIES_ORIGIN ["COM"]
properties('MP2/aug-cc-pvtz', properties = ['dipole'])
--------------------------------------------------------------------------

    Molecular point group: c1
  Charge       = 0
  Multiplicity = 1
  Basis Set: AUG-CC-PVTZ
    Blend: AUG-CC-PVTZ
  Basis Set: (AUG-CC-PVTZ AUX)
    Blend: AUG-CC-PVTZ-JKFIT

    Orbital Energies [Eh]
    ---------------------

    Doubly Occupied:

       1A    -20.500804     2A    -15.616209     3A    -11.344354
       4A    -11.297327     5A    -11.269737     6A    -11.243392
       7A    -11.237497     8A    -11.236967     9A    -11.233548
      10A    -11.215982    11A     -1.362543    12A     -1.263629
      13A     -1.136552    14A     -1.070294    15A     -0.995727
      16A     -0.949245    17A     -0.932390    18A     -0.830498
      19A     -0.807124    20A     -0.727256    21A     -0.708903
      22A     -0.647534    23A     -0.621592    24A     -0.601463
      25A     -0.595961    26A     -0.582649    27A     -0.574531
      28A     -0.570178    29A     -0.563178    30A     -0.538264
      31A     -0.530820    32A     -0.509994    33A     -0.488301
      34A     -0.468508    35A     -0.417141    36A     -0.384891
      37A     -0.294119

  @DF-RHF Final Energy:  -438.81506629442492

   => Energetics <=

    Nuclear Repulsion Energy =            524.7705728594859238
    One-Electron Energy =               -1636.4330719079196115
    Two-Electron Energy =                 672.8474327540088780
    Total Energy =                       -438.8150662944249234
  Basis Set: (AUG-CC-PVTZ AUX)
    Blend: AUG-CC-PVTZ-RI
    Molecular point group: c1

    Geometry (in Angstrom), charge = 0, multiplicity = 1:

       Center              X                  Y                   Z               Mass
    ------------   -----------------  -----------------  -----------------  -----------------
         O            2.679024771266    -0.686387379094    -0.012215981701    15.994914619570
         N            0.620062771266    -1.670508379094     0.006585018299    14.003074004430
         C           -0.662039228734     0.745454620906    -0.010205981701    12.000000000000
         C            0.719007771266     0.717275620906     0.003939018299    12.000000000000
         C           -1.426423228734    -0.471699379094     0.002272018299    12.000000000000
         C            1.445693771266    -0.547127379094    -0.004030981701    12.000000000000
         C           -0.745617228734    -1.656710379094     0.007132018299    12.000000000000
         C           -1.413546228734     2.051786620906    -0.004416981701    12.000000000000
         C            1.520045371266     1.871289820906     0.011592218299    12.000000000000
         C           -2.930403228734    -0.465850379094    -0.001972981701    12.000000000000
         H           -1.235887228734    -2.626152379094     0.016327018299     1.007825032230
         H           -2.192625228734     2.057794620906    -0.772856981701     1.007825032230
         H           -0.754209228734     2.900099620906    -0.188403981701     1.007825032230
         H           -1.909814228734     2.212979620906     0.959841018299     1.007825032230
         H            1.126316771266    -2.551979379094     0.005953018299     1.007825032230
         H            1.459793771266     2.531005620906    -0.910935981701     1.007825032230
         H            2.621912771266     1.652726620906     0.097206018299     1.007825032230
         H            1.329831771266     2.609986620906     0.851679018299     1.007825032230
         H           -3.315931228734    -1.487474379094     0.062849018299     1.007825032230
         H           -3.333675228734    -0.016229379094    -0.915621981701     1.007825032230
         H           -3.335236228734     0.097422620906     0.845047018299     1.007825032230

  Basis Set: AUG-CC-PVTZ
    Blend: AUG-CC-PVTZ
  Basis Set: (AUG-CC-PVTZ AUX)
    Blend: AUG-CC-PVTZ-JKFIT
	 Reference Energy          =    -438.8150662944249234 [Eh]
	 Singles Energy            =      -0.0000000000000000 [Eh]
	 Same-Spin Energy          =      -0.4717011564298871 [Eh]
	 Opposite-Spin Energy      =      -1.5007994520316947 [Eh]
	 Correlation Energy        =      -1.9725006084615817 [Eh]
	 Total Energy              =    -440.7875669028865104 [Eh]

	 ================> DF-SCS-MP2 Energies <==================
	-----------------------------------------------------------
	 SCS Same-Spin Scale       =       0.3333333333333333 [-]
	 SCS Opposite-Spin Scale   =       1.2000000000000000 [-]
	 SCS Same-Spin Energy      =      -0.1572337188099623 [Eh]
	 SCS Opposite-Spin Energy  =      -1.8009593424380337 [Eh]
	 SCS Correlation Energy    =      -1.9581930612479961 [Eh]
	 SCS Total Energy          =    -440.7732593556729057 [Eh]
	-----------------------------------------------------------

  Dipole Moment: [D]
     X:    -4.4273      Y:    -0.2895      Z:     0.0410     Total:     4.4369

*** Psi4 exiting successfully. Buy a developer a beer!
