                               Psi4 1.4a3.dev225

  ==> Input File <==

--------------------------------------------------------------------------
#psi4
#
memory 32 gb

molecule  {
0 1
  O        2.7382740    -0.7425350    -0.0126020
  N        0.6793120    -1.7266560     0.0061990
  C       -0.6027900     0.6893070    -0.0105920
  C        0.7782570     0.6611280     0.0035530
  C       -1.3671740    -0.5278470     0.0018860
  C        1.5345527    -0.5629870    -0.0047977
  C       -0.6863680    -1.7128580     0.0067460
  C       -1.3542970     1.9956390    -0.0048030
  C        1.6363160     1.8972900     0.0117510
  C       -2.8711540    -0.5219980    -0.0023590
  H       -1.1766380    -2.6823000     0.0159410
  H       -2.1333760     2.0016470    -0.7732430
  H       -0.6949600     2.8439520    -0.1887900
  H       -1.8505650     2.1568320     0.9594550
  H        1.1855660    -2.6081270     0.0055670
  H        1.5190430     2.4748580    -0.9113220
  H        2.6811620     1.5965790     0.0968200
  H        1.3890810     2.5538390     0.8512930
  H       -3.2566820    -1.5436220     0.0624630
  H       -3.2744260    -0.0723770    -0.9160080
  H       -3.2759870     0.0412750     0.8446610
units angstrom
no_reorient  #important for SAPT in psi4, default
symmetry c1  #important for SAPT in psi4, default
}

set PROPERTIES_ORIGIN ["COM"]
properties('MP2/aug-cc-pvtz', properties = ['dipole'])
--------------------------------------------------------------------------

    Molecular point group: c1
  Charge       = 0
  Multiplicity = 1
  Basis Set: AUG-CC-PVTZ
    Blend: AUG-CC-PVTZ
  Basis Set: (AUG-CC-PVTZ AUX)
    Blend: AUG-CC-PVTZ-JKFIT

    Orbital Energies [Eh]
    ---------------------

    Doubly Occupied:

       1A    -20.507347     2A    -15.609503     3A    -11.345973
       4A    -11.296244     5A    -11.271618     6A    -11.238666
       7A    -11.237532     8A    -11.235380     9A    -11.234878
      10A    -11.212462    11A     -1.374477    12A     -1.256513
      13A     -1.129571    14A     -1.061918    15A     -0.992271
      16A     -0.943830    17A     -0.931333    18A     -0.831366
      19A     -0.802665    20A     -0.721213    21A     -0.705481
      22A     -0.646256    23A     -0.619015    24A     -0.605752
      25A     -0.584534    26A     -0.581188    27A     -0.570326
      28A     -0.568797    29A     -0.560801    30A     -0.548748
      31A     -0.533208    32A     -0.508619    33A     -0.498986
      34A     -0.476861    35A     -0.419290    36A     -0.385770
      37A     -0.293904

  @DF-RHF Final Energy:  -438.82491539885149

   => Energetics <=

    Nuclear Repulsion Energy =            522.7299628302882866
    One-Electron Energy =               -1632.4251681205018940
    Two-Electron Energy =                 670.8702898913620629
    Total Energy =                       -438.8249153988515445
  Basis Set: (AUG-CC-PVTZ AUX)
    Blend: AUG-CC-PVTZ-RI
    Molecular point group: c1

    Geometry (in Angstrom), charge = 0, multiplicity = 1:

       Center              X                  Y                   Z               Mass
    ------------   -----------------  -----------------  -----------------  -----------------
         O            2.671441298980    -0.697105106285    -0.012230346609    15.994914619570
         N            0.612479298980    -1.681226106285     0.006570653391    14.003074004430
         C           -0.669622701020     0.734736893715    -0.010220346609    12.000000000000
         C            0.711424298980     0.706557893715     0.003924653391    12.000000000000
         C           -1.434006701020    -0.482417106285     0.002257653391    12.000000000000
         C            1.467719998980    -0.517557106285    -0.004426046609    12.000000000000
         C           -0.753200701020    -1.667428106285     0.007117653391    12.000000000000
         C           -1.421129701020     2.041068893715    -0.004431346609    12.000000000000
         C            1.569483298980     1.942719893715     0.012122653391    12.000000000000
         C           -2.937986701020    -0.476568106285    -0.001987346609    12.000000000000
         H           -1.243470701020    -2.636870106285     0.016312653391     1.007825032230
         H           -2.200208701020     2.047076893715    -0.772871346609     1.007825032230
         H           -0.761792701020     2.889381893715    -0.188418346609     1.007825032230
         H           -1.917397701020     2.202261893715     0.959826653391     1.007825032230
         H            1.118733298980    -2.562697106285     0.005938653391     1.007825032230
         H            1.452210298980     2.520287893715    -0.910950346609     1.007825032230
         H            2.614329298980     1.642008893715     0.097191653391     1.007825032230
         H            1.322248298980     2.599268893715     0.851664653391     1.007825032230
         H           -3.323514701020    -1.498192106285     0.062834653391     1.007825032230
         H           -3.341258701020    -0.026947106285    -0.915636346609     1.007825032230
         H           -3.342819701020     0.086704893715     0.845032653391     1.007825032230

  Basis Set: AUG-CC-PVTZ
    Blend: AUG-CC-PVTZ
  Basis Set: (AUG-CC-PVTZ AUX)
    Blend: AUG-CC-PVTZ-JKFIT
	 Reference Energy          =    -438.8249153988514877 [Eh]
	 Singles Energy            =      -0.0000000000000000 [Eh]
	 Same-Spin Energy          =      -0.4703113828881346 [Eh]
	 Opposite-Spin Energy      =      -1.4991964699766773 [Eh]
	 Correlation Energy        =      -1.9695078528648118 [Eh]
	 Total Energy              =    -440.7944232517162959 [Eh]

	 ================> DF-SCS-MP2 Energies <==================
	-----------------------------------------------------------
	 SCS Same-Spin Scale       =       0.3333333333333333 [-]
	 SCS Opposite-Spin Scale   =       1.2000000000000000 [-]
	 SCS Same-Spin Energy      =      -0.1567704609627115 [Eh]
	 SCS Opposite-Spin Energy  =      -1.7990357639720127 [Eh]
	 SCS Correlation Energy    =      -1.9558062249347241 [Eh]
	 SCS Total Energy          =    -440.7807216237862349 [Eh]
	-----------------------------------------------------------

  Dipole Moment: [D]
     X:    -4.1949      Y:    -0.2091      Z:     0.0389     Total:     4.2003

*** Psi4 exiting successfully. Buy a developer a beer!
