                               Psi4 1.4a3.dev225

  ==> Input File <==

--------------------------------------------------------------------------
#psi4
#
memory 32 gb

molecule  {
0 1
  O        2.7382740    -0.7425350    -0.0126020
  N        0.6793120    -1.7266560     0.0061990
  C       -0.6027900     0.6893070    -0.0105920
  C        0.7782570     0.6611280     0.0035530
  C       -1.3671740    -0.5278470     0.0018860
  C        1.5049430    -0.6032750    -0.0044170
  C       -0.7706889    -1.7574626     0.0066197
  C       -1.3542970     1.9956390    -0.0048030
  C        1.6363160     1.8972900     0.0117510
  C       -2.8711540    -0.5219980    -0.0023590
  H       -1.1766380    -2.6823000     0.0159410
  H       -2.1333760     2.0016470    -0.7732430
  H       -0.6949600     2.8439520    -0.1887900
  H       -1.8505650     2.1568320     0.9594550
  H        1.1855660    -2.6081270     0.0055670
  H        1.5190430     2.4748580    -0.9113220
  H        2.6811620     1.5965790     0.0968200
  H        1.3890810     2.5538390     0.8512930
  H       -3.2566820    -1.5436220     0.0624630
  H       -3.2744260    -0.0723770    -0.9160080
  H       -3.2759870     0.0412750     0.8446610
units angstrom
no_reorient  #important for SAPT in psi4, default
symmetry c1  #important for SAPT in psi4, default
}

set PROPERTIES_ORIGIN ["COM"]
properties('MP2/aug-cc-pvtz', properties = ['dipole'])
--------------------------------------------------------------------------

    Molecular point group: c1
  Charge       = 0
  Multiplicity = 1
  Basis Set: AUG-CC-PVTZ
    Blend: AUG-CC-PVTZ
  Basis Set: (AUG-CC-PVTZ AUX)
    Blend: AUG-CC-PVTZ-JKFIT

    Orbital Energies [Eh]
    ---------------------

    Doubly Occupied:

       1A    -20.499715     2A    -15.607241     3A    -11.343814
       4A    -11.294238     5A    -11.270793     6A    -11.250343
       7A    -11.244058     8A    -11.238906     9A    -11.237162
      10A    -11.214938    11A     -1.356965    12A     -1.239347
      13A     -1.130320    14A     -1.066745    15A     -0.993362
      16A     -0.947106    17A     -0.934041    18A     -0.833615
      19A     -0.806129    20A     -0.710366    21A     -0.701329
      22A     -0.665472    23A     -0.618087    24A     -0.600569
      25A     -0.584478    26A     -0.579485    27A     -0.572035
      28A     -0.569608    29A     -0.563020    30A     -0.549108
      31A     -0.531171    32A     -0.506337    33A     -0.503049
      34A     -0.460770    35A     -0.415470    36A     -0.385978
      37A     -0.301635

  @DF-RHF Final Energy:  -438.81458830615895

   => Energetics <=

    Nuclear Repulsion Energy =            521.2788370056337044
    One-Electron Energy =               -1629.5332400796912680
    Two-Electron Energy =                 669.4398147678986106
    Total Energy =                       -438.8145883061589529
  Basis Set: (AUG-CC-PVTZ AUX)
    Blend: AUG-CC-PVTZ-RI
    Molecular point group: c1

    Geometry (in Angstrom), charge = 0, multiplicity = 1:

       Center              X                  Y                   Z               Mass
    ------------   -----------------  -----------------  -----------------  -----------------
         O            2.681414501994    -0.689673817990    -0.012252616156    15.994914619570
         N            0.622452501994    -1.673794817990     0.006548383844    14.003074004430
         C           -0.659649498006     0.742168182010    -0.010242616156    12.000000000000
         C            0.721397501994     0.713989182010     0.003902383844    12.000000000000
         C           -1.424033498006    -0.474985817990     0.002235383844    12.000000000000
         C            1.448083501994    -0.550413817990    -0.004067616156    12.000000000000
         C           -0.827548398006    -1.704601417990     0.006969083844    12.000000000000
         C           -1.411156498006     2.048500182010    -0.004453616156    12.000000000000
         C            1.579456501994     1.950151182010     0.012100383844    12.000000000000
         C           -2.928013498006    -0.469136817990    -0.002009616156    12.000000000000
         H           -1.233497498006    -2.629438817990     0.016290383844     1.007825032230
         H           -2.190235498006     2.054508182010    -0.772893616156     1.007825032230
         H           -0.751819498006     2.896813182010    -0.188440616156     1.007825032230
         H           -1.907424498006     2.209693182010     0.959804383844     1.007825032230
         H            1.128706501994    -2.555265817990     0.005916383844     1.007825032230
         H            1.462183501994     2.527719182010    -0.910972616156     1.007825032230
         H            2.624302501994     1.649440182010     0.097169383844     1.007825032230
         H            1.332221501994     2.606700182010     0.851642383844     1.007825032230
         H           -3.313541498006    -1.490760817990     0.062812383844     1.007825032230
         H           -3.331285498006    -0.019515817990    -0.915658616156     1.007825032230
         H           -3.332846498006     0.094136182010     0.845010383844     1.007825032230

  Basis Set: AUG-CC-PVTZ
    Blend: AUG-CC-PVTZ
  Basis Set: (AUG-CC-PVTZ AUX)
    Blend: AUG-CC-PVTZ-JKFIT
	 Reference Energy          =    -438.8145883061589529 [Eh]
	 Singles Energy            =      -0.0000000000000000 [Eh]
	 Same-Spin Energy          =      -0.4697842562810259 [Eh]
	 Opposite-Spin Energy      =      -1.5007543392347973 [Eh]
	 Correlation Energy        =      -1.9705385955158232 [Eh]
	 Total Energy              =    -440.7851269016748006 [Eh]

	 ================> DF-SCS-MP2 Energies <==================
	-----------------------------------------------------------
	 SCS Same-Spin Scale       =       0.3333333333333333 [-]
	 SCS Opposite-Spin Scale   =       1.2000000000000000 [-]
	 SCS Same-Spin Energy      =      -0.1565947520936753 [Eh]
	 SCS Opposite-Spin Energy  =      -1.8009052070817566 [Eh]
	 SCS Correlation Energy    =      -1.9574999591754318 [Eh]
	 SCS Total Energy          =    -440.7720882653343892 [Eh]
	-----------------------------------------------------------

  Dipole Moment: [D]
     X:    -4.5909      Y:    -0.1308      Z:     0.0407     Total:     4.5930

*** Psi4 exiting successfully. Buy a developer a beer!
