                               Psi4 1.4a3.dev225

  ==> Input File <==

--------------------------------------------------------------------------
#psi4
#
memory 32 gb

molecule  {
0 1
  O        2.7382740    -0.7425350    -0.0126020
  N        0.6793120    -1.7266560     0.0061990
  C       -0.6027900     0.6893070    -0.0105920
  C        0.7782570     0.6611280     0.0035530
  C       -1.3671740    -0.5278470     0.0018860
  C        1.5049430    -0.6032750    -0.0044170
  C       -0.6863680    -1.7128580     0.0067460
  C       -1.3542970     1.9956390    -0.0048030
  C        1.6363160     1.8972900     0.0117510
  C       -2.8711540    -0.5219980    -0.0023590
  H       -1.1766380    -2.6823000     0.0159410
  H       -2.0621820     2.0010980    -0.7030212
  H       -0.6949600     2.8439520    -0.1887900
  H       -1.8505650     2.1568320     0.9594550
  H        1.1855660    -2.6081270     0.0055670
  H        1.5190430     2.4748580    -0.9113220
  H        2.6811620     1.5965790     0.0968200
  H        1.3890810     2.5538390     0.8512930
  H       -3.2566820    -1.5436220     0.0624630
  H       -3.2744260    -0.0723770    -0.9160080
  H       -3.2759870     0.0412750     0.8446610
units angstrom
no_reorient  #important for SAPT in psi4, default
symmetry c1  #important for SAPT in psi4, default
}

set PROPERTIES_ORIGIN ["COM"]
properties('MP2/aug-cc-pvtz', properties = ['dipole'])
--------------------------------------------------------------------------

    Molecular point group: c1
  Charge       = 0
  Multiplicity = 1
  Basis Set: AUG-CC-PVTZ
    Blend: AUG-CC-PVTZ
  Basis Set: (AUG-CC-PVTZ AUX)
    Blend: AUG-CC-PVTZ-JKFIT

    Orbital Energies [Eh]
    ---------------------

    Doubly Occupied:

       1A    -20.499950     2A    -15.615582     3A    -11.343810
       4A    -11.296709     5A    -11.268501     6A    -11.242925
       7A    -11.237967     8A    -11.237585     9A    -11.224822
      10A    -11.212417    11A     -1.361509    12A     -1.262970
      13A     -1.132265    14A     -1.061885    15A     -0.998303
      16A     -0.948973    17A     -0.935179    18A     -0.833505
      19A     -0.810102    20A     -0.726148    21A     -0.705904
      22A     -0.645824    23A     -0.623898    24A     -0.600152
      25A     -0.589055    26A     -0.584030    27A     -0.574965
      28A     -0.569193    29A     -0.563276    30A     -0.551258
      31A     -0.536139    32A     -0.505726    33A     -0.499140
      34A     -0.468437    35A     -0.415436    36A     -0.388113
      37A     -0.295437

  @DF-RHF Final Energy:  -438.82178483100989

   => Energetics <=

    Nuclear Repulsion Energy =            523.2915336746616504
    One-Electron Energy =               -1633.4924565434912438
    Two-Electron Energy =                 671.3791380378196436
    Total Energy =                       -438.8217848310099498
  Basis Set: (AUG-CC-PVTZ AUX)
    Blend: AUG-CC-PVTZ-RI
    Molecular point group: c1

    Geometry (in Angstrom), charge = 0, multiplicity = 1:

       Center              X                  Y                   Z               Mass
    ------------   -----------------  -----------------  -----------------  -----------------
         O            2.673509849448    -0.693574358203    -0.012779934108    15.994914619570
         N            0.614547849448    -1.677695358203     0.006021065892    14.003074004430
         C           -0.667554150552     0.738267641797    -0.010769934108    12.000000000000
         C            0.713492849448     0.710088641797     0.003375065892    12.000000000000
         C           -1.431938150552    -0.478886358203     0.001708065892    12.000000000000
         C            1.440178849448    -0.554314358203    -0.004594934108    12.000000000000
         C           -0.751132150552    -1.663897358203     0.006568065892    12.000000000000
         C           -1.419061150552     2.044599641797    -0.004980934108    12.000000000000
         C            1.571551849448     1.946250641797     0.011573065892    12.000000000000
         C           -2.935918150552    -0.473037358203    -0.002536934108    12.000000000000
         H           -1.241402150552    -2.633339358203     0.015763065892     1.007825032230
         H           -2.126946150552     2.050058641797    -0.703199134108     1.007825032230
         H           -0.759724150552     2.892912641797    -0.188967934108     1.007825032230
         H           -1.915329150552     2.205792641797     0.959277065892     1.007825032230
         H            1.120801849448    -2.559166358203     0.005389065892     1.007825032230
         H            1.454278849448     2.523818641797    -0.911499934108     1.007825032230
         H            2.616397849448     1.645539641797     0.096642065892     1.007825032230
         H            1.324316849448     2.602799641797     0.851115065892     1.007825032230
         H           -3.321446150552    -1.494661358203     0.062285065892     1.007825032230
         H           -3.339190150552    -0.023416358203    -0.916185934108     1.007825032230
         H           -3.340751150552     0.090235641797     0.844483065892     1.007825032230

  Basis Set: AUG-CC-PVTZ
    Blend: AUG-CC-PVTZ
  Basis Set: (AUG-CC-PVTZ AUX)
    Blend: AUG-CC-PVTZ-JKFIT
	 Reference Energy          =    -438.8217848310098930 [Eh]
	 Singles Energy            =      -0.0000000000000000 [Eh]
	 Same-Spin Energy          =      -0.4700948463190495 [Eh]
	 Opposite-Spin Energy      =      -1.4986025604175159 [Eh]
	 Correlation Energy        =      -1.9686974067365655 [Eh]
	 Total Energy              =    -440.7904822377464598 [Eh]

	 ================> DF-SCS-MP2 Energies <==================
	-----------------------------------------------------------
	 SCS Same-Spin Scale       =       0.3333333333333333 [-]
	 SCS Opposite-Spin Scale   =       1.2000000000000000 [-]
	 SCS Same-Spin Energy      =      -0.1566982821063498 [Eh]
	 SCS Opposite-Spin Energy  =      -1.7983230725010191 [Eh]
	 SCS Correlation Energy    =      -1.9550213546073689 [Eh]
	 SCS Total Energy          =    -440.7768061856172608 [Eh]
	-----------------------------------------------------------

  Dipole Moment: [D]
     X:    -4.4959      Y:    -0.2799      Z:     0.0210     Total:     4.5046

*** Psi4 exiting successfully. Buy a developer a beer!
