                               Psi4 1.4a3.dev225

  ==> Input File <==

--------------------------------------------------------------------------
#psi4
#
memory 32 gb

molecule  {
0 1
  O        2.7382740    -0.7425350    -0.0126020
  N        0.6793120    -1.7266560     0.0061990
  C       -0.6027900     0.6893070    -0.0105920
  C        0.7782570     0.6611280     0.0035530
  C       -1.3671740    -0.5278470     0.0018860
  C        1.5049430    -0.6032750    -0.0044170
  C       -0.6863680    -1.7128580     0.0067460
  C       -1.3542970     1.9956390    -0.0048030
  C        1.6363160     1.8972900     0.0117510
  C       -2.8711540    -0.5219980    -0.0023590
  H       -1.1766380    -2.6823000     0.0159410
  H       -2.1333760     2.0016470    -0.7732430
  H       -0.6949600     2.8439520    -0.1887900
  H       -1.8505650     2.1568320     0.9594550
  H        1.1855660    -2.6081270     0.0055670
  H        1.5190430     2.4748580    -0.9113220
  H        2.6620007     1.6020937     0.0952599
  H        1.3890810     2.5538390     0.8512930
  H       -3.2566820    -1.5436220     0.0624630
  H       -3.2744260    -0.0723770    -0.9160080
  H       -3.2759870     0.0412750     0.8446610
units angstrom
no_reorient  #important for SAPT in psi4, default
symmetry c1  #important for SAPT in psi4, default
}

set PROPERTIES_ORIGIN ["COM"]
properties('MP2/aug-cc-pvtz', properties = ['dipole'])
--------------------------------------------------------------------------

    Molecular point group: c1
  Charge       = 0
  Multiplicity = 1
  Basis Set: AUG-CC-PVTZ
    Blend: AUG-CC-PVTZ
  Basis Set: (AUG-CC-PVTZ AUX)
    Blend: AUG-CC-PVTZ-JKFIT

    Orbital Energies [Eh]
    ---------------------

    Doubly Occupied:

       1A    -20.500227     2A    -15.615720     3A    -11.344118
       4A    -11.296749     5A    -11.269188     6A    -11.242961
       7A    -11.238370     8A    -11.237235     9A    -11.236943
      10A    -11.210739    11A     -1.361747    12A     -1.263127
      13A     -1.131519    14A     -1.062207    15A     -0.991591
      16A     -0.948828    17A     -0.935081    18A     -0.830331
      19A     -0.810213    20A     -0.726320    21A     -0.705569
      22A     -0.645444    23A     -0.620678    24A     -0.598359
      25A     -0.586414    26A     -0.582376    27A     -0.571710
      28A     -0.569946    29A     -0.561570    30A     -0.550177
      31A     -0.534779    32A     -0.508020    33A     -0.499407
      34A     -0.468586    35A     -0.415770    36A     -0.387834
      37A     -0.295578

  @DF-RHF Final Energy:  -438.82778142382807

   => Energetics <=

    Nuclear Repulsion Energy =            522.9031105644938862
    One-Electron Energy =               -1632.7509215079724072
    Two-Electron Energy =                 671.0200295196506204
    Total Energy =                       -438.8277814238280143
  Basis Set: (AUG-CC-PVTZ AUX)
    Blend: AUG-CC-PVTZ-RI
    Molecular point group: c1

    Geometry (in Angstrom), charge = 0, multiplicity = 1:

       Center              X                  Y                   Z               Mass
    ------------   -----------------  -----------------  -----------------  -----------------
         O            2.674174130404    -0.693618937773    -0.012252202484    15.994914619570
         N            0.615212130404    -1.677739937773     0.006548797516    14.003074004430
         C           -0.666889869596     0.738223062227    -0.010242202484    12.000000000000
         C            0.714157130404     0.710044062227     0.003902797516    12.000000000000
         C           -1.431273869596    -0.478930937773     0.002235797516    12.000000000000
         C            1.440843130404    -0.554358937773    -0.004067202484    12.000000000000
         C           -0.750467869596    -1.663941937773     0.007095797516    12.000000000000
         C           -1.418396869596     2.044555062227    -0.004453202484    12.000000000000
         C            1.572216130404     1.946206062227     0.012100797516    12.000000000000
         C           -2.935253869596    -0.473081937773    -0.002009202484    12.000000000000
         H           -1.240737869596    -2.633383937773     0.016290797516     1.007825032230
         H           -2.197475869596     2.050563062227    -0.772893202484     1.007825032230
         H           -0.759059869596     2.892868062227    -0.188440202484     1.007825032230
         H           -1.914664869596     2.205748062227     0.959804797516     1.007825032230
         H            1.121466130404    -2.559210937773     0.005916797516     1.007825032230
         H            1.454943130404     2.523774062227    -0.910972202484     1.007825032230
         H            2.597900830404     1.651009762227     0.095609697516     1.007825032230
         H            1.324981130404     2.602755062227     0.851642797516     1.007825032230
         H           -3.320781869596    -1.494705937773     0.062812797516     1.007825032230
         H           -3.338525869596    -0.023460937773    -0.915658202484     1.007825032230
         H           -3.340086869596     0.090191062227     0.845010797516     1.007825032230

  Basis Set: AUG-CC-PVTZ
    Blend: AUG-CC-PVTZ
  Basis Set: (AUG-CC-PVTZ AUX)
    Blend: AUG-CC-PVTZ-JKFIT
	 Reference Energy          =    -438.8277814238280712 [Eh]
	 Singles Energy            =      -0.0000000000000000 [Eh]
	 Same-Spin Energy          =      -0.4701075807088718 [Eh]
	 Opposite-Spin Energy      =      -1.4989904251001840 [Eh]
	 Correlation Energy        =      -1.9690980058090557 [Eh]
	 Total Energy              =    -440.7968794296371016 [Eh]

	 ================> DF-SCS-MP2 Energies <==================
	-----------------------------------------------------------
	 SCS Same-Spin Scale       =       0.3333333333333333 [-]
	 SCS Opposite-Spin Scale   =       1.2000000000000000 [-]
	 SCS Same-Spin Energy      =      -0.1567025269029573 [Eh]
	 SCS Opposite-Spin Energy  =      -1.7987885101202208 [Eh]
	 SCS Correlation Energy    =      -1.9554910370231779 [Eh]
	 SCS Total Energy          =    -440.7832724608512649 [Eh]
	-----------------------------------------------------------

  Dipole Moment: [D]
     X:    -4.4598      Y:    -0.2861      Z:     0.0421     Total:     4.4692

*** Psi4 exiting successfully. Buy a developer a beer!
