                               Psi4 1.4a3.dev225

  ==> Input File <==

--------------------------------------------------------------------------
#psi4
#
memory 32 gb

molecule  {
0 1
  O        2.7382740    -0.7425350    -0.0126020
  N        0.6793120    -1.7266560     0.0061990
  C       -0.6027900     0.6893070    -0.0105920
  C        0.7782570     0.6611280     0.0035530
  C       -1.3458164    -0.5410036     0.0016594
  C        1.5049430    -0.6032750    -0.0044170
  C       -0.6863680    -1.7128580     0.0067460
  C       -1.3542970     1.9956390    -0.0048030
  C        1.6363160     1.8972900     0.0117510
  C       -2.8711540    -0.5219980    -0.0023590
  H       -1.1766380    -2.6823000     0.0159410
  H       -2.1333760     2.0016470    -0.7732430
  H       -0.6949600     2.8439520    -0.1887900
  H       -1.8505650     2.1568320     0.9594550
  H        1.1855660    -2.6081270     0.0055670
  H        1.5190430     2.4748580    -0.9113220
  H        2.6811620     1.5965790     0.0968200
  H        1.3890810     2.5538390     0.8512930
  H       -3.2566820    -1.5436220     0.0624630
  H       -3.2744260    -0.0723770    -0.9160080
  H       -3.2759870     0.0412750     0.8446610
units angstrom
no_reorient  #important for SAPT in psi4, default
symmetry c1  #important for SAPT in psi4, default
}

set PROPERTIES_ORIGIN ["COM"]
properties('MP2/aug-cc-pvtz', properties = ['dipole'])
--------------------------------------------------------------------------

    Molecular point group: c1
  Charge       = 0
  Multiplicity = 1
  Basis Set: AUG-CC-PVTZ
    Blend: AUG-CC-PVTZ
  Basis Set: (AUG-CC-PVTZ AUX)
    Blend: AUG-CC-PVTZ-JKFIT

    Orbital Energies [Eh]
    ---------------------

    Doubly Occupied:

       1A    -20.500488     2A    -15.613842     3A    -11.344305
       4A    -11.292990     5A    -11.269381     6A    -11.241255
       7A    -11.238978     8A    -11.237850     9A    -11.237769
      10A    -11.212982    11A     -1.361788    12A     -1.263422
      13A     -1.131150    14A     -1.061837    15A     -0.991892
      16A     -0.948067    17A     -0.934423    18A     -0.830768
      19A     -0.809948    20A     -0.726273    21A     -0.705146
      22A     -0.646125    23A     -0.620593    24A     -0.598618
      25A     -0.583933    26A     -0.581912    27A     -0.570961
      28A     -0.568201    29A     -0.562272    30A     -0.550259
      31A     -0.534202    32A     -0.505366    33A     -0.498397
      34A     -0.469818    35A     -0.415943    36A     -0.388397
      37A     -0.298235

  @DF-RHF Final Energy:  -438.82799270115049

   => Energetics <=

    Nuclear Repulsion Energy =            523.0288611972255239
    One-Electron Energy =               -1633.0181418806880629
    Two-Electron Energy =                 671.1612879823120466
    Total Energy =                       -438.8279927011504924
  Basis Set: (AUG-CC-PVTZ AUX)
    Blend: AUG-CC-PVTZ-RI
    Molecular point group: c1

    Geometry (in Angstrom), charge = 0, multiplicity = 1:

       Center              X                  Y                   Z               Mass
    ------------   -----------------  -----------------  -----------------  -----------------
         O            2.672163667409    -0.692426698151    -0.012243836142    15.994914619570
         N            0.613201667409    -1.676547698151     0.006557163858    14.003074004430
         C           -0.668900332591     0.739415301849    -0.010233836142    12.000000000000
         C            0.712146667409     0.711236301849     0.003911163858    12.000000000000
         C           -1.411926732591    -0.490895298151     0.002017563858    12.000000000000
         C            1.438832667409    -0.553166698151    -0.004058836142    12.000000000000
         C           -0.752478332591    -1.662749698151     0.007104163858    12.000000000000
         C           -1.420407332591     2.045747301849    -0.004444836142    12.000000000000
         C            1.570205667409     1.947398301849     0.012109163858    12.000000000000
         C           -2.937264332591    -0.471889698151    -0.002000836142    12.000000000000
         H           -1.242748332591    -2.632191698151     0.016299163858     1.007825032230
         H           -2.199486332591     2.051755301849    -0.772884836142     1.007825032230
         H           -0.761070332591     2.894060301849    -0.188431836142     1.007825032230
         H           -1.916675332591     2.206940301849     0.959813163858     1.007825032230
         H            1.119455667409    -2.558018698151     0.005925163858     1.007825032230
         H            1.452932667409     2.524966301849    -0.910963836142     1.007825032230
         H            2.615051667409     1.646687301849     0.097178163858     1.007825032230
         H            1.322970667409     2.603947301849     0.851651163858     1.007825032230
         H           -3.322792332591    -1.493513698151     0.062821163858     1.007825032230
         H           -3.340536332591    -0.022268698151    -0.915649836142     1.007825032230
         H           -3.342097332591     0.091383301849     0.845019163858     1.007825032230

  Basis Set: AUG-CC-PVTZ
    Blend: AUG-CC-PVTZ
  Basis Set: (AUG-CC-PVTZ AUX)
    Blend: AUG-CC-PVTZ-JKFIT
	 Reference Energy          =    -438.8279927011504924 [Eh]
	 Singles Energy            =      -0.0000000000000000 [Eh]
	 Same-Spin Energy          =      -0.4696748919294778 [Eh]
	 Opposite-Spin Energy      =      -1.4985781851746265 [Eh]
	 Correlation Energy        =      -1.9682530771041042 [Eh]
	 Total Energy              =    -440.7962457782546153 [Eh]

	 ================> DF-SCS-MP2 Energies <==================
	-----------------------------------------------------------
	 SCS Same-Spin Scale       =       0.3333333333333333 [-]
	 SCS Opposite-Spin Scale   =       1.2000000000000000 [-]
	 SCS Same-Spin Energy      =      -0.1565582973098259 [Eh]
	 SCS Opposite-Spin Energy  =      -1.7982938222095517 [Eh]
	 SCS Correlation Energy    =      -1.9548521195193775 [Eh]
	 SCS Total Energy          =    -440.7828448206698795 [Eh]
	-----------------------------------------------------------

  Dipole Moment: [D]
     X:    -4.4415      Y:    -0.2654      Z:     0.0416     Total:     4.4496

*** Psi4 exiting successfully. Buy a developer a beer!
