                               Psi4 1.4a3.dev225

  ==> Input File <==

--------------------------------------------------------------------------
#psi4
#
memory 32 gb

molecule  {
0 1
  O        2.7382740    -0.7425350    -0.0126020
  N        0.6793120    -1.7266560     0.0061990
  C       -0.6027900     0.6893070    -0.0105920
  C        0.7782570     0.6611280     0.0035530
  C       -1.3671740    -0.5278470     0.0018860
  C        1.5049430    -0.6032750    -0.0044170
  C       -0.6863680    -1.7128580     0.0067460
  C       -1.3542970     1.9956390    -0.0048030
  C        1.6363160     1.8972900     0.0117510
  C       -2.8711540    -0.5219980    -0.0023590
  H       -1.1766380    -2.6823000     0.0159410
  H       -2.1333760     2.0016470    -0.7732430
  H       -0.6344732     2.9217752    -0.2056687
  H       -1.8505650     2.1568320     0.9594550
  H        1.1855660    -2.6081270     0.0055670
  H        1.5190430     2.4748580    -0.9113220
  H        2.6811620     1.5965790     0.0968200
  H        1.3890810     2.5538390     0.8512930
  H       -3.2566820    -1.5436220     0.0624630
  H       -3.2744260    -0.0723770    -0.9160080
  H       -3.2759870     0.0412750     0.8446610
units angstrom
no_reorient  #important for SAPT in psi4, default
symmetry c1  #important for SAPT in psi4, default
}

set PROPERTIES_ORIGIN ["COM"]
properties('MP2/aug-cc-pvtz', properties = ['dipole'])
--------------------------------------------------------------------------

    Molecular point group: c1
  Charge       = 0
  Multiplicity = 1
  Basis Set: AUG-CC-PVTZ
    Blend: AUG-CC-PVTZ
  Basis Set: (AUG-CC-PVTZ AUX)
    Blend: AUG-CC-PVTZ-JKFIT

    Orbital Energies [Eh]
    ---------------------

    Doubly Occupied:

       1A    -20.500430     2A    -15.616081     3A    -11.344374
       4A    -11.297253     5A    -11.270062     6A    -11.247972
       7A    -11.243706     8A    -11.238843     9A    -11.237808
      10A    -11.212533    11A     -1.361984    12A     -1.263474
      13A     -1.131328    14A     -1.062137    15A     -0.986971
      16A     -0.949318    17A     -0.932521    18A     -0.827621
      19A     -0.809970    20A     -0.726181    21A     -0.704951
      22A     -0.643627    23A     -0.621138    24A     -0.597474
      25A     -0.586827    26A     -0.582833    27A     -0.571779
      28A     -0.569712    29A     -0.553739    30A     -0.550111
      31A     -0.528508    32A     -0.505819    33A     -0.494880
      34A     -0.468849    35A     -0.415938    36A     -0.388310
      37A     -0.295887

  @DF-RHF Final Energy:  -438.82060525711717

   => Energetics <=

    Nuclear Repulsion Energy =            522.4186220787273669
    One-Electron Energy =               -1631.7965601696150770
    Two-Electron Energy =                 670.5573328337704879
    Total Energy =                       -438.8206052571172222
  Basis Set: (AUG-CC-PVTZ AUX)
    Blend: AUG-CC-PVTZ-RI
    Molecular point group: c1

    Geometry (in Angstrom), charge = 0, multiplicity = 1:

       Center              X                  Y                   Z               Mass
    ------------   -----------------  -----------------  -----------------  -----------------
         O            2.673588567454    -0.694150540895    -0.012139582037    15.994914619570
         N            0.614626567454    -1.678271540895     0.006661417963    14.003074004430
         C           -0.667475432546     0.737691459105    -0.010129582037    12.000000000000
         C            0.713571567454     0.709512459105     0.004015417963    12.000000000000
         C           -1.431859432546    -0.479462540895     0.002348417963    12.000000000000
         C            1.440257567454    -0.554890540895    -0.003954582037    12.000000000000
         C           -0.751053432546    -1.664473540895     0.007208417963    12.000000000000
         C           -1.418982432546     2.044023459105    -0.004340582037    12.000000000000
         C            1.571630567454     1.945674459105     0.012213417963    12.000000000000
         C           -2.935839432546    -0.473613540895    -0.001896582037    12.000000000000
         H           -1.241323432546    -2.633915540895     0.016403417963     1.007825032230
         H           -2.198061432546     2.050031459105    -0.772780582037     1.007825032230
         H           -0.699158632546     2.970159659105    -0.205206282037     1.007825032230
         H           -1.915250432546     2.205216459105     0.959917417963     1.007825032230
         H            1.120880567454    -2.559742540895     0.006029417963     1.007825032230
         H            1.454357567454     2.523242459105    -0.910859582037     1.007825032230
         H            2.616476567454     1.644963459105     0.097282417963     1.007825032230
         H            1.324395567454     2.602223459105     0.851755417963     1.007825032230
         H           -3.321367432546    -1.495237540895     0.062925417963     1.007825032230
         H           -3.339111432546    -0.023992540895    -0.915545582037     1.007825032230
         H           -3.340672432546     0.089659459105     0.845123417963     1.007825032230

  Basis Set: AUG-CC-PVTZ
    Blend: AUG-CC-PVTZ
  Basis Set: (AUG-CC-PVTZ AUX)
    Blend: AUG-CC-PVTZ-JKFIT
	 Reference Energy          =    -438.8206052571171654 [Eh]
	 Singles Energy            =      -0.0000000000000000 [Eh]
	 Same-Spin Energy          =      -0.4703592795194188 [Eh]
	 Opposite-Spin Energy      =      -1.5001848407526455 [Eh]
	 Correlation Energy        =      -1.9705441202720642 [Eh]
	 Total Energy              =    -440.7911493773892175 [Eh]

	 ================> DF-SCS-MP2 Energies <==================
	-----------------------------------------------------------
	 SCS Same-Spin Scale       =       0.3333333333333333 [-]
	 SCS Opposite-Spin Scale   =       1.2000000000000000 [-]
	 SCS Same-Spin Energy      =      -0.1567864265064729 [Eh]
	 SCS Opposite-Spin Energy  =      -1.8002218089031745 [Eh]
	 SCS Correlation Energy    =      -1.9570082354096474 [Eh]
	 SCS Total Energy          =    -440.7776134925268252 [Eh]
	-----------------------------------------------------------

  Dipole Moment: [D]
     X:    -4.4664      Y:    -0.3462      Z:     0.0488     Total:     4.4801

*** Psi4 exiting successfully. Buy a developer a beer!
