                               Psi4 1.4a3.dev225

  ==> Input File <==

--------------------------------------------------------------------------
#psi4
#
memory 32 gb

molecule  {
0 1
  O        2.7382740    -0.7425350    -0.0126020
  N        0.6793120    -1.7266560     0.0061990
  C       -0.6027900     0.6893070    -0.0105920
  C        0.7782570     0.6611280     0.0035530
  C       -1.3671740    -0.5278470     0.0018860
  C        1.5049430    -0.6032750    -0.0044170
  C       -0.6863680    -1.7128580     0.0067460
  C       -1.3542970     1.9956390    -0.0048030
  C        1.6363160     1.8972900     0.0117510
  C       -2.8711540    -0.5219980    -0.0023590
  H       -1.1766380    -2.6823000     0.0159410
  H       -2.1333760     2.0016470    -0.7732430
  H       -0.6949600     2.8439520    -0.1887900
  H       -1.8505650     2.1568320     0.9594550
  H        1.1855660    -2.6081270     0.0055670
  H        1.5190430     2.4748580    -0.9113220
  H        2.6811620     1.5965790     0.0968200
  H        1.3890810     2.5538390     0.8512930
  H       -3.2637309    -1.5623011     0.0636482
  H       -3.2744260    -0.0723770    -0.9160080
  H       -3.2759870     0.0412750     0.8446610
units angstrom
no_reorient  #important for SAPT in psi4, default
symmetry c1  #important for SAPT in psi4, default
}

set PROPERTIES_ORIGIN ["COM"]
properties('MP2/aug-cc-pvtz', properties = ['dipole'])
--------------------------------------------------------------------------

    Molecular point group: c1
  Charge       = 0
  Multiplicity = 1
  Basis Set: AUG-CC-PVTZ
    Blend: AUG-CC-PVTZ
  Basis Set: (AUG-CC-PVTZ AUX)
    Blend: AUG-CC-PVTZ-JKFIT

    Orbital Energies [Eh]
    ---------------------

    Doubly Occupied:

       1A    -20.500277     2A    -15.615808     3A    -11.344191
       4A    -11.296845     5A    -11.269416     6A    -11.243157
       7A    -11.239674     8A    -11.238574     9A    -11.237129
      10A    -11.212893    11A     -1.361815    12A     -1.263211
      13A     -1.131566    14A     -1.061727    15A     -0.991209
      16A     -0.947666    17A     -0.934071    18A     -0.830301
      19A     -0.809444    20A     -0.726251    21A     -0.705185
      22A     -0.645470    23A     -0.620840    24A     -0.598191
      25A     -0.586416    26A     -0.582526    27A     -0.571476
      28A     -0.566738    29A     -0.561641    30A     -0.550293
      31A     -0.533088    32A     -0.505876    33A     -0.499153
      34A     -0.468653    35A     -0.415752    36A     -0.388003
      37A     -0.295672

  @DF-RHF Final Energy:  -438.82713388291580

   => Energetics <=

    Nuclear Repulsion Energy =            522.7288295293901683
    One-Electron Energy =               -1632.4115331701805189
    Two-Electron Energy =                 670.8555697578746049
    Total Energy =                       -438.8271338829157457
  Basis Set: (AUG-CC-PVTZ AUX)
    Blend: AUG-CC-PVTZ-RI
    Molecular point group: c1

    Geometry (in Angstrom), charge = 0, multiplicity = 1:

       Center              X                  Y                   Z               Mass
    ------------   -----------------  -----------------  -----------------  -----------------
         O            2.674085081542    -0.693441067957    -0.012272385589    15.994914619570
         N            0.615123081542    -1.677562067957     0.006528614411    14.003074004430
         C           -0.666978918458     0.738400932043    -0.010262385589    12.000000000000
         C            0.714068081542     0.710221932043     0.003882614411    12.000000000000
         C           -1.431362918458    -0.478753067957     0.002215614411    12.000000000000
         C            1.440754081542    -0.554181067957    -0.004087385589    12.000000000000
         C           -0.750556918458    -1.663764067957     0.007075614411    12.000000000000
         C           -1.418485918458     2.044732932043    -0.004473385589    12.000000000000
         C            1.572127081542     1.946383932043     0.012080614411    12.000000000000
         C           -2.935342918458    -0.472904067957    -0.002029385589    12.000000000000
         H           -1.240826918458    -2.633206067957     0.016270614411     1.007825032230
         H           -2.197564918458     2.050740932043    -0.772913385589     1.007825032230
         H           -0.759148918458     2.893045932043    -0.188460385589     1.007825032230
         H           -1.914753918458     2.205925932043     0.959784614411     1.007825032230
         H            1.121377081542    -2.559033067957     0.005896614411     1.007825032230
         H            1.454854081542     2.523951932043    -0.910992385589     1.007825032230
         H            2.616973081542     1.645672932043     0.097149614411     1.007825032230
         H            1.324892081542     2.602932932043     0.851622614411     1.007825032230
         H           -3.327919818458    -1.513207167957     0.063977814411     1.007825032230
         H           -3.338614918458    -0.023283067957    -0.915678385589     1.007825032230
         H           -3.340175918458     0.090368932043     0.844990614411     1.007825032230

  Basis Set: AUG-CC-PVTZ
    Blend: AUG-CC-PVTZ
  Basis Set: (AUG-CC-PVTZ AUX)
    Blend: AUG-CC-PVTZ-JKFIT
	 Reference Energy          =    -438.8271338829158026 [Eh]
	 Singles Energy            =      -0.0000000000000000 [Eh]
	 Same-Spin Energy          =      -0.4701611298271312 [Eh]
	 Opposite-Spin Energy      =      -1.4993157403087709 [Eh]
	 Correlation Energy        =      -1.9694768701359022 [Eh]
	 Total Energy              =    -440.7966107530517093 [Eh]

	 ================> DF-SCS-MP2 Energies <==================
	-----------------------------------------------------------
	 SCS Same-Spin Scale       =       0.3333333333333333 [-]
	 SCS Opposite-Spin Scale   =       1.2000000000000000 [-]
	 SCS Same-Spin Energy      =      -0.1567203766090437 [Eh]
	 SCS Opposite-Spin Energy  =      -1.7991788883705251 [Eh]
	 SCS Correlation Energy    =      -1.9558992649795688 [Eh]
	 SCS Total Energy          =    -440.7830331478953667 [Eh]
	-----------------------------------------------------------

  Dipole Moment: [D]
     X:    -4.4534      Y:    -0.2833      Z:     0.0413     Total:     4.4626

*** Psi4 exiting successfully. Buy a developer a beer!
