                               Psi4 1.4a3.dev225

  ==> Input File <==

--------------------------------------------------------------------------
#psi4
#
memory 32 gb

molecule  {
0 1
  O        2.7382740    -0.7425350    -0.0126020
  N        0.6793120    -1.7266560     0.0061990
  C       -0.6027900     0.6893070    -0.0105920
  C        0.7782570     0.6611280     0.0035530
  C       -1.3671740    -0.5278470     0.0018860
  C        1.5049430    -0.6032750    -0.0044170
  C       -0.6863680    -1.7128580     0.0067460
  C       -1.3542970     1.9956390    -0.0048030
  C        1.6363160     1.8972900     0.0117510
  C       -2.8711540    -0.5219980    -0.0023590
  H       -1.1766380    -2.6823000     0.0159410
  H       -2.1333760     2.0016470    -0.7732430
  H       -0.6949600     2.8439520    -0.1887900
  H       -1.8505650     2.1568320     0.9594550
  H        1.1855660    -2.6081270     0.0055670
  H        1.5190430     2.4748580    -0.9113220
  H        2.8727747     1.5414321     0.1124207
  H        1.3890810     2.5538390     0.8512930
  H       -3.2566820    -1.5436220     0.0624630
  H       -3.2744260    -0.0723770    -0.9160080
  H       -3.2759870     0.0412750     0.8446610
units angstrom
no_reorient  #important for SAPT in psi4, default
symmetry c1  #important for SAPT in psi4, default
}

set PROPERTIES_ORIGIN ["COM"]
properties('MP2/aug-cc-pvtz', properties = ['dipole'])
--------------------------------------------------------------------------

    Molecular point group: c1
  Charge       = 0
  Multiplicity = 1
  Basis Set: AUG-CC-PVTZ
    Blend: AUG-CC-PVTZ
  Basis Set: (AUG-CC-PVTZ AUX)
    Blend: AUG-CC-PVTZ-JKFIT

    Orbital Energies [Eh]
    ---------------------

    Doubly Occupied:

       1A    -20.500245     2A    -15.616209     3A    -11.344480
       4A    -11.297303     5A    -11.270364     6A    -11.243582
       7A    -11.240081     8A    -11.237789     9A    -11.237717
      10A    -11.231732    11A     -1.361967    12A     -1.263556
      13A     -1.132003    14A     -1.061201    15A     -0.989057
      16A     -0.949161    17A     -0.926601    18A     -0.830501
      19A     -0.806286    20A     -0.725541    21A     -0.704986
      22A     -0.645780    23A     -0.621307    24A     -0.597688
      25A     -0.586388    26A     -0.582878    27A     -0.571878
      28A     -0.565525    29A     -0.561169    30A     -0.551161
      31A     -0.528911    32A     -0.500604    33A     -0.474612
      34A     -0.468472    35A     -0.413714    36A     -0.388670
      37A     -0.296178

  @DF-RHF Final Energy:  -438.80621640623610

   => Energetics <=

    Nuclear Repulsion Energy =            522.0623409543303524
    One-Electron Energy =               -1631.0865205013137711
    Two-Electron Energy =                 670.2179631407472016
    Total Energy =                       -438.8062164062361035
  Basis Set: (AUG-CC-PVTZ AUX)
    Blend: AUG-CC-PVTZ-RI
    Molecular point group: c1

    Geometry (in Angstrom), charge = 0, multiplicity = 1:

       Center              X                  Y                   Z               Mass
    ------------   -----------------  -----------------  -----------------  -----------------
         O            2.672624546104    -0.693172961215    -0.012378366557    15.994914619570
         N            0.613662546104    -1.677293961215     0.006422633443    14.003074004430
         C           -0.668439453896     0.738669038785    -0.010368366557    12.000000000000
         C            0.712607546104     0.710490038785     0.003776633443    12.000000000000
         C           -1.432823453896    -0.478484961215     0.002109633443    12.000000000000
         C            1.439293546104    -0.553912961215    -0.004193366557    12.000000000000
         C           -0.752017453896    -1.663495961215     0.006969633443    12.000000000000
         C           -1.419946453896     2.045001038785    -0.004579366557    12.000000000000
         C            1.570666546104     1.946652038785     0.011974633443    12.000000000000
         C           -2.936803453896    -0.472635961215    -0.002135366557    12.000000000000
         H           -1.242287453896    -2.632937961215     0.016164633443     1.007825032230
         H           -2.199025453896     2.051009038785    -0.773019366557     1.007825032230
         H           -0.760609453896     2.893314038785    -0.188566366557     1.007825032230
         H           -1.916214453896     2.206194038785     0.959678633443     1.007825032230
         H            1.119916546104    -2.558764961215     0.005790633443     1.007825032230
         H            1.453393546104     2.524220038785    -0.911098366557     1.007825032230
         H            2.807125246104     1.590794138785     0.112644333443     1.007825032230
         H            1.323431546104     2.603201038785     0.851516633443     1.007825032230
         H           -3.322331453896    -1.494259961215     0.062686633443     1.007825032230
         H           -3.340075453896    -0.023014961215    -0.915784366557     1.007825032230
         H           -3.341636453896     0.090637038785     0.844884633443     1.007825032230

  Basis Set: AUG-CC-PVTZ
    Blend: AUG-CC-PVTZ
  Basis Set: (AUG-CC-PVTZ AUX)
    Blend: AUG-CC-PVTZ-JKFIT
	 Reference Energy          =    -438.8062164062361035 [Eh]
	 Singles Energy            =      -0.0000000000000000 [Eh]
	 Same-Spin Energy          =      -0.4706734151574457 [Eh]
	 Opposite-Spin Energy      =      -1.5013951935994327 [Eh]
	 Correlation Energy        =      -1.9720686087568784 [Eh]
	 Total Energy              =    -440.7782850149930027 [Eh]

	 ================> DF-SCS-MP2 Energies <==================
	-----------------------------------------------------------
	 SCS Same-Spin Scale       =       0.3333333333333333 [-]
	 SCS Opposite-Spin Scale   =       1.2000000000000000 [-]
	 SCS Same-Spin Energy      =      -0.1568911383858152 [Eh]
	 SCS Opposite-Spin Energy  =      -1.8016742323193191 [Eh]
	 SCS Correlation Energy    =      -1.9585653707051343 [Eh]
	 SCS Total Energy          =    -440.7647817769412200 [Eh]
	-----------------------------------------------------------

  Dipole Moment: [D]
     X:    -4.5073      Y:    -0.3747      Z:     0.0361     Total:     4.5229

*** Psi4 exiting successfully. Buy a developer a beer!
