                               Psi4 1.4a3.dev225

  ==> Input File <==

--------------------------------------------------------------------------
#psi4
#
memory 32 gb

molecule  {
0 1
  O        2.7382740    -0.7425350    -0.0126020
  N        0.6793120    -1.7266560     0.0061990
  C       -0.6027900     0.6893070    -0.0105920
  C        0.7782570     0.6611280     0.0035530
  C       -1.3671740    -0.5278470     0.0018860
  C        1.4457236    -0.6838509    -0.0036556
  C       -0.6863680    -1.7128580     0.0067460
  C       -1.3542970     1.9956390    -0.0048030
  C        1.6363160     1.8972900     0.0117510
  C       -2.8711540    -0.5219980    -0.0023590
  H       -1.1766380    -2.6823000     0.0159410
  H       -2.1333760     2.0016470    -0.7732430
  H       -0.6949600     2.8439520    -0.1887900
  H       -1.8505650     2.1568320     0.9594550
  H        1.1855660    -2.6081270     0.0055670
  H        1.5190430     2.4748580    -0.9113220
  H        2.6811620     1.5965790     0.0968200
  H        1.3890810     2.5538390     0.8512930
  H       -3.2566820    -1.5436220     0.0624630
  H       -3.2744260    -0.0723770    -0.9160080
  H       -3.2759870     0.0412750     0.8446610
units angstrom
no_reorient  #important for SAPT in psi4, default
symmetry c1  #important for SAPT in psi4, default
}

set PROPERTIES_ORIGIN ["COM"]
properties('MP2/aug-cc-pvtz', properties = ['dipole'])
--------------------------------------------------------------------------

    Molecular point group: c1
  Charge       = 0
  Multiplicity = 1
  Basis Set: AUG-CC-PVTZ
    Blend: AUG-CC-PVTZ
  Basis Set: (AUG-CC-PVTZ AUX)
    Blend: AUG-CC-PVTZ-JKFIT

    Orbital Energies [Eh]
    ---------------------

    Doubly Occupied:

       1A    -20.485421     2A    -15.626456     3A    -11.339837
       4A    -11.297214     5A    -11.264721     6A    -11.252411
       7A    -11.246813     8A    -11.241317     9A    -11.236053
      10A    -11.213996    11A     -1.356905    12A     -1.261082
      13A     -1.136423    14A     -1.062959    15A     -0.990011
      16A     -0.961293    17A     -0.938596    18A     -0.831403
      19A     -0.823338    20A     -0.736776    21A     -0.702991
      22A     -0.647544    23A     -0.627605    24A     -0.590704
      25A     -0.589720    26A     -0.581046    27A     -0.573783
      28A     -0.569784    29A     -0.562381    30A     -0.552842
      31A     -0.534295    32A     -0.502352    33A     -0.496192
      34A     -0.449847    35A     -0.402723    36A     -0.391896
      37A     -0.299163

  @DF-RHF Final Energy:  -438.81507170270885

   => Energetics <=

    Nuclear Repulsion Energy =            523.0971687289020338
    One-Electron Energy =               -1633.0686941594547079
    Two-Electron Energy =                 671.1564537278438820
    Total Energy =                       -438.8150717027087921
  Basis Set: (AUG-CC-PVTZ AUX)
    Blend: AUG-CC-PVTZ-RI
    Molecular point group: c1

    Geometry (in Angstrom), charge = 0, multiplicity = 1:

       Center              X                  Y                   Z               Mass
    ------------   -----------------  -----------------  -----------------  -----------------
         O            2.679217178751    -0.686524979333    -0.012330323219    15.994914619570
         N            0.620255178751    -1.670645979333     0.006470676781    14.003074004430
         C           -0.661846821249     0.745317020667    -0.010320323219    12.000000000000
         C            0.719200178751     0.717138020667     0.003824676781    12.000000000000
         C           -1.426230821249    -0.471836979333     0.002157676781    12.000000000000
         C            1.386666778751    -0.627840879333    -0.003383923219    12.000000000000
         C           -0.745424821249    -1.656847979333     0.007017676781    12.000000000000
         C           -1.413353821249     2.051649020667    -0.004531323219    12.000000000000
         C            1.577259178751     1.953300020667     0.012022676781    12.000000000000
         C           -2.930210821249    -0.465987979333    -0.002087323219    12.000000000000
         H           -1.235694821249    -2.626289979333     0.016212676781     1.007825032230
         H           -2.192432821249     2.057657020667    -0.772971323219     1.007825032230
         H           -0.754016821249     2.899962020667    -0.188518323219     1.007825032230
         H           -1.909621821249     2.212842020667     0.959726676781     1.007825032230
         H            1.126509178751    -2.552116979333     0.005838676781     1.007825032230
         H            1.459986178751     2.530868020667    -0.911050323219     1.007825032230
         H            2.622105178751     1.652589020667     0.097091676781     1.007825032230
         H            1.330024178751     2.609849020667     0.851564676781     1.007825032230
         H           -3.315738821249    -1.487611979333     0.062734676781     1.007825032230
         H           -3.333482821249    -0.016366979333    -0.915736323219     1.007825032230
         H           -3.335043821249     0.097285020667     0.844932676781     1.007825032230

  Basis Set: AUG-CC-PVTZ
    Blend: AUG-CC-PVTZ
  Basis Set: (AUG-CC-PVTZ AUX)
    Blend: AUG-CC-PVTZ-JKFIT
	 Reference Energy          =    -438.8150717027088490 [Eh]
	 Singles Energy            =      -0.0000000000000000 [Eh]
	 Same-Spin Energy          =      -0.4701506053661911 [Eh]
	 Opposite-Spin Energy      =      -1.4997304669317049 [Eh]
	 Correlation Energy        =      -1.9698810722978961 [Eh]
	 Total Energy              =    -440.7849527750067296 [Eh]

	 ================> DF-SCS-MP2 Energies <==================
	-----------------------------------------------------------
	 SCS Same-Spin Scale       =       0.3333333333333333 [-]
	 SCS Opposite-Spin Scale   =       1.2000000000000000 [-]
	 SCS Same-Spin Energy      =      -0.1567168684553970 [Eh]
	 SCS Opposite-Spin Energy  =      -1.7996765603180458 [Eh]
	 SCS Correlation Energy    =      -1.9563934287734428 [Eh]
	 SCS Total Energy          =    -440.7714651314822731 [Eh]
	-----------------------------------------------------------

  Dipole Moment: [D]
     X:    -5.0111      Y:    -0.4421      Z:     0.0473     Total:     5.0308

*** Psi4 exiting successfully. Buy a developer a beer!
