                               Psi4 1.4a3.dev225

  ==> Input File <==

--------------------------------------------------------------------------
#psi4
#
memory 32 gb

molecule  {
0 1
  O        2.7382740    -0.7425350    -0.0126020
  N        0.6793120    -1.7266560     0.0061990
  C       -0.6027900     0.6893070    -0.0105920
  C        0.7782570     0.6611280     0.0035530
  C       -1.3671740    -0.5278470     0.0018860
  C        1.5049430    -0.6032750    -0.0044170
  C       -0.7071530    -1.7245594     0.0067166
  C       -1.3542970     1.9956390    -0.0048030
  C        1.6363160     1.8972900     0.0117510
  C       -2.8711540    -0.5219980    -0.0023590
  H       -1.1766380    -2.6823000     0.0159410
  H       -2.1333760     2.0016470    -0.7732430
  H       -0.6949600     2.8439520    -0.1887900
  H       -1.8505650     2.1568320     0.9594550
  H        1.1855660    -2.6081270     0.0055670
  H        1.5190430     2.4748580    -0.9113220
  H        2.6811620     1.5965790     0.0968200
  H        1.3890810     2.5538390     0.8512930
  H       -3.2566820    -1.5436220     0.0624630
  H       -3.2744260    -0.0723770    -0.9160080
  H       -3.2759870     0.0412750     0.8446610
units angstrom
no_reorient  #important for SAPT in psi4, default
symmetry c1  #important for SAPT in psi4, default
}

set PROPERTIES_ORIGIN ["COM"]
properties('MP2/aug-cc-pvtz', properties = ['dipole'])
--------------------------------------------------------------------------

    Molecular point group: c1
  Charge       = 0
  Multiplicity = 1
  Basis Set: AUG-CC-PVTZ
    Blend: AUG-CC-PVTZ
  Basis Set: (AUG-CC-PVTZ AUX)
    Blend: AUG-CC-PVTZ-JKFIT

    Orbital Energies [Eh]
    ---------------------

    Doubly Occupied:

       1A    -20.500082     2A    -15.613710     3A    -11.344083
       4A    -11.295996     5A    -11.269631     6A    -11.244698
       7A    -11.239875     8A    -11.237472     9A    -11.237197
      10A    -11.213342    11A     -1.360327    12A     -1.256907
      13A     -1.131218    14A     -1.063151    15A     -0.991690
      16A     -0.948301    17A     -0.933902    18A     -0.830819
      19A     -0.808433    20A     -0.721991    21A     -0.704687
      22A     -0.650378    23A     -0.619777    24A     -0.599248
      25A     -0.585797    26A     -0.581383    27A     -0.571504
      28A     -0.569579    29A     -0.562083    30A     -0.550023
      31A     -0.533198    32A     -0.505373    33A     -0.501327
      34A     -0.466605    35A     -0.415724    36A     -0.387454
      37A     -0.297081

  @DF-RHF Final Energy:  -438.82655999074075

   => Energetics <=

    Nuclear Repulsion Energy =            522.4169264641993777
    One-Electron Energy =               -1631.7988844510616673
    Two-Electron Energy =                 670.5553979961215418
    Total Energy =                       -438.8265599907407477
  Basis Set: (AUG-CC-PVTZ AUX)
    Blend: AUG-CC-PVTZ-RI
    Molecular point group: c1

    Geometry (in Angstrom), charge = 0, multiplicity = 1:

       Center              X                  Y                   Z               Mass
    ------------   -----------------  -----------------  -----------------  -----------------
         O            2.675852726410    -0.692554082760    -0.012261098542    15.994914619570
         N            0.616890726410    -1.676675082760     0.006539901458    14.003074004430
         C           -0.665211273590     0.739287917240    -0.010251098542    12.000000000000
         C            0.715835726410     0.711108917240     0.003893901458    12.000000000000
         C           -1.429595273590    -0.477866082760     0.002226901458    12.000000000000
         C            1.442521726410    -0.553294082760    -0.004076098542    12.000000000000
         C           -0.769574273590    -1.674578482760     0.007057501458    12.000000000000
         C           -1.416718273590     2.045619917240    -0.004462098542    12.000000000000
         C            1.573894726410     1.947270917240     0.012091901458    12.000000000000
         C           -2.933575273590    -0.472017082760    -0.002018098542    12.000000000000
         H           -1.239059273590    -2.632319082760     0.016281901458     1.007825032230
         H           -2.195797273590     2.051627917240    -0.772902098542     1.007825032230
         H           -0.757381273590     2.893932917240    -0.188449098542     1.007825032230
         H           -1.912986273590     2.206812917240     0.959795901458     1.007825032230
         H            1.123144726410    -2.558146082760     0.005907901458     1.007825032230
         H            1.456621726410     2.524838917240    -0.910981098542     1.007825032230
         H            2.618740726410     1.646559917240     0.097160901458     1.007825032230
         H            1.326659726410     2.603819917240     0.851633901458     1.007825032230
         H           -3.319103273590    -1.493641082760     0.062803901458     1.007825032230
         H           -3.336847273590    -0.022396082760    -0.915667098542     1.007825032230
         H           -3.338408273590     0.091255917240     0.845001901458     1.007825032230

  Basis Set: AUG-CC-PVTZ
    Blend: AUG-CC-PVTZ
  Basis Set: (AUG-CC-PVTZ AUX)
    Blend: AUG-CC-PVTZ-JKFIT
	 Reference Energy          =    -438.8265599907407477 [Eh]
	 Singles Energy            =      -0.0000000000000000 [Eh]
	 Same-Spin Energy          =      -0.4700247862602677 [Eh]
	 Opposite-Spin Energy      =      -1.4994582551794995 [Eh]
	 Correlation Energy        =      -1.9694830414397673 [Eh]
	 Total Energy              =    -440.7960430321805347 [Eh]

	 ================> DF-SCS-MP2 Energies <==================
	-----------------------------------------------------------
	 SCS Same-Spin Scale       =       0.3333333333333333 [-]
	 SCS Opposite-Spin Scale   =       1.2000000000000000 [-]
	 SCS Same-Spin Energy      =      -0.1566749287534226 [Eh]
	 SCS Opposite-Spin Energy  =      -1.7993499062153993 [Eh]
	 SCS Correlation Energy    =      -1.9560248349688218 [Eh]
	 SCS Total Energy          =    -440.7825848257095913 [Eh]
	-----------------------------------------------------------

  Dipole Moment: [D]
     X:    -4.4943      Y:    -0.2539      Z:     0.0415     Total:     4.5016

*** Psi4 exiting successfully. Buy a developer a beer!
