                               Psi4 1.4a3.dev225

  ==> Input File <==

--------------------------------------------------------------------------
#psi4
#
memory 32 gb

molecule  {
0 1
  O        2.7382740    -0.7425350    -0.0126020
  N        0.6793120    -1.7266560     0.0061990
  C       -0.6027900     0.6893070    -0.0105920
  C        0.7782570     0.6611280     0.0035530
  C       -1.4091842    -0.5004257     0.0023277
  C        1.5049430    -0.6032750    -0.0044170
  C       -0.6863680    -1.7128580     0.0067460
  C       -1.3542970     1.9956390    -0.0048030
  C        1.6363160     1.8972900     0.0117510
  C       -2.8711540    -0.5219980    -0.0023590
  H       -1.1766380    -2.6823000     0.0159410
  H       -2.1333760     2.0016470    -0.7732430
  H       -0.6949600     2.8439520    -0.1887900
  H       -1.8505650     2.1568320     0.9594550
  H        1.1855660    -2.6081270     0.0055670
  H        1.5190430     2.4748580    -0.9113220
  H        2.6811620     1.5965790     0.0968200
  H        1.3890810     2.5538390     0.8512930
  H       -3.2566820    -1.5436220     0.0624630
  H       -3.2744260    -0.0723770    -0.9160080
  H       -3.2759870     0.0412750     0.8446610
units angstrom
no_reorient  #important for SAPT in psi4, default
symmetry c1  #important for SAPT in psi4, default
}

set PROPERTIES_ORIGIN ["COM"]
properties('MP2/aug-cc-pvtz', properties = ['dipole'])
--------------------------------------------------------------------------

    Molecular point group: c1
  Charge       = 0
  Multiplicity = 1
  Basis Set: AUG-CC-PVTZ
    Blend: AUG-CC-PVTZ
  Basis Set: (AUG-CC-PVTZ AUX)
    Blend: AUG-CC-PVTZ-JKFIT

    Orbital Energies [Eh]
    ---------------------

    Doubly Occupied:

       1A    -20.499652     2A    -15.619594     3A    -11.343748
       4A    -11.304145     5A    -11.269190     6A    -11.246562
       7A    -11.237500     8A    -11.236018     9A    -11.235488
      10A    -11.212491    11A     -1.361723    12A     -1.262935
      13A     -1.132558    14A     -1.063382    15A     -0.990245
      16A     -0.949648    17A     -0.933317    18A     -0.829850
      19A     -0.808791    20A     -0.726057    21A     -0.706208
      22A     -0.644406    23A     -0.621286    24A     -0.597528
      25A     -0.592896    26A     -0.583757    27A     -0.572973
      28A     -0.571000    29A     -0.559050    30A     -0.550073
      31A     -0.533100    32A     -0.510411    33A     -0.495241
      34A     -0.466479    35A     -0.415098    36A     -0.386831
      37A     -0.290286

  @DF-RHF Final Energy:  -438.82179995846934

   => Energetics <=

    Nuclear Repulsion Energy =            522.4349378984055647
    One-Electron Energy =               -1631.7944432720719306
    Two-Electron Energy =                 670.5377054151969105
    Total Energy =                       -438.8217999584693416
  Basis Set: (AUG-CC-PVTZ AUX)
    Blend: AUG-CC-PVTZ-RI
    Molecular point group: c1

    Geometry (in Angstrom), charge = 0, multiplicity = 1:

       Center              X                  Y                   Z               Mass
    ------------   -----------------  -----------------  -----------------  -----------------
         O            2.677710727935    -0.695978787182    -0.012302337471    15.994914619570
         N            0.618748727935    -1.680099787182     0.006498662529    14.003074004430
         C           -0.663353272065     0.735863212818    -0.010292337471    12.000000000000
         C            0.717693727935     0.707684212818     0.003852662529    12.000000000000
         C           -1.469747472065    -0.453869487182     0.002627362529    12.000000000000
         C            1.444379727935    -0.556718787182    -0.004117337471    12.000000000000
         C           -0.746931272065    -1.666301787182     0.007045662529    12.000000000000
         C           -1.414860272065     2.042195212818    -0.004503337471    12.000000000000
         C            1.575752727935     1.943846212818     0.012050662529    12.000000000000
         C           -2.931717272065    -0.475441787182    -0.002059337471    12.000000000000
         H           -1.237201272065    -2.635743787182     0.016240662529     1.007825032230
         H           -2.193939272065     2.048203212818    -0.772943337471     1.007825032230
         H           -0.755523272065     2.890508212818    -0.188490337471     1.007825032230
         H           -1.911128272065     2.203388212818     0.959754662529     1.007825032230
         H            1.125002727935    -2.561570787182     0.005866662529     1.007825032230
         H            1.458479727935     2.521414212818    -0.911022337471     1.007825032230
         H            2.620598727935     1.643135212818     0.097119662529     1.007825032230
         H            1.328517727935     2.600395212818     0.851592662529     1.007825032230
         H           -3.317245272065    -1.497065787182     0.062762662529     1.007825032230
         H           -3.334989272065    -0.025820787182    -0.915708337471     1.007825032230
         H           -3.336550272065     0.087831212818     0.844960662529     1.007825032230

  Basis Set: AUG-CC-PVTZ
    Blend: AUG-CC-PVTZ
  Basis Set: (AUG-CC-PVTZ AUX)
    Blend: AUG-CC-PVTZ-JKFIT
	 Reference Energy          =    -438.8217999584693416 [Eh]
	 Singles Energy            =      -0.0000000000000000 [Eh]
	 Same-Spin Energy          =      -0.4712736946169132 [Eh]
	 Opposite-Spin Energy      =      -1.5006317943093879 [Eh]
	 Correlation Energy        =      -1.9719054889263010 [Eh]
	 Total Energy              =    -440.7937054473956664 [Eh]

	 ================> DF-SCS-MP2 Energies <==================
	-----------------------------------------------------------
	 SCS Same-Spin Scale       =       0.3333333333333333 [-]
	 SCS Opposite-Spin Scale   =       1.2000000000000000 [-]
	 SCS Same-Spin Energy      =      -0.1570912315389710 [Eh]
	 SCS Opposite-Spin Energy  =      -1.8007581531712653 [Eh]
	 SCS Correlation Energy    =      -1.9578493847102363 [Eh]
	 SCS Total Energy          =    -440.7796493431795852 [Eh]
	-----------------------------------------------------------

  Dipole Moment: [D]
     X:    -4.5107      Y:    -0.3430      Z:     0.0419     Total:     4.5239

*** Psi4 exiting successfully. Buy a developer a beer!
