                               Psi4 1.4a3.dev225

  ==> Input File <==

--------------------------------------------------------------------------
#psi4
#
memory 32 gb

molecule  {
0 1
  O        2.7382740    -0.7425350    -0.0126020
  N        0.6793120    -1.7266560     0.0061990
  C       -0.6027900     0.6893070    -0.0105920
  C        0.7782570     0.6611280     0.0035530
  C       -1.3671740    -0.5278470     0.0018860
  C        1.5049430    -0.6032750    -0.0044170
  C       -0.6863680    -1.7128580     0.0067460
  C       -1.3542970     1.9956390    -0.0048030
  C        1.6363160     1.8972900     0.0117510
  C       -2.8711540    -0.5219980    -0.0023590
  H       -1.1766380    -2.6823000     0.0159410
  H       -2.1333760     2.0016470    -0.7732430
  H       -0.6949600     2.8439520    -0.1887900
  H       -1.8279330     2.1494809     0.9154805
  H        1.1855660    -2.6081270     0.0055670
  H        1.5190430     2.4748580    -0.9113220
  H        2.6811620     1.5965790     0.0968200
  H        1.3890810     2.5538390     0.8512930
  H       -3.2566820    -1.5436220     0.0624630
  H       -3.2744260    -0.0723770    -0.9160080
  H       -3.2759870     0.0412750     0.8446610
units angstrom
no_reorient  #important for SAPT in psi4, default
symmetry c1  #important for SAPT in psi4, default
}

set PROPERTIES_ORIGIN ["COM"]
properties('MP2/aug-cc-pvtz', properties = ['dipole'])
--------------------------------------------------------------------------

    Molecular point group: c1
  Charge       = 0
  Multiplicity = 1
  Basis Set: AUG-CC-PVTZ
    Blend: AUG-CC-PVTZ
  Basis Set: (AUG-CC-PVTZ AUX)
    Blend: AUG-CC-PVTZ-JKFIT

    Orbital Energies [Eh]
    ---------------------

    Doubly Occupied:

       1A    -20.500089     2A    -15.615666     3A    -11.343983
       4A    -11.296743     5A    -11.268916     6A    -11.242934
       7A    -11.238230     8A    -11.237378     9A    -11.230945
      10A    -11.212669    11A     -1.361638    12A     -1.263061
      13A     -1.131823    14A     -1.061959    15A     -0.994303
      16A     -0.948868    17A     -0.934629    18A     -0.831806
      19A     -0.809847    20A     -0.726126    21A     -0.705434
      22A     -0.645738    23A     -0.622782    24A     -0.598301
      25A     -0.587449    26A     -0.584064    27A     -0.574071
      28A     -0.569625    29A     -0.561289    30A     -0.551222
      31A     -0.534144    32A     -0.505737    33A     -0.499262
      34A     -0.468536    35A     -0.415558    36A     -0.388209
      37A     -0.295544

  @DF-RHF Final Energy:  -438.82676079798694

   => Energetics <=

    Nuclear Repulsion Energy =            523.0527188767974849
    One-Electron Energy =               -1633.0418031434317072
    Two-Electron Energy =                 671.1623234686471733
    Total Energy =                       -438.8267607979869354
  Basis Set: (AUG-CC-PVTZ AUX)
    Blend: AUG-CC-PVTZ-RI
    Molecular point group: c1

    Geometry (in Angstrom), charge = 0, multiplicity = 1:

       Center              X                  Y                   Z               Mass
    ------------   -----------------  -----------------  -----------------  -----------------
         O            2.673866871247    -0.693524350008    -0.011940377077    15.994914619570
         N            0.614904871247    -1.677645350008     0.006860622923    14.003074004430
         C           -0.667197128753     0.738317649992    -0.009930377077    12.000000000000
         C            0.713849871247     0.710138649992     0.004214622923    12.000000000000
         C           -1.431581128753    -0.478836350008     0.002547622923    12.000000000000
         C            1.440535871247    -0.554264350008    -0.003755377077    12.000000000000
         C           -0.750775128753    -1.663847350008     0.007407622923    12.000000000000
         C           -1.418704128753     2.044649649992    -0.004141377077    12.000000000000
         C            1.571908871247     1.946300649992     0.012412622923    12.000000000000
         C           -2.935561128753    -0.472987350008    -0.001697377077    12.000000000000
         H           -1.241045128753    -2.633289350008     0.016602622923     1.007825032230
         H           -2.197783128753     2.050657649992    -0.772581377077     1.007825032230
         H           -0.759367128753     2.892962649992    -0.188128377077     1.007825032230
         H           -1.892340128753     2.198491549992     0.916142122923     1.007825032230
         H            1.121158871247    -2.559116350008     0.006228622923     1.007825032230
         H            1.454635871247     2.523868649992    -0.910660377077     1.007825032230
         H            2.616754871247     1.645589649992     0.097481622923     1.007825032230
         H            1.324673871247     2.602849649992     0.851954622923     1.007825032230
         H           -3.321089128753    -1.494611350008     0.063124622923     1.007825032230
         H           -3.338833128753    -0.023366350008    -0.915346377077     1.007825032230
         H           -3.340394128753     0.090285649992     0.845322622923     1.007825032230

  Basis Set: AUG-CC-PVTZ
    Blend: AUG-CC-PVTZ
  Basis Set: (AUG-CC-PVTZ AUX)
    Blend: AUG-CC-PVTZ-JKFIT
	 Reference Energy          =    -438.8267607979869354 [Eh]
	 Singles Energy            =      -0.0000000000000000 [Eh]
	 Same-Spin Energy          =      -0.4701320736993982 [Eh]
	 Opposite-Spin Energy      =      -1.4988696891740279 [Eh]
	 Correlation Energy        =      -1.9690017628734262 [Eh]
	 Total Energy              =    -440.7957625608603394 [Eh]

	 ================> DF-SCS-MP2 Energies <==================
	-----------------------------------------------------------
	 SCS Same-Spin Scale       =       0.3333333333333333 [-]
	 SCS Opposite-Spin Scale   =       1.2000000000000000 [-]
	 SCS Same-Spin Energy      =      -0.1567106912331327 [Eh]
	 SCS Opposite-Spin Energy  =      -1.7986436270088333 [Eh]
	 SCS Correlation Energy    =      -1.9553543182419659 [Eh]
	 SCS Total Energy          =    -440.7821151162289084 [Eh]
	-----------------------------------------------------------

  Dipole Moment: [D]
     X:    -4.4761      Y:    -0.2846      Z:     0.0545     Total:     4.4855

*** Psi4 exiting successfully. Buy a developer a beer!
