                               Psi4 1.4a3.dev225

  ==> Input File <==

--------------------------------------------------------------------------
#psi4
#
memory 32 gb

molecule  {
0 1
  O        2.7382740    -0.7425350    -0.0126020
  N        0.6793120    -1.7266560     0.0061990
  C       -0.6027900     0.6893070    -0.0105920
  C        0.7782570     0.6611280     0.0035530
  C       -1.3671740    -0.5278470     0.0018860
  C        1.5049430    -0.6032750    -0.0044170
  C       -0.6863680    -1.7128580     0.0067460
  C       -1.3542970     1.9956390    -0.0048030
  C        1.6933374     1.9794378     0.0122958
  C       -2.8711540    -0.5219980    -0.0023590
  H       -1.1766380    -2.6823000     0.0159410
  H       -2.1333760     2.0016470    -0.7732430
  H       -0.6949600     2.8439520    -0.1887900
  H       -1.8505650     2.1568320     0.9594550
  H        1.1855660    -2.6081270     0.0055670
  H        1.5190430     2.4748580    -0.9113220
  H        2.6811620     1.5965790     0.0968200
  H        1.3890810     2.5538390     0.8512930
  H       -3.2566820    -1.5436220     0.0624630
  H       -3.2744260    -0.0723770    -0.9160080
  H       -3.2759870     0.0412750     0.8446610
units angstrom
no_reorient  #important for SAPT in psi4, default
symmetry c1  #important for SAPT in psi4, default
}

set PROPERTIES_ORIGIN ["COM"]
properties('MP2/aug-cc-pvtz', properties = ['dipole'])
--------------------------------------------------------------------------

    Molecular point group: c1
  Charge       = 0
  Multiplicity = 1
  Basis Set: AUG-CC-PVTZ
    Blend: AUG-CC-PVTZ
  Basis Set: (AUG-CC-PVTZ AUX)
    Blend: AUG-CC-PVTZ-JKFIT

    Orbital Energies [Eh]
    ---------------------

    Doubly Occupied:

       1A    -20.499812     2A    -15.615374     3A    -11.344014
       4A    -11.296321     5A    -11.268866     6A    -11.242642
       7A    -11.241703     8A    -11.237034     9A    -11.236961
      10A    -11.212511    11A     -1.361156    12A     -1.262753
      13A     -1.128439    14A     -1.056003    15A     -0.987374
      16A     -0.948474    17A     -0.936450    18A     -0.830429
      19A     -0.810960    20A     -0.725312    21A     -0.702768
      22A     -0.644245    23A     -0.620379    24A     -0.598082
      25A     -0.583660    26A     -0.582254    27A     -0.575190
      28A     -0.572031    29A     -0.559537    30A     -0.551977
      31A     -0.539650    32A     -0.514665    33A     -0.481998
      34A     -0.468556    35A     -0.413894    36A     -0.389506
      37A     -0.296274

  @DF-RHF Final Energy:  -438.82092313308738

   => Energetics <=

    Nuclear Repulsion Energy =            520.9789795418190579
    One-Electron Energy =               -1628.9252928985154085
    Two-Electron Energy =                 669.1253902236090880
    Total Energy =                       -438.8209231330873763
  Basis Set: (AUG-CC-PVTZ AUX)
    Blend: AUG-CC-PVTZ-RI
    Molecular point group: c1

    Geometry (in Angstrom), charge = 0, multiplicity = 1:

       Center              X                  Y                   Z               Mass
    ------------   -----------------  -----------------  -----------------  -----------------
         O            2.669041746542    -0.700769409672    -0.012311362590    15.994914619570
         N            0.610079746542    -1.684890409672     0.006489637410    14.003074004430
         C           -0.672022253458     0.731072590328    -0.010301362590    12.000000000000
         C            0.709024746542     0.702893590328     0.003843637410    12.000000000000
         C           -1.436406253458    -0.486081409672     0.002176637410    12.000000000000
         C            1.435710746542    -0.561509409672    -0.004126362590    12.000000000000
         C           -0.755600253458    -1.671092409672     0.007036637410    12.000000000000
         C           -1.423529253458     2.037404590328    -0.004512362590    12.000000000000
         C            1.624105146542     2.021203390328     0.012586437410    12.000000000000
         C           -2.940386253458    -0.480232409672    -0.002068362590    12.000000000000
         H           -1.245870253458    -2.640534409672     0.016231637410     1.007825032230
         H           -2.202608253458     2.043412590328    -0.772952362590     1.007825032230
         H           -0.764192253458     2.885717590328    -0.188499362590     1.007825032230
         H           -1.919797253458     2.198597590328     0.959745637410     1.007825032230
         H            1.116333746542    -2.566361409672     0.005857637410     1.007825032230
         H            1.449810746542     2.516623590328    -0.911031362590     1.007825032230
         H            2.611929746542     1.638344590328     0.097110637410     1.007825032230
         H            1.319848746542     2.595604590328     0.851583637410     1.007825032230
         H           -3.325914253458    -1.501856409672     0.062753637410     1.007825032230
         H           -3.343658253458    -0.030611409672    -0.915717362590     1.007825032230
         H           -3.345219253458     0.083040590328     0.844951637410     1.007825032230

  Basis Set: AUG-CC-PVTZ
    Blend: AUG-CC-PVTZ
  Basis Set: (AUG-CC-PVTZ AUX)
    Blend: AUG-CC-PVTZ-JKFIT
	 Reference Energy          =    -438.8209231330873763 [Eh]
	 Singles Energy            =      -0.0000000000000000 [Eh]
	 Same-Spin Energy          =      -0.4694919246995073 [Eh]
	 Opposite-Spin Energy      =      -1.4988933789678291 [Eh]
	 Correlation Energy        =      -1.9683853036673364 [Eh]
	 Total Energy              =    -440.7893084367547090 [Eh]

	 ================> DF-SCS-MP2 Energies <==================
	-----------------------------------------------------------
	 SCS Same-Spin Scale       =       0.3333333333333333 [-]
	 SCS Opposite-Spin Scale   =       1.2000000000000000 [-]
	 SCS Same-Spin Energy      =      -0.1564973082331691 [Eh]
	 SCS Opposite-Spin Energy  =      -1.7986720547613950 [Eh]
	 SCS Correlation Energy    =      -1.9551693629945641 [Eh]
	 SCS Total Energy          =    -440.7760924960819580 [Eh]
	-----------------------------------------------------------

  Dipole Moment: [D]
     X:    -4.4916      Y:    -0.3036      Z:     0.0421     Total:     4.5021

*** Psi4 exiting successfully. Buy a developer a beer!
