                               Psi4 1.4a3.dev225

  ==> Input File <==

--------------------------------------------------------------------------
#psi4
#
memory 32 gb

molecule  {
0 1
  O        2.7382740    -0.7425350    -0.0126020
  N        0.6793120    -1.7266560     0.0061990
  C       -0.6027900     0.6893070    -0.0105920
  C        0.7782570     0.6611280     0.0035530
  C       -1.3671740    -0.5278470     0.0018860
  C        1.5049430    -0.6032750    -0.0044170
  C       -0.6863680    -1.7128580     0.0067460
  C       -1.3542970     1.9956390    -0.0048030
  C        1.6363160     1.8972900     0.0117510
  C       -2.8711540    -0.5219980    -0.0023590
  H       -1.1766380    -2.6823000     0.0159410
  H       -2.1333760     2.0016470    -0.7732430
  H       -0.6949600     2.8439520    -0.1887900
  H       -1.8505650     2.1568320     0.9594550
  H        1.1855660    -2.6081270     0.0055670
  H        1.5190430     2.4748580    -0.9113220
  H        2.6811620     1.5965790     0.0968200
  H        1.3890810     2.5538390     0.8512930
  H       -3.2390598    -1.4969243     0.0595000
  H       -3.2744260    -0.0723770    -0.9160080
  H       -3.2759870     0.0412750     0.8446610
units angstrom
no_reorient  #important for SAPT in psi4, default
symmetry c1  #important for SAPT in psi4, default
}

set PROPERTIES_ORIGIN ["COM"]
properties('MP2/aug-cc-pvtz', properties = ['dipole'])
--------------------------------------------------------------------------

    Molecular point group: c1
  Charge       = 0
  Multiplicity = 1
  Basis Set: AUG-CC-PVTZ
    Blend: AUG-CC-PVTZ
  Basis Set: (AUG-CC-PVTZ AUX)
    Blend: AUG-CC-PVTZ-JKFIT

    Orbital Energies [Eh]
    ---------------------

    Doubly Occupied:

       1A    -20.500106     2A    -15.615631     3A    -11.344011
       4A    -11.296654     5A    -11.268934     6A    -11.242677
       7A    -11.238316     8A    -11.236712     9A    -11.231136
      10A    -11.212681    11A     -1.361642    12A     -1.263038
      13A     -1.131491    14A     -1.062924    15A     -0.991201
      16A     -0.952162    17A     -0.933960    18A     -0.830367
      19A     -0.810544    20A     -0.726087    21A     -0.706380
      22A     -0.645410    23A     -0.620447    24A     -0.598287
      25A     -0.586256    26A     -0.582229    27A     -0.576795
      28A     -0.570751    29A     -0.561321    30A     -0.550034
      31A     -0.535173    32A     -0.505666    33A     -0.500106
      34A     -0.468480    35A     -0.415566    36A     -0.387635
      37A     -0.295499

  @DF-RHF Final Energy:  -438.82678964029270

   => Energetics <=

    Nuclear Repulsion Energy =            523.0501991483071151
    One-Electron Energy =               -1633.0413592704956045
    Two-Electron Energy =                 671.1643704818957303
    Total Energy =                       -438.8267896402926453
  Basis Set: (AUG-CC-PVTZ AUX)
    Blend: AUG-CC-PVTZ-RI
    Molecular point group: c1

    Geometry (in Angstrom), charge = 0, multiplicity = 1:

       Center              X                  Y                   Z               Mass
    ------------   -----------------  -----------------  -----------------  -----------------
         O            2.673903702675    -0.693921710080    -0.012241888537    15.994914619570
         N            0.614941702675    -1.678042710080     0.006559111463    14.003074004430
         C           -0.667160297325     0.737920289920    -0.010231888537    12.000000000000
         C            0.713886702675     0.709741289920     0.003913111463    12.000000000000
         C           -1.431544297325    -0.479233710080     0.002246111463    12.000000000000
         C            1.440572702675    -0.554661710080    -0.004056888537    12.000000000000
         C           -0.750738297325    -1.664244710080     0.007106111463    12.000000000000
         C           -1.418667297325     2.044252289920    -0.004442888537    12.000000000000
         C            1.571945702675     1.945903289920     0.012111111463    12.000000000000
         C           -2.935524297325    -0.473384710080    -0.001998888537    12.000000000000
         H           -1.241008297325    -2.633686710080     0.016301111463     1.007825032230
         H           -2.197746297325     2.050260289920    -0.772882888537     1.007825032230
         H           -0.759330297325     2.892565289920    -0.188429888537     1.007825032230
         H           -1.914935297325     2.205445289920     0.959815111463     1.007825032230
         H            1.121195702675    -2.559513710080     0.005927111463     1.007825032230
         H            1.454672702675     2.523471289920    -0.910961888537     1.007825032230
         H            2.616791702675     1.645192289920     0.097180111463     1.007825032230
         H            1.324710702675     2.602452289920     0.851653111463     1.007825032230
         H           -3.303430097325    -1.448311010080     0.059860111463     1.007825032230
         H           -3.338796297325    -0.023763710080    -0.915647888537     1.007825032230
         H           -3.340357297325     0.089888289920     0.845021111463     1.007825032230

  Basis Set: AUG-CC-PVTZ
    Blend: AUG-CC-PVTZ
  Basis Set: (AUG-CC-PVTZ AUX)
    Blend: AUG-CC-PVTZ-JKFIT
	 Reference Energy          =    -438.8267896402927022 [Eh]
	 Singles Energy            =      -0.0000000000000000 [Eh]
	 Same-Spin Energy          =      -0.4701266570400117 [Eh]
	 Opposite-Spin Energy      =      -1.4988274832089263 [Eh]
	 Correlation Energy        =      -1.9689541402489381 [Eh]
	 Total Energy              =    -440.7957437805416134 [Eh]

	 ================> DF-SCS-MP2 Energies <==================
	-----------------------------------------------------------
	 SCS Same-Spin Scale       =       0.3333333333333333 [-]
	 SCS Opposite-Spin Scale   =       1.2000000000000000 [-]
	 SCS Same-Spin Energy      =      -0.1567088856800039 [Eh]
	 SCS Opposite-Spin Energy  =      -1.7985929798507116 [Eh]
	 SCS Correlation Energy    =      -1.9553018655307155 [Eh]
	 SCS Total Energy          =    -440.7820915058234164 [Eh]
	-----------------------------------------------------------

  Dipole Moment: [D]
     X:    -4.4840      Y:    -0.3153      Z:     0.0427     Total:     4.4952

*** Psi4 exiting successfully. Buy a developer a beer!
