                               Psi4 1.4a3.dev225

  ==> Input File <==

--------------------------------------------------------------------------
#psi4
#
memory 32 gb

molecule  {
0 1
  O        2.7382740    -0.7425350    -0.0126020
  N        0.6793120    -1.7266560     0.0061990
  C       -0.6027900     0.6893070    -0.0105920
  C        0.7782570     0.6611280     0.0035530
  C       -1.4203550    -0.6125289     0.0027541
  C        1.5049430    -0.6032750    -0.0044170
  C       -0.6863680    -1.7128580     0.0067460
  C       -1.3542970     1.9956390    -0.0048030
  C        1.6363160     1.8972900     0.0117510
  C       -2.8711540    -0.5219980    -0.0023590
  H       -1.1766380    -2.6823000     0.0159410
  H       -2.1333760     2.0016470    -0.7732430
  H       -0.6949600     2.8439520    -0.1887900
  H       -1.8505650     2.1568320     0.9594550
  H        1.1855660    -2.6081270     0.0055670
  H        1.5190430     2.4748580    -0.9113220
  H        2.6811620     1.5965790     0.0968200
  H        1.3890810     2.5538390     0.8512930
  H       -3.2566820    -1.5436220     0.0624630
  H       -3.2744260    -0.0723770    -0.9160080
  H       -3.2759870     0.0412750     0.8446610
units angstrom
no_reorient  #important for SAPT in psi4, default
symmetry c1  #important for SAPT in psi4, default
}

set PROPERTIES_ORIGIN ["COM"]
properties('MP2/aug-cc-pvtz', properties = ['dipole'])
--------------------------------------------------------------------------

    Molecular point group: c1
  Charge       = 0
  Multiplicity = 1
  Basis Set: AUG-CC-PVTZ
    Blend: AUG-CC-PVTZ
  Basis Set: (AUG-CC-PVTZ AUX)
    Blend: AUG-CC-PVTZ-JKFIT

    Orbital Energies [Eh]
    ---------------------

    Doubly Occupied:

       1A    -20.504682     2A    -15.610490     3A    -11.346483
       4A    -11.286947     5A    -11.275463     6A    -11.242516
       7A    -11.239664     8A    -11.237657     9A    -11.235656
      10A    -11.213640    11A     -1.363451    12A     -1.261205
      13A     -1.124726    14A     -1.071505    15A     -0.992373
      16A     -0.956221    17A     -0.929945    18A     -0.823519
      19A     -0.806262    20A     -0.728332    21A     -0.700901
      22A     -0.640957    23A     -0.620696    24A     -0.599724
      25A     -0.592575    26A     -0.583476    27A     -0.574503
      28A     -0.570949    29A     -0.564726    30A     -0.551027
      31A     -0.540199    32A     -0.511248    33A     -0.481312
      34A     -0.469876    35A     -0.416836    36A     -0.379196
      37A     -0.306169

  @DF-RHF Final Energy:  -438.82086684945307

   => Energetics <=

    Nuclear Repulsion Energy =            522.0428437870051539
    One-Electron Energy =               -1631.0172066294896922
    Two-Electron Energy =                 670.1534959930313562
    Total Energy =                       -438.8208668494530684
  Basis Set: (AUG-CC-PVTZ AUX)
    Blend: AUG-CC-PVTZ-RI
    Molecular point group: c1

    Geometry (in Angstrom), charge = 0, multiplicity = 1:

       Center              X                  Y                   Z               Mass
    ------------   -----------------  -----------------  -----------------  -----------------
         O            2.678688592146    -0.686165550246    -0.012339663473    15.994914619570
         N            0.619726592146    -1.670286550246     0.006461336527    14.003074004430
         C           -0.662375407854     0.745676449754    -0.010329663473    12.000000000000
         C            0.718671592146     0.717497449754     0.003815336527    12.000000000000
         C           -1.479940407854    -0.556159450246     0.003016436527    12.000000000000
         C            1.445357592146    -0.546905550246    -0.004154663473    12.000000000000
         C           -0.745953407854    -1.656488550246     0.007008336527    12.000000000000
         C           -1.413882407854     2.052008449754    -0.004540663473    12.000000000000
         C            1.576730592146     1.953659449754     0.012013336527    12.000000000000
         C           -2.930739407854    -0.465628550246    -0.002096663473    12.000000000000
         H           -1.236223407854    -2.625930550246     0.016203336527     1.007825032230
         H           -2.192961407854     2.058016449754    -0.772980663473     1.007825032230
         H           -0.754545407854     2.900321449754    -0.188527663473     1.007825032230
         H           -1.910150407854     2.213201449754     0.959717336527     1.007825032230
         H            1.125980592146    -2.551757550246     0.005829336527     1.007825032230
         H            1.459457592146     2.531227449754    -0.911059663473     1.007825032230
         H            2.621576592146     1.652948449754     0.097082336527     1.007825032230
         H            1.329495592146     2.610208449754     0.851555336527     1.007825032230
         H           -3.316267407854    -1.487252550246     0.062725336527     1.007825032230
         H           -3.334011407854    -0.016007550246    -0.915745663473     1.007825032230
         H           -3.335572407854     0.097644449754     0.844923336527     1.007825032230

  Basis Set: AUG-CC-PVTZ
    Blend: AUG-CC-PVTZ
  Basis Set: (AUG-CC-PVTZ AUX)
    Blend: AUG-CC-PVTZ-JKFIT
	 Reference Energy          =    -438.8208668494530684 [Eh]
	 Singles Energy            =      -0.0000000000000000 [Eh]
	 Same-Spin Energy          =      -0.4683081813449609 [Eh]
	 Opposite-Spin Energy      =      -1.4976367642495942 [Eh]
	 Correlation Energy        =      -1.9659449455945550 [Eh]
	 Total Energy              =    -440.7868117950476403 [Eh]

	 ================> DF-SCS-MP2 Energies <==================
	-----------------------------------------------------------
	 SCS Same-Spin Scale       =       0.3333333333333333 [-]
	 SCS Opposite-Spin Scale   =       1.2000000000000000 [-]
	 SCS Same-Spin Energy      =      -0.1561027271149870 [Eh]
	 SCS Opposite-Spin Energy  =      -1.7971641170995130 [Eh]
	 SCS Correlation Energy    =      -1.9532668442144998 [Eh]
	 SCS Total Energy          =    -440.7741336936675793 [Eh]
	-----------------------------------------------------------

  Dipole Moment: [D]
     X:    -4.3682      Y:    -0.1484      Z:     0.0404     Total:     4.3709

*** Psi4 exiting successfully. Buy a developer a beer!
