                               Psi4 1.4a3.dev225

  ==> Input File <==

--------------------------------------------------------------------------
#psi4
#
memory 32 gb

molecule  {
0 1
  O        2.7382740    -0.7425350    -0.0126020
  N        0.6793120    -1.7266560     0.0061990
  C       -0.6027900     0.6893070    -0.0105920
  C        0.7782570     0.6611280     0.0035530
  C       -1.3937645    -0.5701880     0.0023201
  C        1.5049430    -0.6032750    -0.0044170
  C       -0.6863680    -1.7128580     0.0067460
  C       -1.3542970     1.9956390    -0.0048030
  C        1.6363160     1.8972900     0.0117510
  C       -2.8711540    -0.5219980    -0.0023590
  H       -1.1766380    -2.6823000     0.0159410
  H       -2.1333760     2.0016470    -0.7732430
  H       -0.6949600     2.8439520    -0.1887900
  H       -1.8505650     2.1568320     0.9594550
  H        1.1855660    -2.6081270     0.0055670
  H        1.5190430     2.4748580    -0.9113220
  H        2.6811620     1.5965790     0.0968200
  H        1.3890810     2.5538390     0.8512930
  H       -3.2566820    -1.5436220     0.0624630
  H       -3.2744260    -0.0723770    -0.9160080
  H       -3.2759870     0.0412750     0.8446610
units angstrom
no_reorient  #important for SAPT in psi4, default
symmetry c1  #important for SAPT in psi4, default
}

set PROPERTIES_ORIGIN ["COM"]
properties('MP2/aug-cc-pvtz', properties = ['dipole'])
--------------------------------------------------------------------------

    Molecular point group: c1
  Charge       = 0
  Multiplicity = 1
  Basis Set: AUG-CC-PVTZ
    Blend: AUG-CC-PVTZ
  Basis Set: (AUG-CC-PVTZ AUX)
    Blend: AUG-CC-PVTZ-JKFIT

    Orbital Energies [Eh]
    ---------------------

    Doubly Occupied:

       1A    -20.502595     2A    -15.612830     3A    -11.345419
       4A    -11.291476     5A    -11.272859     6A    -11.242664
       7A    -11.239253     8A    -11.237410     9A    -11.236317
      10A    -11.213338    11A     -1.362643    12A     -1.262094
      13A     -1.127649    14A     -1.066766    15A     -0.991921
      16A     -0.952191    17A     -0.931907    18A     -0.826007
      19A     -0.808699    20A     -0.727244    21A     -0.703231
      22A     -0.643112    23A     -0.620590    24A     -0.598816
      25A     -0.588004    26A     -0.582853    27A     -0.573065
      28A     -0.569896    29A     -0.564131    30A     -0.550685
      31A     -0.537308    32A     -0.509193    33A     -0.491304
      34A     -0.469190    35A     -0.416519    36A     -0.383249
      37A     -0.300960

  @DF-RHF Final Energy:  -438.82692769206238

   => Energetics <=

    Nuclear Repulsion Energy =            522.4191150915928574
    One-Electron Energy =               -1631.7853107956011627
    Two-Electron Energy =                 670.5392680119458646
    Total Energy =                       -438.8269276920624407
  Basis Set: (AUG-CC-PVTZ AUX)
    Blend: AUG-CC-PVTZ-RI
    Molecular point group: c1

    Geometry (in Angstrom), charge = 0, multiplicity = 1:

       Center              X                  Y                   Z               Mass
    ------------   -----------------  -----------------  -----------------  -----------------
         O            2.676360925525    -0.689871967937    -0.012301672186    15.994914619570
         N            0.617398925525    -1.673992967937     0.006499327814    14.003074004430
         C           -0.664703074475     0.741970032063    -0.010291672186    12.000000000000
         C            0.716343925525     0.713791032063     0.003853327814    12.000000000000
         C           -1.455677574475    -0.517524967937     0.002620427814    12.000000000000
         C            1.443029925525    -0.550611967937    -0.004116672186    12.000000000000
         C           -0.748281074475    -1.660194967937     0.007046327814    12.000000000000
         C           -1.416210074475     2.048302032063    -0.004502672186    12.000000000000
         C            1.574402925525     1.949953032063     0.012051327814    12.000000000000
         C           -2.933067074475    -0.469334967937    -0.002058672186    12.000000000000
         H           -1.238551074475    -2.629636967937     0.016241327814     1.007825032230
         H           -2.195289074475     2.054310032063    -0.772942672186     1.007825032230
         H           -0.756873074475     2.896615032063    -0.188489672186     1.007825032230
         H           -1.912478074475     2.209495032063     0.959755327814     1.007825032230
         H            1.123652925525    -2.555463967937     0.005867327814     1.007825032230
         H            1.457129925525     2.527521032063    -0.911021672186     1.007825032230
         H            2.619248925525     1.649242032063     0.097120327814     1.007825032230
         H            1.327167925525     2.606502032063     0.851593327814     1.007825032230
         H           -3.318595074475    -1.490958967937     0.062763327814     1.007825032230
         H           -3.336339074475    -0.019713967937    -0.915707672186     1.007825032230
         H           -3.337900074475     0.093938032063     0.844961327814     1.007825032230

  Basis Set: AUG-CC-PVTZ
    Blend: AUG-CC-PVTZ
  Basis Set: (AUG-CC-PVTZ AUX)
    Blend: AUG-CC-PVTZ-JKFIT
	 Reference Energy          =    -438.8269276920623838 [Eh]
	 Singles Energy            =      -0.0000000000000000 [Eh]
	 Same-Spin Energy          =      -0.4691001831077244 [Eh]
	 Opposite-Spin Energy      =      -1.4981893466257805 [Eh]
	 Correlation Energy        =      -1.9672895297335049 [Eh]
	 Total Energy              =    -440.7942172217958614 [Eh]

	 ================> DF-SCS-MP2 Energies <==================
	-----------------------------------------------------------
	 SCS Same-Spin Scale       =       0.3333333333333333 [-]
	 SCS Opposite-Spin Scale   =       1.2000000000000000 [-]
	 SCS Same-Spin Energy      =      -0.1563667277025748 [Eh]
	 SCS Opposite-Spin Energy  =      -1.7978272159509365 [Eh]
	 SCS Correlation Energy    =      -1.9541939436535114 [Eh]
	 SCS Total Energy          =    -440.7811216357159196 [Eh]
	-----------------------------------------------------------

  Dipole Moment: [D]
     X:    -4.4124      Y:    -0.2205      Z:     0.0410     Total:     4.4181

*** Psi4 exiting successfully. Buy a developer a beer!
