                               Psi4 1.4a3.dev225

  ==> Input File <==

--------------------------------------------------------------------------
#psi4
#
memory 32 gb

molecule  {
0 1
  O        2.7382740    -0.7425350    -0.0126020
  N        0.6793120    -1.7266560     0.0061990
  C       -0.6027900     0.6893070    -0.0105920
  C        0.7782570     0.6611280     0.0035530
  C       -1.3671740    -0.5278470     0.0018860
  C        1.5049430    -0.6032750    -0.0044170
  C       -0.6863680    -1.7128580     0.0067460
  C       -1.3542970     1.9956390    -0.0048030
  C        1.6363160     1.8972900     0.0117510
  C       -2.8711540    -0.5219980    -0.0023590
  H       -1.1766380    -2.6823000     0.0159410
  H       -2.1333760     2.0016470    -0.7732430
  H       -0.6949600     2.8439520    -0.1887900
  H       -1.8505650     2.1568320     0.9594550
  H        1.1855660    -2.6081270     0.0055670
  H        1.5190430     2.4748580    -0.9113220
  H        2.6811620     1.5965790     0.0968200
  H        1.3890810     2.5538390     0.8512930
  H       -3.2566820    -1.5436220     0.0624630
  H       -3.2007849    -0.1544819    -0.7491674
  H       -3.2759870     0.0412750     0.8446610
units angstrom
no_reorient  #important for SAPT in psi4, default
symmetry c1  #important for SAPT in psi4, default
}

set PROPERTIES_ORIGIN ["COM"]
properties('MP2/aug-cc-pvtz', properties = ['dipole'])
--------------------------------------------------------------------------

    Molecular point group: c1
  Charge       = 0
  Multiplicity = 1
  Basis Set: AUG-CC-PVTZ
    Blend: AUG-CC-PVTZ
  Basis Set: (AUG-CC-PVTZ AUX)
    Blend: AUG-CC-PVTZ-JKFIT

    Orbital Energies [Eh]
    ---------------------

    Doubly Occupied:

       1A    -20.499692     2A    -15.615015     3A    -11.343628
       4A    -11.295689     5A    -11.268985     6A    -11.241593
       7A    -11.238154     8A    -11.237561     9A    -11.212659
      10A    -11.212547    11A     -1.361229    12A     -1.262486
      13A     -1.132627    14A     -1.066452    15A     -0.991960
      16A     -0.967603    17A     -0.933850    18A     -0.830141
      19A     -0.813591    20A     -0.728358    21A     -0.705637
      22A     -0.645358    23A     -0.631744    24A     -0.600692
      25A     -0.597721    26A     -0.584542    27A     -0.576149
      28A     -0.568929    29A     -0.561379    30A     -0.552527
      31A     -0.536029    32A     -0.505678    33A     -0.498983
      34A     -0.468944    35A     -0.415226    36A     -0.388144
      37A     -0.295533

  @DF-RHF Final Energy:  -438.79411444247040

   => Energetics <=

    Nuclear Repulsion Energy =            523.8166030480192603
    One-Electron Energy =               -1634.4473698575047820
    Two-Electron Energy =                 671.8366523670151764
    Total Energy =                       -438.7941144424703452
  Basis Set: (AUG-CC-PVTZ AUX)
    Blend: AUG-CC-PVTZ-RI
    Molecular point group: c1

    Geometry (in Angstrom), charge = 0, multiplicity = 1:

       Center              X                  Y                   Z               Mass
    ------------   -----------------  -----------------  -----------------  -----------------
         O            2.673491858672    -0.692974769344    -0.013490263539    15.994914619570
         N            0.614529858672    -1.677095769344     0.005310736461    14.003074004430
         C           -0.667572141328     0.738867230656    -0.011480263539    12.000000000000
         C            0.713474858672     0.710688230656     0.002664736461    12.000000000000
         C           -1.431956141328    -0.478286769344     0.000997736461    12.000000000000
         C            1.440160858672    -0.553714769344    -0.005305263539    12.000000000000
         C           -0.751150141328    -1.663297769344     0.005857736461    12.000000000000
         C           -1.419079141328     2.045199230656    -0.005691263539    12.000000000000
         C            1.571533858672     1.946850230656     0.010862736461    12.000000000000
         C           -2.935936141328    -0.472437769344    -0.003247263539    12.000000000000
         H           -1.241420141328    -2.632739769344     0.015052736461     1.007825032230
         H           -2.198158141328     2.051207230656    -0.774131263539     1.007825032230
         H           -0.759742141328     2.893512230656    -0.189678263539     1.007825032230
         H           -1.915347141328     2.206392230656     0.958566736461     1.007825032230
         H            1.120783858672    -2.558566769344     0.004678736461     1.007825032230
         H            1.454260858672     2.524418230656    -0.912210263539     1.007825032230
         H            2.616379858672     1.646139230656     0.095931736461     1.007825032230
         H            1.324298858672     2.603399230656     0.850404736461     1.007825032230
         H           -3.321464141328    -1.494061769344     0.061574736461     1.007825032230
         H           -3.265567041328    -0.104921669344    -0.750055663539     1.007825032230
         H           -3.340769141328     0.090835230656     0.843772736461     1.007825032230

  Basis Set: AUG-CC-PVTZ
    Blend: AUG-CC-PVTZ
  Basis Set: (AUG-CC-PVTZ AUX)
    Blend: AUG-CC-PVTZ-JKFIT
	 Reference Energy          =    -438.7941144424704021 [Eh]
	 Singles Energy            =      -0.0000000000000000 [Eh]
	 Same-Spin Energy          =      -0.4702158029565064 [Eh]
	 Opposite-Spin Energy      =      -1.4985264202068855 [Eh]
	 Correlation Energy        =      -1.9687422231633920 [Eh]
	 Total Energy              =    -440.7628566656338194 [Eh]

	 ================> DF-SCS-MP2 Energies <==================
	-----------------------------------------------------------
	 SCS Same-Spin Scale       =       0.3333333333333333 [-]
	 SCS Opposite-Spin Scale   =       1.2000000000000000 [-]
	 SCS Same-Spin Energy      =      -0.1567386009855021 [Eh]
	 SCS Opposite-Spin Energy  =      -1.7982317042482625 [Eh]
	 SCS Correlation Energy    =      -1.9549703052337646 [Eh]
	 SCS Total Energy          =    -440.7490847477041598 [Eh]
	-----------------------------------------------------------

  Dipole Moment: [D]
     X:    -4.5286      Y:    -0.2641      Z:     0.0015     Total:     4.5363

*** Psi4 exiting successfully. Buy a developer a beer!
