                               Psi4 1.4a3.dev225

  ==> Input File <==

--------------------------------------------------------------------------
#psi4
#
memory 32 gb

molecule  {
0 1
  O        2.7382740    -0.7425350    -0.0126020
  N        0.6793120    -1.7266560     0.0061990
  C       -0.6027900     0.6893070    -0.0105920
  C        0.7782570     0.6611280     0.0035530
  C       -1.3671740    -0.5278470     0.0018860
  C        1.5049430    -0.6032750    -0.0044170
  C       -0.6863680    -1.7128580     0.0067460
  C       -1.3542970     1.9956390    -0.0048030
  C        1.6363160     1.8972900     0.0117510
  C       -2.8711540    -0.5219980    -0.0023590
  H       -1.1766380    -2.6823000     0.0159410
  H       -2.1333760     2.0016470    -0.7732430
  H       -0.6949600     2.8439520    -0.1887900
  H       -1.8596178     2.1597724     0.9770448
  H        1.1855660    -2.6081270     0.0055670
  H        1.5190430     2.4748580    -0.9113220
  H        2.6811620     1.5965790     0.0968200
  H        1.3890810     2.5538390     0.8512930
  H       -3.2566820    -1.5436220     0.0624630
  H       -3.2744260    -0.0723770    -0.9160080
  H       -3.2759870     0.0412750     0.8446610
units angstrom
no_reorient  #important for SAPT in psi4, default
symmetry c1  #important for SAPT in psi4, default
}

set PROPERTIES_ORIGIN ["COM"]
properties('MP2/aug-cc-pvtz', properties = ['dipole'])
--------------------------------------------------------------------------

    Molecular point group: c1
  Charge       = 0
  Multiplicity = 1
  Basis Set: AUG-CC-PVTZ
    Blend: AUG-CC-PVTZ
  Basis Set: (AUG-CC-PVTZ AUX)
    Blend: AUG-CC-PVTZ-JKFIT

    Orbital Energies [Eh]
    ---------------------

    Doubly Occupied:

       1A    -20.500287     2A    -15.615795     3A    -11.344207
       4A    -11.296805     5A    -11.269422     6A    -11.243039
       7A    -11.239382     8A    -11.238620     9A    -11.237223
      10A    -11.212902    11A     -1.361820    12A     -1.263202
      13A     -1.131445    14A     -1.062053    15A     -0.990123
      16A     -0.948822    17A     -0.933830    18A     -0.829780
      19A     -0.809695    20A     -0.726236    21A     -0.705529
      22A     -0.645388    23A     -0.620065    24A     -0.598190
      25A     -0.586212    26A     -0.581764    27A     -0.570653
      28A     -0.568633    29A     -0.561669    30A     -0.549639
      31A     -0.533603    32A     -0.505844    33A     -0.499587
      34A     -0.468629    35A     -0.415759    36A     -0.387759
      37A     -0.295653

  @DF-RHF Final Energy:  -438.82715995515235

   => Energetics <=

    Nuclear Repulsion Energy =            522.7276943196643515
    One-Electron Energy =               -1632.4111779452066457
    Two-Electron Energy =                 670.8563236703898838
    Total Energy =                       -438.8271599551524105
  Basis Set: (AUG-CC-PVTZ AUX)
    Blend: AUG-CC-PVTZ-RI
    Molecular point group: c1

    Geometry (in Angstrom), charge = 0, multiplicity = 1:

       Center              X                  Y                   Z               Mass
    ------------   -----------------  -----------------  -----------------  -----------------
         O            2.674099813966    -0.693600011839    -0.012392990173    15.994914619570
         N            0.615137813966    -1.677721011839     0.006408009827    14.003074004430
         C           -0.666964186034     0.738241988161    -0.010382990173    12.000000000000
         C            0.714082813966     0.710062988161     0.003762009827    12.000000000000
         C           -1.431348186034    -0.478912011839     0.002095009827    12.000000000000
         C            1.440768813966    -0.554340011839    -0.004207990173    12.000000000000
         C           -0.750542186034    -1.663923011839     0.006955009827    12.000000000000
         C           -1.418471186034     2.044573988161    -0.004593990173    12.000000000000
         C            1.572141813966     1.946224988161     0.011960009827    12.000000000000
         C           -2.935328186034    -0.473063011839    -0.002149990173    12.000000000000
         H           -1.240812186034    -2.633365011839     0.016150009827     1.007825032230
         H           -2.197550186034     2.050581988161    -0.773033990173     1.007825032230
         H           -0.759134186034     2.892886988161    -0.188580990173     1.007825032230
         H           -1.923791986034     2.208707388161     0.977253809827     1.007825032230
         H            1.121391813966    -2.559192011839     0.005776009827     1.007825032230
         H            1.454868813966     2.523792988161    -0.911112990173     1.007825032230
         H            2.616987813966     1.645513988161     0.097029009827     1.007825032230
         H            1.324906813966     2.602773988161     0.851502009827     1.007825032230
         H           -3.320856186034    -1.494687011839     0.062672009827     1.007825032230
         H           -3.338600186034    -0.023442011839    -0.915798990173     1.007825032230
         H           -3.340161186034     0.090209988161     0.844870009827     1.007825032230

  Basis Set: AUG-CC-PVTZ
    Blend: AUG-CC-PVTZ
  Basis Set: (AUG-CC-PVTZ AUX)
    Blend: AUG-CC-PVTZ-JKFIT
	 Reference Energy          =    -438.8271599551523536 [Eh]
	 Singles Energy            =      -0.0000000000000000 [Eh]
	 Same-Spin Energy          =      -0.4701595497519182 [Eh]
	 Opposite-Spin Energy      =      -1.4992993053515262 [Eh]
	 Correlation Energy        =      -1.9694588551034444 [Eh]
	 Total Energy              =    -440.7966188102557794 [Eh]

	 ================> DF-SCS-MP2 Energies <==================
	-----------------------------------------------------------
	 SCS Same-Spin Scale       =       0.3333333333333333 [-]
	 SCS Opposite-Spin Scale   =       1.2000000000000000 [-]
	 SCS Same-Spin Energy      =      -0.1567198499173061 [Eh]
	 SCS Opposite-Spin Energy  =      -1.7991591664218314 [Eh]
	 SCS Correlation Energy    =      -1.9558790163391375 [Eh]
	 SCS Total Energy          =    -440.7830389714914645 [Eh]
	-----------------------------------------------------------

  Dipole Moment: [D]
     X:    -4.4564      Y:    -0.2970      Z:     0.0358     Total:     4.4665

*** Psi4 exiting successfully. Buy a developer a beer!
