                               Psi4 1.4a3.dev225

  ==> Input File <==

--------------------------------------------------------------------------
#psi4
#
memory 32 gb

molecule  {
0 1
  O        2.7382740    -0.7425350    -0.0126020
  N        0.6793120    -1.7266560     0.0061990
  C       -0.6027900     0.6893070    -0.0105920
  C        0.7782570     0.6611280     0.0035530
  C       -1.3671740    -0.5278470     0.0018860
  C        1.5049430    -0.6032750    -0.0044170
  C       -0.6863680    -1.7128580     0.0067460
  C       -1.3542970     1.9956390    -0.0048030
  C        1.6363160     1.8972900     0.0117510
  C       -2.8711540    -0.5219980    -0.0023590
  H       -1.1766380    -2.6823000     0.0159410
  H       -2.1333760     2.0016470    -0.7732430
  H       -0.6949600     2.8439520    -0.1887900
  H       -1.8415122     2.1538916     0.9418652
  H        1.1855660    -2.6081270     0.0055670
  H        1.5190430     2.4748580    -0.9113220
  H        2.6811620     1.5965790     0.0968200
  H        1.3890810     2.5538390     0.8512930
  H       -3.2566820    -1.5436220     0.0624630
  H       -3.2744260    -0.0723770    -0.9160080
  H       -3.2759870     0.0412750     0.8446610
units angstrom
no_reorient  #important for SAPT in psi4, default
symmetry c1  #important for SAPT in psi4, default
}

set PROPERTIES_ORIGIN ["COM"]
properties('MP2/aug-cc-pvtz', properties = ['dipole'])
--------------------------------------------------------------------------

    Molecular point group: c1
  Charge       = 0
  Multiplicity = 1
  Basis Set: AUG-CC-PVTZ
    Blend: AUG-CC-PVTZ
  Basis Set: (AUG-CC-PVTZ AUX)
    Blend: AUG-CC-PVTZ-JKFIT

    Orbital Energies [Eh]
    ---------------------

    Doubly Occupied:

       1A    -20.500166     2A    -15.615715     3A    -11.344070
       4A    -11.296766     5A    -11.269124     6A    -11.242973
       7A    -11.238381     8A    -11.237313     9A    -11.234598
      10A    -11.212761    11A     -1.361708    12A     -1.263115
      13A     -1.131630    14A     -1.061991    15A     -0.992353
      16A     -0.948846    17A     -0.934265    18A     -0.830875
      19A     -0.809776    20A     -0.726168    21A     -0.705462
      22A     -0.645532    23A     -0.621463    24A     -0.598212
      25A     -0.586551    26A     -0.583125    27A     -0.572574
      28A     -0.569526    29A     -0.561454    30A     -0.550683
      31A     -0.533973    32A     -0.505781    33A     -0.499392
      34A     -0.468571    35A     -0.415636    36A     -0.388019
      37A     -0.295586

  @DF-RHF Final Energy:  -438.82772933472904

   => Energetics <=

    Nuclear Repulsion Energy =            522.9102108793788375
    One-Electron Energy =               -1632.7676164416457141
    Two-Electron Energy =                 671.0296762275378342
    Total Energy =                       -438.8277293347290424
  Basis Set: (AUG-CC-PVTZ AUX)
    Blend: AUG-CC-PVTZ-RI
    Molecular point group: c1

    Geometry (in Angstrom), charge = 0, multiplicity = 1:

       Center              X                  Y                   Z               Mass
    ------------   -----------------  -----------------  -----------------  -----------------
         O            2.673966703841    -0.693556776927    -0.012134354118    15.994914619570
         N            0.615004703841    -1.677677776927     0.006666645882    14.003074004430
         C           -0.667097296159     0.738285223073    -0.010124354118    12.000000000000
         C            0.713949703841     0.710106223073     0.004020645882    12.000000000000
         C           -1.431481296159    -0.478868776927     0.002353645882    12.000000000000
         C            1.440635703841    -0.554296776927    -0.003949354118    12.000000000000
         C           -0.750675296159    -1.663879776927     0.007213645882    12.000000000000
         C           -1.418604296159     2.044617223073    -0.004335354118    12.000000000000
         C            1.572008703841     1.946268223073     0.012218645882    12.000000000000
         C           -2.935461296159    -0.473019776927    -0.001891354118    12.000000000000
         H           -1.240945296159    -2.633321776927     0.016408645882     1.007825032230
         H           -2.197683296159     2.050625223073    -0.772775354118     1.007825032230
         H           -0.759267296159     2.892930223073    -0.188322354118     1.007825032230
         H           -1.905819496159     2.202869823073     0.942332845882     1.007825032230
         H            1.121258703841    -2.559148776927     0.006034645882     1.007825032230
         H            1.454735703841     2.523836223073    -0.910854354118     1.007825032230
         H            2.616854703841     1.645557223073     0.097287645882     1.007825032230
         H            1.324773703841     2.602817223073     0.851760645882     1.007825032230
         H           -3.320989296159    -1.494643776927     0.062930645882     1.007825032230
         H           -3.338733296159    -0.023398776927    -0.915540354118     1.007825032230
         H           -3.340294296159     0.090253223073     0.845128645882     1.007825032230

  Basis Set: AUG-CC-PVTZ
    Blend: AUG-CC-PVTZ
  Basis Set: (AUG-CC-PVTZ AUX)
    Blend: AUG-CC-PVTZ-JKFIT
	 Reference Energy          =    -438.8277293347290424 [Eh]
	 Singles Energy            =      -0.0000000000000000 [Eh]
	 Same-Spin Energy          =      -0.4701414391161614 [Eh]
	 Opposite-Spin Energy      =      -1.4990382532730080 [Eh]
	 Correlation Energy        =      -1.9691796923891693 [Eh]
	 Total Energy              =    -440.7969090271182040 [Eh]

	 ================> DF-SCS-MP2 Energies <==================
	-----------------------------------------------------------
	 SCS Same-Spin Scale       =       0.3333333333333333 [-]
	 SCS Opposite-Spin Scale   =       1.2000000000000000 [-]
	 SCS Same-Spin Energy      =      -0.1567138130387205 [Eh]
	 SCS Opposite-Spin Energy  =      -1.7988459039276095 [Eh]
	 SCS Correlation Energy    =      -1.9555597169663299 [Eh]
	 SCS Total Energy          =    -440.7832890516953626 [Eh]
	-----------------------------------------------------------

  Dipole Moment: [D]
     X:    -4.4684      Y:    -0.2894      Z:     0.0472     Total:     4.4780

*** Psi4 exiting successfully. Buy a developer a beer!
