                               Psi4 1.4a3.dev225

  ==> Input File <==

--------------------------------------------------------------------------
#psi4
#
memory 32 gb

molecule  {
0 1
  O        2.7382740    -0.7425350    -0.0126020
  N        0.6793120    -1.7266560     0.0061990
  C       -0.6027900     0.6893070    -0.0105920
  C        0.7782570     0.6611280     0.0035530
  C       -1.3671740    -0.5278470     0.0018860
  C        1.5049430    -0.6032750    -0.0044170
  C       -0.6863680    -1.7128580     0.0067460
  C       -1.3542970     1.9956390    -0.0048030
  C        1.6363160     1.8972900     0.0117510
  C       -2.8711540    -0.5219980    -0.0023590
  H       -1.1766380    -2.6823000     0.0159410
  H       -2.1333760     2.0016470    -0.7732430
  H       -0.6949600     2.8439520    -0.1887900
  H       -1.8505650     2.1568320     0.9594550
  H        1.1855660    -2.6081270     0.0055670
  H        1.5190430     2.4748580    -0.9113220
  H        2.7003233     1.5910643     0.0983801
  H        1.3890810     2.5538390     0.8512930
  H       -3.2566820    -1.5436220     0.0624630
  H       -3.2744260    -0.0723770    -0.9160080
  H       -3.2759870     0.0412750     0.8446610
units angstrom
no_reorient  #important for SAPT in psi4, default
symmetry c1  #important for SAPT in psi4, default
}

set PROPERTIES_ORIGIN ["COM"]
properties('MP2/aug-cc-pvtz', properties = ['dipole'])
--------------------------------------------------------------------------

    Molecular point group: c1
  Charge       = 0
  Multiplicity = 1
  Basis Set: AUG-CC-PVTZ
    Blend: AUG-CC-PVTZ
  Basis Set: (AUG-CC-PVTZ AUX)
    Blend: AUG-CC-PVTZ-JKFIT

    Orbital Energies [Eh]
    ---------------------

    Doubly Occupied:

       1A    -20.500221     2A    -15.615787     3A    -11.344156
       4A    -11.296823     5A    -11.269356     6A    -11.243050
       7A    -11.238627     8A    -11.237304     9A    -11.237067
      10A    -11.214886    11A     -1.361777    12A     -1.263187
      13A     -1.131544    14A     -1.061855    15A     -0.990829
      16A     -0.948845    17A     -0.933054    18A     -0.830291
      19A     -0.809278    20A     -0.726091    21A     -0.705419
      22A     -0.645450    23A     -0.620759    24A     -0.598055
      25A     -0.586236    26A     -0.582439    27A     -0.571392
      28A     -0.568602    29A     -0.561555    30A     -0.550267
      31A     -0.532946    32A     -0.503355    33A     -0.499571
      34A     -0.468611    35A     -0.415605    36A     -0.387951
      37A     -0.295660

  @DF-RHF Final Energy:  -438.82708457251994

   => Energetics <=

    Nuclear Repulsion Energy =            522.7347727178005243
    One-Electron Energy =               -1632.4279103322533047
    Two-Electron Energy =                 670.8660530419327870
    Total Energy =                       -438.8270845725199933
  Basis Set: (AUG-CC-PVTZ AUX)
    Blend: AUG-CC-PVTZ-RI
    Molecular point group: c1

    Geometry (in Angstrom), charge = 0, multiplicity = 1:

       Center              X                  Y                   Z               Mass
    ------------   -----------------  -----------------  -----------------  -----------------
         O            2.673892387403    -0.693537850993    -0.012275141807    15.994914619570
         N            0.614930387403    -1.677658850993     0.006525858193    14.003074004430
         C           -0.667171612597     0.738304149007    -0.010265141807    12.000000000000
         C            0.713875387403     0.710125149007     0.003879858193    12.000000000000
         C           -1.431555612597    -0.478849850993     0.002212858193    12.000000000000
         C            1.440561387403    -0.554277850993    -0.004090141807    12.000000000000
         C           -0.750749612597    -1.663860850993     0.007072858193    12.000000000000
         C           -1.418678612597     2.044636149007    -0.004476141807    12.000000000000
         C            1.571934387403     1.946287149007     0.012077858193    12.000000000000
         C           -2.935535612597    -0.473000850993    -0.002032141807    12.000000000000
         H           -1.241019612597    -2.633302850993     0.016267858193     1.007825032230
         H           -2.197757612597     2.050644149007    -0.772916141807     1.007825032230
         H           -0.759341612597     2.892949149007    -0.188463141807     1.007825032230
         H           -1.914946612597     2.205829149007     0.959781858193     1.007825032230
         H            1.121184387403    -2.559129850993     0.005893858193     1.007825032230
         H            1.454661387403     2.523855149007    -0.910995141807     1.007825032230
         H            2.635941687403     1.640061449007     0.098706958193     1.007825032230
         H            1.324699387403     2.602836149007     0.851619858193     1.007825032230
         H           -3.321063612597    -1.494624850993     0.062789858193     1.007825032230
         H           -3.338807612597    -0.023379850993    -0.915681141807     1.007825032230
         H           -3.340368612597     0.090272149007     0.844987858193     1.007825032230

  Basis Set: AUG-CC-PVTZ
    Blend: AUG-CC-PVTZ
  Basis Set: (AUG-CC-PVTZ AUX)
    Blend: AUG-CC-PVTZ-JKFIT
	 Reference Energy          =    -438.8270845725199365 [Eh]
	 Singles Energy            =      -0.0000000000000000 [Eh]
	 Same-Spin Energy          =      -0.4701945696250177 [Eh]
	 Opposite-Spin Energy      =      -1.4993487298954868 [Eh]
	 Correlation Energy        =      -1.9695432995205047 [Eh]
	 Total Energy              =    -440.7966278720404603 [Eh]

	 ================> DF-SCS-MP2 Energies <==================
	-----------------------------------------------------------
	 SCS Same-Spin Scale       =       0.3333333333333333 [-]
	 SCS Opposite-Spin Scale   =       1.2000000000000000 [-]
	 SCS Same-Spin Energy      =      -0.1567315232083392 [Eh]
	 SCS Opposite-Spin Energy  =      -1.7992184758745842 [Eh]
	 SCS Correlation Energy    =      -1.9559499990829234 [Eh]
	 SCS Total Energy          =    -440.7830345716028546 [Eh]
	-----------------------------------------------------------

  Dipole Moment: [D]
     X:    -4.4658      Y:    -0.3002      Z:     0.0413     Total:     4.4761

*** Psi4 exiting successfully. Buy a developer a beer!
