                               Psi4 1.4a3.dev225

  ==> Input File <==

--------------------------------------------------------------------------
#psi4
#
memory 32 gb

molecule  {
0 1
  O        2.7382740    -0.7425350    -0.0126020
  N        0.6793120    -1.7266560     0.0061990
  C       -0.6027900     0.6893070    -0.0105920
  C        0.7782570     0.6611280     0.0035530
  C       -1.3671740    -0.5278470     0.0018860
  C        1.5049430    -0.6032750    -0.0044170
  C       -0.6863680    -1.7128580     0.0067460
  C       -1.3542970     1.9956390    -0.0048030
  C        1.6363160     1.8972900     0.0117510
  C       -2.8711540    -0.5219980    -0.0023590
  H       -1.1766380    -2.6823000     0.0159410
  H       -2.1333760     2.0016470    -0.7732430
  H       -0.6949600     2.8439520    -0.1887900
  H       -1.7600369     2.1274275     0.7835572
  H        1.1855660    -2.6081270     0.0055670
  H        1.5190430     2.4748580    -0.9113220
  H        2.6811620     1.5965790     0.0968200
  H        1.3890810     2.5538390     0.8512930
  H       -3.2566820    -1.5436220     0.0624630
  H       -3.2744260    -0.0723770    -0.9160080
  H       -3.2759870     0.0412750     0.8446610
units angstrom
no_reorient  #important for SAPT in psi4, default
symmetry c1  #important for SAPT in psi4, default
}

set PROPERTIES_ORIGIN ["COM"]
properties('MP2/aug-cc-pvtz', properties = ['dipole'])
--------------------------------------------------------------------------

    Molecular point group: c1
  Charge       = 0
  Multiplicity = 1
  Basis Set: AUG-CC-PVTZ
    Blend: AUG-CC-PVTZ
  Basis Set: (AUG-CC-PVTZ AUX)
    Blend: AUG-CC-PVTZ-JKFIT

    Orbital Energies [Eh]
    ---------------------

    Doubly Occupied:

       1A    -20.499881     2A    -15.615563     3A    -11.343729
       4A    -11.296685     5A    -11.268100     6A    -11.242847
       7A    -11.237816     8A    -11.237666     9A    -11.212533
      10A    -11.212376    11A     -1.361449    12A     -1.262929
      13A     -1.133691    14A     -1.062031    15A     -1.008298
      16A     -0.949013    17A     -0.936799    18A     -0.837804
      19A     -0.810270    20A     -0.726021    21A     -0.705596
      22A     -0.649627    23A     -0.632467    24A     -0.601127
      25A     -0.594920    26A     -0.584823    27A     -0.577013
      28A     -0.569649    29A     -0.560712    30A     -0.552504
      31A     -0.534526    32A     -0.505617    33A     -0.498840
      34A     -0.468462    35A     -0.415347    36A     -0.389116
      37A     -0.295433

  @DF-RHF Final Energy:  -438.79435464316106

   => Energetics <=

    Nuclear Repulsion Energy =            523.8538521637130998
    One-Electron Energy =               -1634.5138477400405463
    Two-Electron Energy =                 671.8656409331664463
    Total Energy =                       -438.7943546431610002
  Basis Set: (AUG-CC-PVTZ AUX)
    Blend: AUG-CC-PVTZ-RI
    Molecular point group: c1

    Geometry (in Angstrom), charge = 0, multiplicity = 1:

       Center              X                  Y                   Z               Mass
    ------------   -----------------  -----------------  -----------------  -----------------
         O            2.673367707543    -0.693362216147    -0.010970493341    15.994914619570
         N            0.614405707543    -1.677483216147     0.007830506659    14.003074004430
         C           -0.667696292457     0.738479783853    -0.008960493341    12.000000000000
         C            0.713350707543     0.710300783853     0.005184506659    12.000000000000
         C           -1.432080292457    -0.478674216147     0.003517506659    12.000000000000
         C            1.440036707543    -0.554102216147    -0.002785493341    12.000000000000
         C           -0.751274292457    -1.663685216147     0.008377506659    12.000000000000
         C           -1.419203292457     2.044811783853    -0.003171493341    12.000000000000
         C            1.571409707543     1.946462783853     0.013382506659    12.000000000000
         C           -2.936060292457    -0.472825216147    -0.000727493341    12.000000000000
         H           -1.241544292457    -2.633127216147     0.017572506659     1.007825032230
         H           -2.198282292457     2.050819783853    -0.771611493341     1.007825032230
         H           -0.759866292457     2.893124783853    -0.187158493341     1.007825032230
         H           -1.824943192457     2.176600283853     0.785188706659     1.007825032230
         H            1.120659707543    -2.558954216147     0.007198506659     1.007825032230
         H            1.454136707543     2.524030783853    -0.909690493341     1.007825032230
         H            2.616255707543     1.645751783853     0.098451506659     1.007825032230
         H            1.324174707543     2.603011783853     0.852924506659     1.007825032230
         H           -3.321588292457    -1.494449216147     0.064094506659     1.007825032230
         H           -3.339332292457    -0.023204216147    -0.914376493341     1.007825032230
         H           -3.340893292457     0.090447783853     0.846292506659     1.007825032230

  Basis Set: AUG-CC-PVTZ
    Blend: AUG-CC-PVTZ
  Basis Set: (AUG-CC-PVTZ AUX)
    Blend: AUG-CC-PVTZ-JKFIT
	 Reference Energy          =    -438.7943546431610571 [Eh]
	 Singles Energy            =      -0.0000000000000000 [Eh]
	 Same-Spin Energy          =      -0.4701723327487046 [Eh]
	 Opposite-Spin Energy      =      -1.4984840141376510 [Eh]
	 Correlation Energy        =      -1.9686563468863556 [Eh]
	 Total Energy              =    -440.7630109900474054 [Eh]

	 ================> DF-SCS-MP2 Energies <==================
	-----------------------------------------------------------
	 SCS Same-Spin Scale       =       0.3333333333333333 [-]
	 SCS Opposite-Spin Scale   =       1.2000000000000000 [-]
	 SCS Same-Spin Energy      =      -0.1567241109162348 [Eh]
	 SCS Opposite-Spin Energy  =      -1.7981808169651812 [Eh]
	 SCS Correlation Energy    =      -1.9549049278814161 [Eh]
	 SCS Total Energy          =    -440.7492595710425007 [Eh]
	-----------------------------------------------------------

  Dipole Moment: [D]
     X:    -4.4998      Y:    -0.2714      Z:     0.0763     Total:     4.5087

*** Psi4 exiting successfully. Buy a developer a beer!
