                               Psi4 1.4a3.dev225

  ==> Input File <==

--------------------------------------------------------------------------
#psi4
#
memory 32 gb

molecule  {
0 1
  O        2.7382740    -0.7425350    -0.0126020
  N        0.6793120    -1.7266560     0.0061990
  C       -0.6027900     0.6893070    -0.0105920
  C        0.7782570     0.6611280     0.0035530
  C       -1.3671740    -0.5278470     0.0018860
  C        1.5049430    -0.6032750    -0.0044170
  C       -0.6863680    -1.7128580     0.0067460
  C       -1.3542970     1.9956390    -0.0048030
  C        1.6363160     1.8972900     0.0117510
  C       -2.8711540    -0.5219980    -0.0023590
  H       -1.1766380    -2.6823000     0.0159410
  H       -2.2045700     2.0021960    -0.8434648
  H       -0.6949600     2.8439520    -0.1887900
  H       -1.8505650     2.1568320     0.9594550
  H        1.1855660    -2.6081270     0.0055670
  H        1.5190430     2.4748580    -0.9113220
  H        2.6811620     1.5965790     0.0968200
  H        1.3890810     2.5538390     0.8512930
  H       -3.2566820    -1.5436220     0.0624630
  H       -3.2744260    -0.0723770    -0.9160080
  H       -3.2759870     0.0412750     0.8446610
units angstrom
no_reorient  #important for SAPT in psi4, default
symmetry c1  #important for SAPT in psi4, default
}

set PROPERTIES_ORIGIN ["COM"]
properties('MP2/aug-cc-pvtz', properties = ['dipole'])
--------------------------------------------------------------------------

    Molecular point group: c1
  Charge       = 0
  Multiplicity = 1
  Basis Set: AUG-CC-PVTZ
    Blend: AUG-CC-PVTZ
  Basis Set: (AUG-CC-PVTZ AUX)
    Blend: AUG-CC-PVTZ-JKFIT

    Orbital Energies [Eh]
    ---------------------

    Doubly Occupied:

       1A    -20.500618     2A    -15.616031     3A    -11.344593
       4A    -11.296919     5A    -11.270224     6A    -11.248552
       7A    -11.243174     8A    -11.239259     9A    -11.236897
      10A    -11.213380    11A     -1.362130    12A     -1.263445
      13A     -1.131298    14A     -1.062276    15A     -0.986653
      16A     -0.948706    17A     -0.933259    18A     -0.828155
      19A     -0.809453    20A     -0.726347    21A     -0.705379
      22A     -0.645609    23A     -0.619294    24A     -0.597721
      25A     -0.586236    26A     -0.580798    27A     -0.569620
      28A     -0.569261    29A     -0.558317    30A     -0.547785
      31A     -0.527853    32A     -0.505761    33A     -0.499845
      34A     -0.468839    35A     -0.416068    36A     -0.387673
      37A     -0.295874

  @DF-RHF Final Energy:  -438.82103996431175

   => Energetics <=

    Nuclear Repulsion Energy =            522.3959947606678043
    One-Electron Energy =               -1631.7474610649949227
    Two-Electron Energy =                 670.5304263400151967
    Total Energy =                       -438.8210399643118080
  Basis Set: (AUG-CC-PVTZ AUX)
    Blend: AUG-CC-PVTZ-RI
    Molecular point group: c1

    Geometry (in Angstrom), charge = 0, multiplicity = 1:

       Center              X                  Y                   Z               Mass
    ------------   -----------------  -----------------  -----------------  -----------------
         O            2.674556668360    -0.693582430563    -0.011747410183    15.994914619570
         N            0.615594668360    -1.677703430563     0.007053589817    14.003074004430
         C           -0.666507331640     0.738259569437    -0.009737410183    12.000000000000
         C            0.714539668360     0.710080569437     0.004407589817    12.000000000000
         C           -1.430891331640    -0.478894430563     0.002740589817    12.000000000000
         C            1.441225668360    -0.554322430563    -0.003562410183    12.000000000000
         C           -0.750085331640    -1.663905430563     0.007600589817    12.000000000000
         C           -1.418014331640     2.044591569437    -0.003948410183    12.000000000000
         C            1.572598668360     1.946242569437     0.012605589817    12.000000000000
         C           -2.934871331640    -0.473045430563    -0.001504410183    12.000000000000
         H           -1.240355331640    -2.633347430563     0.016795589817     1.007825032230
         H           -2.268287331640     2.051148569437    -0.842610210183     1.007825032230
         H           -0.758677331640     2.892904569437    -0.187935410183     1.007825032230
         H           -1.914282331640     2.205784569437     0.960309589817     1.007825032230
         H            1.121848668360    -2.559174430563     0.006421589817     1.007825032230
         H            1.455325668360     2.523810569437    -0.910467410183     1.007825032230
         H            2.617444668360     1.645531569437     0.097674589817     1.007825032230
         H            1.325363668360     2.602791569437     0.852147589817     1.007825032230
         H           -3.320399331640    -1.494669430563     0.063317589817     1.007825032230
         H           -3.338143331640    -0.023424430563    -0.915153410183     1.007825032230
         H           -3.339704331640     0.090227569437     0.845515589817     1.007825032230

  Basis Set: AUG-CC-PVTZ
    Blend: AUG-CC-PVTZ
  Basis Set: (AUG-CC-PVTZ AUX)
    Blend: AUG-CC-PVTZ-JKFIT
	 Reference Energy          =    -438.8210399643117512 [Eh]
	 Singles Energy            =      -0.0000000000000000 [Eh]
	 Same-Spin Energy          =      -0.4702453408036069 [Eh]
	 Opposite-Spin Energy      =      -1.4999822470401525 [Eh]
	 Correlation Energy        =      -1.9702275878437594 [Eh]
	 Total Energy              =    -440.7912675521554888 [Eh]

	 ================> DF-SCS-MP2 Energies <==================
	-----------------------------------------------------------
	 SCS Same-Spin Scale       =       0.3333333333333333 [-]
	 SCS Opposite-Spin Scale   =       1.2000000000000000 [-]
	 SCS Same-Spin Energy      =      -0.1567484469345356 [Eh]
	 SCS Opposite-Spin Energy  =      -1.7999786964481830 [Eh]
	 SCS Correlation Energy    =      -1.9567271433827187 [Eh]
	 SCS Total Energy          =    -440.7777671076944443 [Eh]
	-----------------------------------------------------------

  Dipole Moment: [D]
     X:    -4.4166      Y:    -0.3127      Z:     0.0713     Total:     4.4282

*** Psi4 exiting successfully. Buy a developer a beer!
