                               Psi4 1.4a3.dev225

  ==> Input File <==

--------------------------------------------------------------------------
#psi4
#
memory 32 gb

molecule  {
0 1
  O        2.7382740    -0.7425350    -0.0126020
  N        0.6793120    -1.7266560     0.0061990
  C       -0.6027900     0.6893070    -0.0105920
  C        0.7782570     0.6611280     0.0035530
  C       -1.3671740    -0.5278470     0.0018860
  C        1.5167869    -0.5871598    -0.0045693
  C       -0.6863680    -1.7128580     0.0067460
  C       -1.3542970     1.9956390    -0.0048030
  C        1.6363160     1.8972900     0.0117510
  C       -2.8711540    -0.5219980    -0.0023590
  H       -1.1766380    -2.6823000     0.0159410
  H       -2.1333760     2.0016470    -0.7732430
  H       -0.6949600     2.8439520    -0.1887900
  H       -1.8505650     2.1568320     0.9594550
  H        1.1855660    -2.6081270     0.0055670
  H        1.5190430     2.4748580    -0.9113220
  H        2.6811620     1.5965790     0.0968200
  H        1.3890810     2.5538390     0.8512930
  H       -3.2566820    -1.5436220     0.0624630
  H       -3.2744260    -0.0723770    -0.9160080
  H       -3.2759870     0.0412750     0.8446610
units angstrom
no_reorient  #important for SAPT in psi4, default
symmetry c1  #important for SAPT in psi4, default
}

set PROPERTIES_ORIGIN ["COM"]
properties('MP2/aug-cc-pvtz', properties = ['dipole'])
--------------------------------------------------------------------------

    Molecular point group: c1
  Charge       = 0
  Multiplicity = 1
  Basis Set: AUG-CC-PVTZ
    Blend: AUG-CC-PVTZ
  Basis Set: (AUG-CC-PVTZ AUX)
    Blend: AUG-CC-PVTZ-JKFIT

    Orbital Energies [Eh]
    ---------------------

    Doubly Occupied:

       1A    -20.503087     2A    -15.613335     3A    -11.344870
       4A    -11.296598     5A    -11.270205     6A    -11.241239
       7A    -11.237212     8A    -11.236996     9A    -11.236504
      10A    -11.212659    11A     -1.366341    12A     -1.260833
      13A     -1.130706    14A     -1.061946    15A     -0.991597
      16A     -0.946702    17A     -0.933007    18A     -0.830663
      19A     -0.806853    20A     -0.724171    21A     -0.705590
      22A     -0.645533    23A     -0.619927    24A     -0.601415
      25A     -0.585582    26A     -0.581707    27A     -0.570975
      28A     -0.569130    29A     -0.561265    30A     -0.549614
      31A     -0.533596    32A     -0.507030    33A     -0.499222
      34A     -0.472064    35A     -0.417403    36A     -0.387041
      37A     -0.294929

  @DF-RHF Final Energy:  -438.82721061032123

   => Energetics <=

    Nuclear Repulsion Energy =            522.7795059832827747
    One-Electron Energy =               -1632.5183441954532100
    Two-Electron Energy =                 670.9116276018490908
    Total Energy =                       -438.8272106103212309
  Basis Set: (AUG-CC-PVTZ AUX)
    Blend: AUG-CC-PVTZ-RI
    Molecular point group: c1

    Geometry (in Angstrom), charge = 0, multiplicity = 1:

       Center              X                  Y                   Z               Mass
    ------------   -----------------  -----------------  -----------------  -----------------
         O            2.672996473183    -0.694989079144    -0.012250340180    15.994914619570
         N            0.614034473183    -1.679110079144     0.006550659820    14.003074004430
         C           -0.668067526817     0.736852920856    -0.010240340180    12.000000000000
         C            0.712979473183     0.708673920856     0.003904659820    12.000000000000
         C           -1.432451526817    -0.480301079144     0.002237659820    12.000000000000
         C            1.451509373183    -0.539613879144    -0.004217640180    12.000000000000
         C           -0.751645526817    -1.665312079144     0.007097659820    12.000000000000
         C           -1.419574526817     2.043184920856    -0.004451340180    12.000000000000
         C            1.571038473183     1.944835920856     0.012102659820    12.000000000000
         C           -2.936431526817    -0.474452079144    -0.002007340180    12.000000000000
         H           -1.241915526817    -2.634754079144     0.016292659820     1.007825032230
         H           -2.198653526817     2.049192920856    -0.772891340180     1.007825032230
         H           -0.760237526817     2.891497920856    -0.188438340180     1.007825032230
         H           -1.915842526817     2.204377920856     0.959806659820     1.007825032230
         H            1.120288473183    -2.560581079144     0.005918659820     1.007825032230
         H            1.453765473183     2.522403920856    -0.910970340180     1.007825032230
         H            2.615884473183     1.644124920856     0.097171659820     1.007825032230
         H            1.323803473183     2.601384920856     0.851644659820     1.007825032230
         H           -3.321959526817    -1.496076079144     0.062814659820     1.007825032230
         H           -3.339703526817    -0.024831079144    -0.915656340180     1.007825032230
         H           -3.341264526817     0.088820920856     0.845012659820     1.007825032230

  Basis Set: AUG-CC-PVTZ
    Blend: AUG-CC-PVTZ
  Basis Set: (AUG-CC-PVTZ AUX)
    Blend: AUG-CC-PVTZ-JKFIT
	 Reference Energy          =    -438.8272106103212309 [Eh]
	 Singles Energy            =      -0.0000000000000000 [Eh]
	 Same-Spin Energy          =      -0.4701971864749677 [Eh]
	 Opposite-Spin Energy      =      -1.4991474028185050 [Eh]
	 Correlation Energy        =      -1.9693445892934727 [Eh]
	 Total Energy              =    -440.7965551996147155 [Eh]

	 ================> DF-SCS-MP2 Energies <==================
	-----------------------------------------------------------
	 SCS Same-Spin Scale       =       0.3333333333333333 [-]
	 SCS Opposite-Spin Scale   =       1.2000000000000000 [-]
	 SCS Same-Spin Energy      =      -0.1567323954916559 [Eh]
	 SCS Opposite-Spin Energy  =      -1.7989768833822060 [Eh]
	 SCS Correlation Energy    =      -1.9557092788738619 [Eh]
	 SCS Total Energy          =    -440.7829198891951137 [Eh]
	-----------------------------------------------------------

  Dipole Moment: [D]
     X:    -4.3555      Y:    -0.2603      Z:     0.0406     Total:     4.3634

*** Psi4 exiting successfully. Buy a developer a beer!
