                               Psi4 1.4a3.dev225

  ==> Input File <==

--------------------------------------------------------------------------
#psi4
#
memory 32 gb

molecule  {
0 1
  O        2.7382740    -0.7425350    -0.0126020
  N        0.6793120    -1.7266560     0.0061990
  C       -0.6027900     0.6893070    -0.0105920
  C        0.7782570     0.6611280     0.0035530
  C       -1.3671740    -0.5278470     0.0018860
  C        1.5049430    -0.6032750    -0.0044170
  C       -0.6863680    -1.7128580     0.0067460
  C       -1.3542970     1.9956390    -0.0048030
  C        1.6363160     1.8972900     0.0117510
  C       -2.8711540    -0.5219980    -0.0023590
  H       -1.1766380    -2.6823000     0.0159410
  H       -2.1333760     2.0016470    -0.7732430
  H       -0.6949600     2.8439520    -0.1887900
  H       -1.8505650     2.1568320     0.9594550
  H        1.1855660    -2.6081270     0.0055670
  H        1.5190430     2.4748580    -0.9113220
  H        2.6811620     1.5965790     0.0968200
  H        1.3890810     2.5538390     0.8512930
  H       -3.2743042    -1.5903197     0.0654260
  H       -3.2744260    -0.0723770    -0.9160080
  H       -3.2759870     0.0412750     0.8446610
units angstrom
no_reorient  #important for SAPT in psi4, default
symmetry c1  #important for SAPT in psi4, default
}

set PROPERTIES_ORIGIN ["COM"]
properties('MP2/aug-cc-pvtz', properties = ['dipole'])
--------------------------------------------------------------------------

    Molecular point group: c1
  Charge       = 0
  Multiplicity = 1
  Basis Set: AUG-CC-PVTZ
    Blend: AUG-CC-PVTZ
  Basis Set: (AUG-CC-PVTZ AUX)
    Blend: AUG-CC-PVTZ-JKFIT

    Orbital Energies [Eh]
    ---------------------

    Doubly Occupied:

       1A    -20.500363     2A    -15.615898     3A    -11.344281
       4A    -11.296947     5A    -11.269648     6A    -11.243654
       7A    -11.242981     8A    -11.238700     9A    -11.237329
      10A    -11.212997    11A     -1.361902    12A     -1.263300
      13A     -1.131647    14A     -1.061356    15A     -0.991264
      16A     -0.946089    17A     -0.934117    18A     -0.830311
      19A     -0.809048    20A     -0.726335    21A     -0.704775
      22A     -0.645521    23A     -0.621040    24A     -0.598219
      25A     -0.586621    26A     -0.582733    27A     -0.571690
      28A     -0.563322    29A     -0.561474    30A     -0.550406
      31A     -0.531759    32A     -0.505975    33A     -0.498525
      34A     -0.468742    35A     -0.415844    36A     -0.388183
      37A     -0.295762

  @DF-RHF Final Energy:  -438.82549924920477

   => Energetics <=

    Nuclear Repulsion Energy =            522.5989411453269895
    One-Electron Energy =               -1632.1513665464542555
    Two-Electron Energy =                 670.7269261519224983
    Total Energy =                       -438.8254992492047677
  Basis Set: (AUG-CC-PVTZ AUX)
    Blend: AUG-CC-PVTZ-RI
    Molecular point group: c1

    Geometry (in Angstrom), charge = 0, multiplicity = 1:

       Center              X                  Y                   Z               Mass
    ------------   -----------------  -----------------  -----------------  -----------------
         O            2.674162815132    -0.693235078686    -0.012285455754    15.994914619570
         N            0.615200815132    -1.677356078686     0.006515544246    14.003074004430
         C           -0.666901184868     0.738606921314    -0.010275455754    12.000000000000
         C            0.714145815132     0.710427921314     0.003869544246    12.000000000000
         C           -1.431285184868    -0.478547078686     0.002202544246    12.000000000000
         C            1.440831815132    -0.553975078686    -0.004100455754    12.000000000000
         C           -0.750479184868    -1.663558078686     0.007062544246    12.000000000000
         C           -1.418408184868     2.044938921314    -0.004486455754    12.000000000000
         C            1.572204815132     1.946589921314     0.012067544246    12.000000000000
         C           -2.935265184868    -0.472698078686    -0.002042455754    12.000000000000
         H           -1.240749184868    -2.633000078686     0.016257544246     1.007825032230
         H           -2.197487184868     2.050946921314    -0.772926455754     1.007825032230
         H           -0.759071184868     2.893251921314    -0.188473455754     1.007825032230
         H           -1.914676184868     2.206131921314     0.959771544246     1.007825032230
         H            1.121454815132    -2.558827078686     0.005883544246     1.007825032230
         H            1.454931815132     2.524157921314    -0.911005455754     1.007825032230
         H            2.617050815132     1.645878921314     0.097136544246     1.007825032230
         H            1.324969815132     2.603138921314     0.851609544246     1.007825032230
         H           -3.338415384868    -1.541019778686     0.065742544246     1.007825032230
         H           -3.338537184868    -0.023077078686    -0.915691455754     1.007825032230
         H           -3.340098184868     0.090574921314     0.844977544246     1.007825032230

  Basis Set: AUG-CC-PVTZ
    Blend: AUG-CC-PVTZ
  Basis Set: (AUG-CC-PVTZ AUX)
    Blend: AUG-CC-PVTZ-JKFIT
	 Reference Energy          =    -438.8254992492047677 [Eh]
	 Singles Energy            =      -0.0000000000000000 [Eh]
	 Same-Spin Energy          =      -0.4701793720598231 [Eh]
	 Opposite-Spin Energy      =      -1.4995585682337627 [Eh]
	 Correlation Energy        =      -1.9697379402935857 [Eh]
	 Total Energy              =    -440.7952371894983798 [Eh]

	 ================> DF-SCS-MP2 Energies <==================
	-----------------------------------------------------------
	 SCS Same-Spin Scale       =       0.3333333333333333 [-]
	 SCS Opposite-Spin Scale   =       1.2000000000000000 [-]
	 SCS Same-Spin Energy      =      -0.1567264573532744 [Eh]
	 SCS Opposite-Spin Energy  =      -1.7994702818805151 [Eh]
	 SCS Correlation Energy    =      -1.9561967392337893 [Eh]
	 SCS Total Energy          =    -440.7816959884385710 [Eh]
	-----------------------------------------------------------

  Dipole Moment: [D]
     X:    -4.4388      Y:    -0.2678      Z:     0.0406     Total:     4.4470

*** Psi4 exiting successfully. Buy a developer a beer!
