                               Psi4 1.4a3.dev225

  ==> Input File <==

--------------------------------------------------------------------------
#psi4
#
memory 32 gb

molecule  {
0 1
  O        2.7382740    -0.7425350    -0.0126020
  N        0.6793120    -1.7266560     0.0061990
  C       -0.6027900     0.6893070    -0.0105920
  C        0.7782570     0.6611280     0.0035530
  C       -1.3671740    -0.5278470     0.0018860
  C        1.5049430    -0.6032750    -0.0044170
  C       -0.6863680    -1.7128580     0.0067460
  C       -1.3542970     1.9956390    -0.0048030
  C        1.6363160     1.8972900     0.0117510
  C       -2.8711540    -0.5219980    -0.0023590
  H       -1.1766380    -2.6823000     0.0159410
  H       -2.1333760     2.0016470    -0.7732430
  H       -0.6949600     2.8439520    -0.1887900
  H       -1.8505650     2.1568320     0.9594550
  H        1.1855660    -2.6081270     0.0055670
  H        1.5190430     2.4748580    -0.9113220
  H        2.6332588     1.6103657     0.0929198
  H        1.3890810     2.5538390     0.8512930
  H       -3.2566820    -1.5436220     0.0624630
  H       -3.2744260    -0.0723770    -0.9160080
  H       -3.2759870     0.0412750     0.8446610
units angstrom
no_reorient  #important for SAPT in psi4, default
symmetry c1  #important for SAPT in psi4, default
}

set PROPERTIES_ORIGIN ["COM"]
properties('MP2/aug-cc-pvtz', properties = ['dipole'])
--------------------------------------------------------------------------

    Molecular point group: c1
  Charge       = 0
  Multiplicity = 1
  Basis Set: AUG-CC-PVTZ
    Blend: AUG-CC-PVTZ
  Basis Set: (AUG-CC-PVTZ AUX)
    Blend: AUG-CC-PVTZ-JKFIT

    Orbital Energies [Eh]
    ---------------------

    Doubly Occupied:

       1A    -20.500234     2A    -15.615676     3A    -11.344097
       4A    -11.296701     5A    -11.269074     6A    -11.242901
       7A    -11.238196     8A    -11.237190     9A    -11.236860
      10A    -11.207552    11A     -1.361727    12A     -1.263088
      13A     -1.131521    14A     -1.062540    15A     -0.992290
      16A     -0.948836    17A     -0.936741    18A     -0.830389
      19A     -0.810975    20A     -0.726519    21A     -0.705692
      22A     -0.645461    23A     -0.620628    24A     -0.598700
      25A     -0.586647    26A     -0.582337    27A     -0.572697
      28A     -0.570504    29A     -0.561570    30A     -0.550139
      31A     -0.536374    32A     -0.510847    33A     -0.499302
      34A     -0.468569    35A     -0.415860    36A     -0.387756
      37A     -0.295524

  @DF-RHF Final Energy:  -438.82684346639411

   => Energetics <=

    Nuclear Repulsion Energy =            523.0349417049710610
    One-Electron Energy =               -1633.0001479973261667
    Two-Electron Energy =                 671.1383628259610532
    Total Energy =                       -438.8268434663940525
  Basis Set: (AUG-CC-PVTZ AUX)
    Blend: AUG-CC-PVTZ-RI
    Molecular point group: c1

    Geometry (in Angstrom), charge = 0, multiplicity = 1:

       Center              X                  Y                   Z               Mass
    ------------   -----------------  -----------------  -----------------  -----------------
         O            2.674385437287    -0.693679752491    -0.012234998359    15.994914619570
         N            0.615423437287    -1.677800752491     0.006566001641    14.003074004430
         C           -0.666678562713     0.738162247509    -0.010224998359    12.000000000000
         C            0.714368437287     0.709983247509     0.003920001641    12.000000000000
         C           -1.431062562713    -0.478991752491     0.002253001641    12.000000000000
         C            1.441054437287    -0.554419752491    -0.004049998359    12.000000000000
         C           -0.750256562713    -1.664002752491     0.007113001641    12.000000000000
         C           -1.418185562713     2.044494247509    -0.004435998359    12.000000000000
         C            1.572427437287     1.946145247509     0.012118001641    12.000000000000
         C           -2.935042562713    -0.473142752491    -0.001991998359    12.000000000000
         H           -1.240526562713    -2.633444752491     0.016308001641     1.007825032230
         H           -2.197264562713     2.050502247509    -0.772875998359     1.007825032230
         H           -0.758848562713     2.892807247509    -0.188422998359     1.007825032230
         H           -1.914453562713     2.205687247509     0.959822001641     1.007825032230
         H            1.121677437287    -2.559271752491     0.005934001641     1.007825032230
         H            1.455154437287     2.523713247509    -0.910954998359     1.007825032230
         H            2.569370237287     1.659220947509     0.093286801641     1.007825032230
         H            1.325192437287     2.602694247509     0.851660001641     1.007825032230
         H           -3.320570562713    -1.494766752491     0.062830001641     1.007825032230
         H           -3.338314562713    -0.023521752491    -0.915640998359     1.007825032230
         H           -3.339875562713     0.090130247509     0.845028001641     1.007825032230

  Basis Set: AUG-CC-PVTZ
    Blend: AUG-CC-PVTZ
  Basis Set: (AUG-CC-PVTZ AUX)
    Blend: AUG-CC-PVTZ-JKFIT
	 Reference Energy          =    -438.8268434663941093 [Eh]
	 Singles Energy            =      -0.0000000000000000 [Eh]
	 Same-Spin Energy          =      -0.4700496465817848 [Eh]
	 Opposite-Spin Energy      =      -1.4987534394076059 [Eh]
	 Correlation Energy        =      -1.9688030859893906 [Eh]
	 Total Energy              =    -440.7956465523835163 [Eh]

	 ================> DF-SCS-MP2 Energies <==================
	-----------------------------------------------------------
	 SCS Same-Spin Scale       =       0.3333333333333333 [-]
	 SCS Opposite-Spin Scale   =       1.2000000000000000 [-]
	 SCS Same-Spin Energy      =      -0.1566832155272616 [Eh]
	 SCS Opposite-Spin Energy  =      -1.7985041272891269 [Eh]
	 SCS Correlation Energy    =      -1.9551873428163884 [Eh]
	 SCS Total Energy          =    -440.7820308092104824 [Eh]
	-----------------------------------------------------------

  Dipole Moment: [D]
     X:    -4.4561      Y:    -0.2762      Z:     0.0427     Total:     4.4649

*** Psi4 exiting successfully. Buy a developer a beer!
