                               Psi4 1.4a3.dev225

  ==> Input File <==

--------------------------------------------------------------------------
#psi4
#
memory 32 gb

molecule  {
0 1
  O        2.7382740    -0.7425350    -0.0126020
  N        0.6793120    -1.7266560     0.0061990
  C       -0.6027900     0.6893070    -0.0105920
  C        0.7782570     0.6611280     0.0035530
  C       -1.3671740    -0.5278470     0.0018860
  C        1.5049430    -0.6032750    -0.0044170
  C       -0.6863680    -1.7128580     0.0067460
  C       -1.3443240     1.9783031    -0.0048798
  C        1.6363160     1.8972900     0.0117510
  C       -2.8711540    -0.5219980    -0.0023590
  H       -1.1766380    -2.6823000     0.0159410
  H       -2.1333760     2.0016470    -0.7732430
  H       -0.6949600     2.8439520    -0.1887900
  H       -1.8505650     2.1568320     0.9594550
  H        1.1855660    -2.6081270     0.0055670
  H        1.5190430     2.4748580    -0.9113220
  H        2.6811620     1.5965790     0.0968200
  H        1.3890810     2.5538390     0.8512930
  H       -3.2566820    -1.5436220     0.0624630
  H       -3.2744260    -0.0723770    -0.9160080
  H       -3.2759870     0.0412750     0.8446610
units angstrom
no_reorient  #important for SAPT in psi4, default
symmetry c1  #important for SAPT in psi4, default
}

set PROPERTIES_ORIGIN ["COM"]
properties('MP2/aug-cc-pvtz', properties = ['dipole'])
--------------------------------------------------------------------------

    Molecular point group: c1
  Charge       = 0
  Multiplicity = 1
  Basis Set: AUG-CC-PVTZ
    Blend: AUG-CC-PVTZ
  Basis Set: (AUG-CC-PVTZ AUX)
    Blend: AUG-CC-PVTZ-JKFIT

    Orbital Energies [Eh]
    ---------------------

    Doubly Occupied:

       1A    -20.500247     2A    -15.615754     3A    -11.344141
       4A    -11.296809     5A    -11.268394     6A    -11.242977
       7A    -11.238530     8A    -11.237672     9A    -11.237233
      10A    -11.212811    11A     -1.361782    12A     -1.263205
      13A     -1.133306    14A     -1.062223    15A     -0.992342
      16A     -0.948832    17A     -0.933731    18A     -0.829668
      19A     -0.809873    20A     -0.726344    21A     -0.705852
      22A     -0.647107    23A     -0.620597    24A     -0.598074
      25A     -0.587954    26A     -0.581756    27A     -0.571266
      28A     -0.569379    29A     -0.559699    30A     -0.549503
      31A     -0.533086    32A     -0.506635    33A     -0.499326
      34A     -0.468569    35A     -0.415949    36A     -0.387260
      37A     -0.295634

  @DF-RHF Final Energy:  -438.82697005557776

   => Energetics <=

    Nuclear Repulsion Energy =            523.1896920002454863
    One-Electron Energy =               -1633.3262816159083286
    Two-Electron Energy =                 671.3096195600850251
    Total Energy =                       -438.8269700555778172
  Basis Set: (AUG-CC-PVTZ AUX)
    Blend: AUG-CC-PVTZ-RI
    Molecular point group: c1

    Geometry (in Angstrom), charge = 0, multiplicity = 1:

       Center              X                  Y                   Z               Mass
    ------------   -----------------  -----------------  -----------------  -----------------
         O            2.673160247143    -0.692060852563    -0.012256949263    15.994914619570
         N            0.614198247143    -1.676181852563     0.006544050737    14.003074004430
         C           -0.667903752857     0.739781147437    -0.010246949263    12.000000000000
         C            0.713143247143     0.711602147437     0.003898050737    12.000000000000
         C           -1.432287752857    -0.477372852563     0.002231050737    12.000000000000
         C            1.439829247143    -0.552800852563    -0.004071949263    12.000000000000
         C           -0.751481752857    -1.662383852563     0.007091050737    12.000000000000
         C           -1.409437752857     2.028777247437    -0.004534749263    12.000000000000
         C            1.571202247143     1.947764147437     0.012096050737    12.000000000000
         C           -2.936267752857    -0.471523852563    -0.002013949263    12.000000000000
         H           -1.241751752857    -2.631825852563     0.016286050737     1.007825032230
         H           -2.198489752857     2.052121147437    -0.772897949263     1.007825032230
         H           -0.760073752857     2.894426147437    -0.188444949263     1.007825032230
         H           -1.915678752857     2.207306147437     0.959800050737     1.007825032230
         H            1.120452247143    -2.557652852563     0.005912050737     1.007825032230
         H            1.453929247143     2.525332147437    -0.910976949263     1.007825032230
         H            2.616048247143     1.647053147437     0.097165050737     1.007825032230
         H            1.323967247143     2.604313147437     0.851638050737     1.007825032230
         H           -3.321795752857    -1.493147852563     0.062808050737     1.007825032230
         H           -3.339539752857    -0.021902852563    -0.915662949263     1.007825032230
         H           -3.341100752857     0.091749147437     0.845006050737     1.007825032230

  Basis Set: AUG-CC-PVTZ
    Blend: AUG-CC-PVTZ
  Basis Set: (AUG-CC-PVTZ AUX)
    Blend: AUG-CC-PVTZ-JKFIT
	 Reference Energy          =    -438.8269700555777604 [Eh]
	 Singles Energy            =      -0.0000000000000000 [Eh]
	 Same-Spin Energy          =      -0.4703700440383473 [Eh]
	 Opposite-Spin Energy      =      -1.4993863203942184 [Eh]
	 Correlation Energy        =      -1.9697563644325657 [Eh]
	 Total Energy              =    -440.7967264200103159 [Eh]

	 ================> DF-SCS-MP2 Energies <==================
	-----------------------------------------------------------
	 SCS Same-Spin Scale       =       0.3333333333333333 [-]
	 SCS Opposite-Spin Scale   =       1.2000000000000000 [-]
	 SCS Same-Spin Energy      =      -0.1567900146794491 [Eh]
	 SCS Opposite-Spin Energy  =      -1.7992635844730620 [Eh]
	 SCS Correlation Energy    =      -1.9560535991525110 [Eh]
	 SCS Total Energy          =    -440.7830236547302434 [Eh]
	-----------------------------------------------------------

  Dipole Moment: [D]
     X:    -4.4682      Y:    -0.2856      Z:     0.0420     Total:     4.4775

*** Psi4 exiting successfully. Buy a developer a beer!
