                               Psi4 1.4a3.dev225

  ==> Input File <==

--------------------------------------------------------------------------
#psi4
#
memory 32 gb

molecule  {
0 1
  O        2.7382740    -0.7425350    -0.0126020
  N        0.6793120    -1.7266560     0.0061990
  C       -0.6027900     0.6893070    -0.0105920
  C        0.7782570     0.6611280     0.0035530
  C       -1.3671740    -0.5278470     0.0018860
  C        1.5049430    -0.6032750    -0.0044170
  C       -0.6863680    -1.7128580     0.0067460
  C       -1.3542970     1.9956390    -0.0048030
  C        1.6363160     1.8972900     0.0117510
  C       -2.8711540    -0.5219980    -0.0023590
  H       -1.1766380    -2.6823000     0.0159410
  H       -2.1333760     2.0016470    -0.7732430
  H       -0.6949600     2.8439520    -0.1887900
  H       -1.8505650     2.1568320     0.9594550
  H        1.1855660    -2.6081270     0.0055670
  H        1.5190430     2.4748580    -0.9113220
  H        2.6811620     1.5965790     0.0968200
  H        1.3890810     2.5538390     0.8512930
  H       -3.2566820    -1.5436220     0.0624630
  H       -3.2744260    -0.0723770    -0.9160080
  H       -3.2833825     0.0515649     0.8601344
units angstrom
no_reorient  #important for SAPT in psi4, default
symmetry c1  #important for SAPT in psi4, default
}

set PROPERTIES_ORIGIN ["COM"]
properties('MP2/aug-cc-pvtz', properties = ['dipole'])
--------------------------------------------------------------------------

    Molecular point group: c1
  Charge       = 0
  Multiplicity = 1
  Basis Set: AUG-CC-PVTZ
    Blend: AUG-CC-PVTZ
  Basis Set: (AUG-CC-PVTZ AUX)
    Blend: AUG-CC-PVTZ-JKFIT

    Orbital Energies [Eh]
    ---------------------

    Doubly Occupied:

       1A    -20.500309     2A    -15.615863     3A    -11.344217
       4A    -11.296956     5A    -11.269320     6A    -11.243212
       7A    -11.239664     8A    -11.238549     9A    -11.236950
      10A    -11.212857    11A     -1.361846    12A     -1.263262
      13A     -1.131501    14A     -1.061832    15A     -0.991168
      16A     -0.947502    17A     -0.934067    18A     -0.830355
      19A     -0.809479    20A     -0.726080    21A     -0.705537
      22A     -0.645502    23A     -0.620346    24A     -0.598260
      25A     -0.586235    26A     -0.581867    27A     -0.570146
      28A     -0.569134    29A     -0.561483    30A     -0.549892
      31A     -0.533145    32A     -0.505847    33A     -0.499548
      34A     -0.468563    35A     -0.415770    36A     -0.387874
      37A     -0.295663

  @DF-RHF Final Energy:  -438.82717427763373

   => Energetics <=

    Nuclear Repulsion Energy =            522.7322866131630690
    One-Electron Energy =               -1632.4193193129644897
    Two-Electron Energy =                 670.8598584221676902
    Total Energy =                       -438.8271742776337305
  Basis Set: (AUG-CC-PVTZ AUX)
    Blend: AUG-CC-PVTZ-RI
    Molecular point group: c1

    Geometry (in Angstrom), charge = 0, multiplicity = 1:

       Center              X                  Y                   Z               Mass
    ------------   -----------------  -----------------  -----------------  -----------------
         O            2.674087629702    -0.693654044451    -0.012377430663    15.994914619570
         N            0.615125629702    -1.677775044451     0.006423569337    14.003074004430
         C           -0.666976370298     0.738187955549    -0.010367430663    12.000000000000
         C            0.714070629702     0.710008955549     0.003777569337    12.000000000000
         C           -1.431360370298    -0.478966044451     0.002110569337    12.000000000000
         C            1.440756629702    -0.554394044451    -0.004192430663    12.000000000000
         C           -0.750554370298    -1.663977044451     0.006970569337    12.000000000000
         C           -1.418483370298     2.044519955549    -0.004578430663    12.000000000000
         C            1.572129629702     1.946170955549     0.011975569337    12.000000000000
         C           -2.935340370298    -0.473117044451    -0.002134430663    12.000000000000
         H           -1.240824370298    -2.633419044451     0.016165569337     1.007825032230
         H           -2.197562370298     2.050527955549    -0.773018430663     1.007825032230
         H           -0.759146370298     2.892832955549    -0.188565430663     1.007825032230
         H           -1.914751370298     2.205712955549     0.959679569337     1.007825032230
         H            1.121379629702    -2.559246044451     0.005791569337     1.007825032230
         H            1.454856629702     2.523738955549    -0.911097430663     1.007825032230
         H            2.616975629702     1.645459955549     0.097044569337     1.007825032230
         H            1.324894629702     2.602719955549     0.851517569337     1.007825032230
         H           -3.320868370298    -1.494741044451     0.062687569337     1.007825032230
         H           -3.338612370298    -0.023496044451    -0.915783430663     1.007825032230
         H           -3.347568870298     0.100445855549     0.860358969337     1.007825032230

  Basis Set: AUG-CC-PVTZ
    Blend: AUG-CC-PVTZ
  Basis Set: (AUG-CC-PVTZ AUX)
    Blend: AUG-CC-PVTZ-JKFIT
	 Reference Energy          =    -438.8271742776337305 [Eh]
	 Singles Energy            =      -0.0000000000000000 [Eh]
	 Same-Spin Energy          =      -0.4701513616382842 [Eh]
	 Opposite-Spin Energy      =      -1.4992883861400352 [Eh]
	 Correlation Energy        =      -1.9694397477783194 [Eh]
	 Total Energy              =    -440.7966140254120546 [Eh]

	 ================> DF-SCS-MP2 Energies <==================
	-----------------------------------------------------------
	 SCS Same-Spin Scale       =       0.3333333333333333 [-]
	 SCS Opposite-Spin Scale   =       1.2000000000000000 [-]
	 SCS Same-Spin Energy      =      -0.1567171205460947 [Eh]
	 SCS Opposite-Spin Energy  =      -1.7991460633680423 [Eh]
	 SCS Correlation Energy    =      -1.9558631839141369 [Eh]
	 SCS Total Energy          =    -440.7830374615478490 [Eh]
	-----------------------------------------------------------

  Dipole Moment: [D]
     X:    -4.4523      Y:    -0.2976      Z:     0.0354     Total:     4.4624

*** Psi4 exiting successfully. Buy a developer a beer!
