                               Psi4 1.4a3.dev225

  ==> Input File <==

--------------------------------------------------------------------------
#psi4
#
memory 32 gb

molecule  {
0 1
  O        2.7382740    -0.7425350    -0.0126020
  N        0.6793120    -1.7266560     0.0061990
  C       -0.6027900     0.6893070    -0.0105920
  C        0.7782570     0.6611280     0.0035530
  C       -1.3671740    -0.5278470     0.0018860
  C        1.5049430    -0.6032750    -0.0044170
  C       -0.6863680    -1.7128580     0.0067460
  C       -1.3542970     1.9956390    -0.0048030
  C        1.6363160     1.8972900     0.0117510
  C       -2.8711540    -0.5219980    -0.0023590
  H       -1.1766380    -2.6823000     0.0159410
  H       -2.1333760     2.0016470    -0.7732430
  H       -0.6949600     2.8439520    -0.1887900
  H       -1.8505650     2.1568320     0.9594550
  H        1.1855660    -2.6081270     0.0055670
  H        1.5190430     2.4748580    -0.9113220
  H        2.6811620     1.5965790     0.0968200
  H        1.3890810     2.5538390     0.8512930
  H       -3.2566820    -1.5436220     0.0624630
  H       -3.2376054    -0.1134294    -0.8325877
  H       -3.2759870     0.0412750     0.8446610
units angstrom
no_reorient  #important for SAPT in psi4, default
symmetry c1  #important for SAPT in psi4, default
}

set PROPERTIES_ORIGIN ["COM"]
properties('MP2/aug-cc-pvtz', properties = ['dipole'])
--------------------------------------------------------------------------

    Molecular point group: c1
  Charge       = 0
  Multiplicity = 1
  Basis Set: AUG-CC-PVTZ
    Blend: AUG-CC-PVTZ
  Basis Set: (AUG-CC-PVTZ AUX)
    Blend: AUG-CC-PVTZ-JKFIT

    Orbital Energies [Eh]
    ---------------------

    Doubly Occupied:

       1A    -20.499881     2A    -15.615287     3A    -11.343810
       4A    -11.296083     5A    -11.269076     6A    -11.242179
       7A    -11.238284     8A    -11.237306     9A    -11.224896
      10A    -11.212718    11A     -1.361420    12A     -1.262725
      13A     -1.131853    14A     -1.063565    15A     -0.991405
      16A     -0.956973    17A     -0.933918    18A     -0.830153
      19A     -0.811372    20A     -0.726977    21A     -0.705448
      22A     -0.645230    23A     -0.624472    24A     -0.597893
      25A     -0.592134    26A     -0.584579    27A     -0.574924
      28A     -0.569318    29A     -0.561435    30A     -0.551763
      31A     -0.535334    32A     -0.505722    33A     -0.499176
      34A     -0.468786    35A     -0.415393    36A     -0.387992
      37A     -0.295513

  @DF-RHF Final Energy:  -438.82173970066168

   => Energetics <=

    Nuclear Repulsion Energy =            523.2835176444551735
    One-Electron Energy =               -1633.4805277534467223
    Two-Electron Energy =                 671.3752704083298113
    Total Energy =                       -438.8217397006616238
  Basis Set: (AUG-CC-PVTZ AUX)
    Blend: AUG-CC-PVTZ-RI
    Molecular point group: c1

    Geometry (in Angstrom), charge = 0, multiplicity = 1:

       Center              X                  Y                   Z               Mass
    ------------   -----------------  -----------------  -----------------  -----------------
         O            2.673762558420    -0.693276582231    -0.012876967842    15.994914619570
         N            0.614800558420    -1.677397582231     0.005924032158    14.003074004430
         C           -0.667301441580     0.738565417769    -0.010866967842    12.000000000000
         C            0.713745558420     0.710386417769     0.003278032158    12.000000000000
         C           -1.431685441580    -0.478588582231     0.001611032158    12.000000000000
         C            1.440431558420    -0.554016582231    -0.004691967842    12.000000000000
         C           -0.750879441580    -1.663599582231     0.006471032158    12.000000000000
         C           -1.418808441580     2.044897417769    -0.005077967842    12.000000000000
         C            1.571804558420     1.946548417769     0.011476032158    12.000000000000
         C           -2.935665441580    -0.472739582231    -0.002633967842    12.000000000000
         H           -1.241149441580    -2.633041582231     0.015666032158     1.007825032230
         H           -2.197887441580     2.050905417769    -0.773517967842     1.007825032230
         H           -0.759471441580     2.893210417769    -0.189064967842     1.007825032230
         H           -1.915076441580     2.206090417769     0.959180032158     1.007825032230
         H            1.121054558420    -2.558868582231     0.005292032158     1.007825032230
         H            1.454531558420     2.524116417769    -0.911596967842     1.007825032230
         H            2.616650558420     1.645837417769     0.096545032158     1.007825032230
         H            1.324569558420     2.603097417769     0.851018032158     1.007825032230
         H           -3.321193441580    -1.494363582231     0.062188032158     1.007825032230
         H           -3.302116841580    -0.064170982231    -0.832862667842     1.007825032230
         H           -3.340498441580     0.090533417769     0.844386032158     1.007825032230

  Basis Set: AUG-CC-PVTZ
    Blend: AUG-CC-PVTZ
  Basis Set: (AUG-CC-PVTZ AUX)
    Blend: AUG-CC-PVTZ-JKFIT
	 Reference Energy          =    -438.8217397006616807 [Eh]
	 Singles Energy            =      -0.0000000000000000 [Eh]
	 Same-Spin Energy          =      -0.4701550243655381 [Eh]
	 Opposite-Spin Energy      =      -1.4986851950160234 [Eh]
	 Correlation Energy        =      -1.9688402193815615 [Eh]
	 Total Energy              =    -440.7905799200432284 [Eh]

	 ================> DF-SCS-MP2 Energies <==================
	-----------------------------------------------------------
	 SCS Same-Spin Scale       =       0.3333333333333333 [-]
	 SCS Opposite-Spin Scale   =       1.2000000000000000 [-]
	 SCS Same-Spin Energy      =      -0.1567183414551794 [Eh]
	 SCS Opposite-Spin Energy  =      -1.7984222340192280 [Eh]
	 SCS Correlation Energy    =      -1.9551405754744073 [Eh]
	 SCS Total Energy          =    -440.7768802761360689 [Eh]
	-----------------------------------------------------------

  Dipole Moment: [D]
     X:    -4.5044      Y:    -0.2754      Z:     0.0154     Total:     4.5128

*** Psi4 exiting successfully. Buy a developer a beer!
