                               Psi4 1.4a3.dev225

  ==> Input File <==

--------------------------------------------------------------------------
#psi4
#
memory 32 gb

molecule  {
0 1
  O        2.7382740    -0.7425350    -0.0126020
  N        0.6793120    -1.7266560     0.0061990
  C       -0.6027900     0.6893070    -0.0105920
  C        0.7782570     0.6611280     0.0035530
  C       -1.3671740    -0.5278470     0.0018860
  C        1.5049430    -0.6032750    -0.0044170
  C       -0.6863680    -1.7128580     0.0067460
  C       -1.3642700     2.0129749    -0.0047262
  C        1.6363160     1.8972900     0.0117510
  C       -2.8711540    -0.5219980    -0.0023590
  H       -1.1766380    -2.6823000     0.0159410
  H       -2.1333760     2.0016470    -0.7732430
  H       -0.6949600     2.8439520    -0.1887900
  H       -1.8505650     2.1568320     0.9594550
  H        1.1855660    -2.6081270     0.0055670
  H        1.5190430     2.4748580    -0.9113220
  H        2.6811620     1.5965790     0.0968200
  H        1.3890810     2.5538390     0.8512930
  H       -3.2566820    -1.5436220     0.0624630
  H       -3.2744260    -0.0723770    -0.9160080
  H       -3.2759870     0.0412750     0.8446610
units angstrom
no_reorient  #important for SAPT in psi4, default
symmetry c1  #important for SAPT in psi4, default
}

set PROPERTIES_ORIGIN ["COM"]
properties('MP2/aug-cc-pvtz', properties = ['dipole'])
--------------------------------------------------------------------------

    Molecular point group: c1
  Charge       = 0
  Multiplicity = 1
  Basis Set: AUG-CC-PVTZ
    Blend: AUG-CC-PVTZ
  Basis Set: (AUG-CC-PVTZ AUX)
    Blend: AUG-CC-PVTZ-JKFIT

    Orbital Energies [Eh]
    ---------------------

    Doubly Occupied:

       1A    -20.500198     2A    -15.615745     3A    -11.344126
       4A    -11.296756     5A    -11.270073     6A    -11.243031
       7A    -11.238463     8A    -11.237301     9A    -11.236450
      10A    -11.212844    11A     -1.361737    12A     -1.263106
      13A     -1.129884    14A     -1.061822    15A     -0.990132
      16A     -0.948830    17A     -0.934343    18A     -0.830889
      19A     -0.809593    20A     -0.726064    21A     -0.705144
      22A     -0.643972    23A     -0.620897    24A     -0.598381
      25A     -0.584953    26A     -0.583220    27A     -0.572409
      28A     -0.568527    29A     -0.563295    30A     -0.550828
      31A     -0.534321    32A     -0.505092    33A     -0.499112
      34A     -0.468621    35A     -0.415404    36A     -0.388445
      37A     -0.295595

  @DF-RHF Final Energy:  -438.82762516811522

   => Energetics <=

    Nuclear Repulsion Energy =            522.4506401755467095
    One-Electron Energy =               -1631.8573226758799137
    Two-Electron Energy =                 670.5790573322180990
    Total Energy =                       -438.8276251681152189
  Basis Set: (AUG-CC-PVTZ AUX)
    Blend: AUG-CC-PVTZ-RI
    Molecular point group: c1

    Geometry (in Angstrom), charge = 0, multiplicity = 1:

       Center              X                  Y                   Z               Mass
    ------------   -----------------  -----------------  -----------------  -----------------
         O            2.674906270664    -0.695095936203    -0.012270395028    15.994914619570
         N            0.615944270664    -1.679216936203     0.006530604972    14.003074004430
         C           -0.666157729336     0.736746063797    -0.010260395028    12.000000000000
         C            0.714889270664     0.708567063797     0.003884604972    12.000000000000
         C           -1.430541729336    -0.480407936203     0.002217604972    12.000000000000
         C            1.441575270664    -0.555835936203    -0.004085395028    12.000000000000
         C           -0.749735729336    -1.665418936203     0.007077604972    12.000000000000
         C           -1.427637729336     2.060413963797    -0.004394595028    12.000000000000
         C            1.572948270664     1.944729063797     0.012082604972    12.000000000000
         C           -2.934521729336    -0.474558936203    -0.002027395028    12.000000000000
         H           -1.240005729336    -2.634860936203     0.016272604972     1.007825032230
         H           -2.196743729336     2.049086063797    -0.772911395028     1.007825032230
         H           -0.758327729336     2.891391063797    -0.188458395028     1.007825032230
         H           -1.913932729336     2.204271063797     0.959786604972     1.007825032230
         H            1.122198270664    -2.560687936203     0.005898604972     1.007825032230
         H            1.455675270664     2.522297063797    -0.910990395028     1.007825032230
         H            2.617794270664     1.644018063797     0.097151604972     1.007825032230
         H            1.325713270664     2.601278063797     0.851624604972     1.007825032230
         H           -3.320049729336    -1.496182936203     0.062794604972     1.007825032230
         H           -3.337793729336    -0.024937936203    -0.915676395028     1.007825032230
         H           -3.339354729336     0.088714063797     0.844992604972     1.007825032230

  Basis Set: AUG-CC-PVTZ
    Blend: AUG-CC-PVTZ
  Basis Set: (AUG-CC-PVTZ AUX)
    Blend: AUG-CC-PVTZ-JKFIT
	 Reference Energy          =    -438.8276251681152189 [Eh]
	 Singles Energy            =      -0.0000000000000000 [Eh]
	 Same-Spin Energy          =      -0.4699652001613073 [Eh]
	 Opposite-Spin Energy      =      -1.4990003050755130 [Eh]
	 Correlation Energy        =      -1.9689655052368202 [Eh]
	 Total Energy              =    -440.7965906733520569 [Eh]

	 ================> DF-SCS-MP2 Energies <==================
	-----------------------------------------------------------
	 SCS Same-Spin Scale       =       0.3333333333333333 [-]
	 SCS Opposite-Spin Scale   =       1.2000000000000000 [-]
	 SCS Same-Spin Energy      =      -0.1566550667204358 [Eh]
	 SCS Opposite-Spin Energy  =      -1.7988003660906156 [Eh]
	 SCS Correlation Energy    =      -1.9554554328110514 [Eh]
	 SCS Total Energy          =    -440.7830806009262687 [Eh]
	-----------------------------------------------------------

  Dipole Moment: [D]
     X:    -4.4568      Y:    -0.3008      Z:     0.0415     Total:     4.4672

*** Psi4 exiting successfully. Buy a developer a beer!
