                               Psi4 1.4a3.dev225

  ==> Input File <==

--------------------------------------------------------------------------
#psi4
#
memory 32 gb

molecule  {
0 1
  O        2.7382740    -0.7425350    -0.0126020
  N        0.6793120    -1.7266560     0.0061990
  C       -0.6027900     0.6893070    -0.0105920
  C        0.7782570     0.6611280     0.0035530
  C       -1.3671740    -0.5278470     0.0018860
  C        1.5049430    -0.6032750    -0.0044170
  C       -0.6863680    -1.7128580     0.0067460
  C       -1.3542970     1.9956390    -0.0048030
  C        1.6363160     1.8972900     0.0117510
  C       -2.8711540    -0.5219980    -0.0023590
  H       -1.1766380    -2.6823000     0.0159410
  H       -2.1333760     2.0016470    -0.7732430
  H       -0.6828626     2.8595166    -0.1921657
  H       -1.8505650     2.1568320     0.9594550
  H        1.1855660    -2.6081270     0.0055670
  H        1.5190430     2.4748580    -0.9113220
  H        2.6811620     1.5965790     0.0968200
  H        1.3890810     2.5538390     0.8512930
  H       -3.2566820    -1.5436220     0.0624630
  H       -3.2744260    -0.0723770    -0.9160080
  H       -3.2759870     0.0412750     0.8446610
units angstrom
no_reorient  #important for SAPT in psi4, default
symmetry c1  #important for SAPT in psi4, default
}

set PROPERTIES_ORIGIN ["COM"]
properties('MP2/aug-cc-pvtz', properties = ['dipole'])
--------------------------------------------------------------------------

    Molecular point group: c1
  Charge       = 0
  Multiplicity = 1
  Basis Set: AUG-CC-PVTZ
    Blend: AUG-CC-PVTZ
  Basis Set: (AUG-CC-PVTZ AUX)
    Blend: AUG-CC-PVTZ-JKFIT

    Orbital Energies [Eh]
    ---------------------

    Doubly Occupied:

       1A    -20.500259     2A    -15.615811     3A    -11.344176
       4A    -11.296870     5A    -11.269414     6A    -11.243133
       7A    -11.239261     8A    -11.238554     9A    -11.237368
      10A    -11.212773    11A     -1.361800    12A     -1.263213
      13A     -1.131453    14A     -1.062030    15A     -0.990174
      16A     -0.948922    17A     -0.933708    18A     -0.829691
      19A     -0.809774    20A     -0.726179    21A     -0.705360
      22A     -0.644988    23A     -0.620785    24A     -0.597992
      25A     -0.586400    26A     -0.582475    27A     -0.571473
      28A     -0.569353    29A     -0.559699    30A     -0.550216
      31A     -0.532950    32A     -0.505803    33A     -0.498844
      34A     -0.468644    35A     -0.415737    36A     -0.387965
      37A     -0.295665

  @DF-RHF Final Energy:  -438.82708360122234

   => Energetics <=

    Nuclear Repulsion Energy =            522.7343037795911869
    One-Electron Energy =               -1632.4249476087195490
    Two-Electron Energy =                 670.8635602279061914
    Total Energy =                       -438.8270836012222844
  Basis Set: (AUG-CC-PVTZ AUX)
    Blend: AUG-CC-PVTZ-RI
    Molecular point group: c1

    Geometry (in Angstrom), charge = 0, multiplicity = 1:

       Center              X                  Y                   Z               Mass
    ------------   -----------------  -----------------  -----------------  -----------------
         O            2.673944320320    -0.693692823391    -0.012238854418    15.994914619570
         N            0.614982320320    -1.677813823391     0.006562145582    14.003074004430
         C           -0.667119679680     0.738149176609    -0.010228854418    12.000000000000
         C            0.713927320320     0.709970176609     0.003916145582    12.000000000000
         C           -1.431503679680    -0.479004823391     0.002249145582    12.000000000000
         C            1.440613320320    -0.554432823391    -0.004053854418    12.000000000000
         C           -0.750697679680    -1.664015823391     0.007109145582    12.000000000000
         C           -1.418626679680     2.044481176609    -0.004439854418    12.000000000000
         C            1.571986320320     1.946132176609     0.012114145582    12.000000000000
         C           -2.935483679680    -0.473155823391    -0.001995854418    12.000000000000
         H           -1.240967679680    -2.633457823391     0.016304145582     1.007825032230
         H           -2.197705679680     2.050489176609    -0.772879854418     1.007825032230
         H           -0.747192279680     2.908358776609    -0.191802554418     1.007825032230
         H           -1.914894679680     2.205674176609     0.959818145582     1.007825032230
         H            1.121236320320    -2.559284823391     0.005930145582     1.007825032230
         H            1.454713320320     2.523700176609    -0.910958854418     1.007825032230
         H            2.616832320320     1.645421176609     0.097183145582     1.007825032230
         H            1.324751320320     2.602681176609     0.851656145582     1.007825032230
         H           -3.321011679680    -1.494779823391     0.062826145582     1.007825032230
         H           -3.338755679680    -0.023534823391    -0.915644854418     1.007825032230
         H           -3.340316679680     0.090117176609     0.845024145582     1.007825032230

  Basis Set: AUG-CC-PVTZ
    Blend: AUG-CC-PVTZ
  Basis Set: (AUG-CC-PVTZ AUX)
    Blend: AUG-CC-PVTZ-JKFIT
	 Reference Energy          =    -438.8270836012223413 [Eh]
	 Singles Energy            =      -0.0000000000000000 [Eh]
	 Same-Spin Energy          =      -0.4701884763327153 [Eh]
	 Opposite-Spin Energy      =      -1.4993499980182590 [Eh]
	 Correlation Energy        =      -1.9695384743509743 [Eh]
	 Total Energy              =    -440.7966220755733389 [Eh]

	 ================> DF-SCS-MP2 Energies <==================
	-----------------------------------------------------------
	 SCS Same-Spin Scale       =       0.3333333333333333 [-]
	 SCS Opposite-Spin Scale   =       1.2000000000000000 [-]
	 SCS Same-Spin Energy      =      -0.1567294921109051 [Eh]
	 SCS Opposite-Spin Energy  =      -1.7992199976219108 [Eh]
	 SCS Correlation Energy    =      -1.9559494897328158 [Eh]
	 SCS Total Energy          =    -440.7830330909551435 [Eh]
	-----------------------------------------------------------

  Dipole Moment: [D]
     X:    -4.4633      Y:    -0.3027      Z:     0.0430     Total:     4.4737

*** Psi4 exiting successfully. Buy a developer a beer!
