                               Psi4 1.4a3.dev225

  ==> Input File <==

--------------------------------------------------------------------------
#psi4
#
memory 32 gb

molecule  {
0 1
  O        2.7382740    -0.7425350    -0.0126020
  N        0.6793120    -1.7266560     0.0061990
  C       -0.6027900     0.6893070    -0.0105920
  C        0.7782570     0.6611280     0.0035530
  C       -1.3671740    -0.5278470     0.0018860
  C        1.5049430    -0.6032750    -0.0044170
  C       -0.6863680    -1.7128580     0.0067460
  C       -1.4540270     2.1689980    -0.0040348
  C        1.6363160     1.8972900     0.0117510
  C       -2.8711540    -0.5219980    -0.0023590
  H       -1.1766380    -2.6823000     0.0159410
  H       -2.1333760     2.0016470    -0.7732430
  H       -0.6949600     2.8439520    -0.1887900
  H       -1.8505650     2.1568320     0.9594550
  H        1.1855660    -2.6081270     0.0055670
  H        1.5190430     2.4748580    -0.9113220
  H        2.6811620     1.5965790     0.0968200
  H        1.3890810     2.5538390     0.8512930
  H       -3.2566820    -1.5436220     0.0624630
  H       -3.2744260    -0.0723770    -0.9160080
  H       -3.2759870     0.0412750     0.8446610
units angstrom
no_reorient  #important for SAPT in psi4, default
symmetry c1  #important for SAPT in psi4, default
}

set PROPERTIES_ORIGIN ["COM"]
properties('MP2/aug-cc-pvtz', properties = ['dipole'])
--------------------------------------------------------------------------

    Molecular point group: c1
  Charge       = 0
  Multiplicity = 1
  Basis Set: AUG-CC-PVTZ
    Blend: AUG-CC-PVTZ
  Basis Set: (AUG-CC-PVTZ AUX)
    Blend: AUG-CC-PVTZ-JKFIT

    Orbital Energies [Eh]
    ---------------------

    Doubly Occupied:

       1A    -20.499889     2A    -15.615503     3A    -11.343908
       4A    -11.296383     5A    -11.274578     6A    -11.243243
       7A    -11.238260     8A    -11.237483     9A    -11.237266
      10A    -11.212920    11A     -1.361425    12A     -1.262606
      13A     -1.119529    14A     -1.060304    15A     -0.984493
      16A     -0.948666    17A     -0.936588    18A     -0.834212
      19A     -0.808416    20A     -0.725068    21A     -0.702585
      22A     -0.636815    23A     -0.625806    24A     -0.605724
      25A     -0.595492    26A     -0.586858    27A     -0.577377
      28A     -0.576662    29A     -0.555648    30A     -0.553425
      31A     -0.532268    32A     -0.503815    33A     -0.474653
      34A     -0.468573    35A     -0.410217    36A     -0.391019
      37A     -0.295225

  @DF-RHF Final Energy:  -438.80096061748930

   => Energetics <=

    Nuclear Repulsion Energy =            519.2964813482072941
    One-Electron Energy =               -1625.5290755330884167
    Two-Electron Energy =                 667.4316335673919411
    Total Energy =                       -438.8009606174892951
  Basis Set: (AUG-CC-PVTZ AUX)
    Blend: AUG-CC-PVTZ-RI
    Molecular point group: c1

    Geometry (in Angstrom), charge = 0, multiplicity = 1:

       Center              X                  Y                   Z               Mass
    ------------   -----------------  -----------------  -----------------  -----------------
         O            2.682763376506    -0.708753812587    -0.012330918474    15.994914619570
         N            0.623801376506    -1.692874812587     0.006470081526    14.003074004430
         C           -0.658300623494     0.723088187413    -0.010320918474    12.000000000000
         C            0.722746376506     0.694909187413     0.003824081526    12.000000000000
         C           -1.422684623494    -0.494065812587     0.002157081526    12.000000000000
         C            1.449432376506    -0.569493812587    -0.004145918474    12.000000000000
         C           -0.741878623494    -1.679076812587     0.007017081526    12.000000000000
         C           -1.509537623494     2.202779187413    -0.003763718474    12.000000000000
         C            1.580805376506     1.931071187413     0.012022081526    12.000000000000
         C           -2.926664623494    -0.488216812587    -0.002087918474    12.000000000000
         H           -1.232148623494    -2.648518812587     0.016212081526     1.007825032230
         H           -2.188886623494     2.035428187413    -0.772971918474     1.007825032230
         H           -0.750470623494     2.877733187413    -0.188518918474     1.007825032230
         H           -1.906075623494     2.190613187413     0.959726081526     1.007825032230
         H            1.130055376506    -2.574345812587     0.005838081526     1.007825032230
         H            1.463532376506     2.508639187413    -0.911050918474     1.007825032230
         H            2.625651376506     1.630360187413     0.097091081526     1.007825032230
         H            1.333570376506     2.587620187413     0.851564081526     1.007825032230
         H           -3.312192623494    -1.509840812587     0.062734081526     1.007825032230
         H           -3.329936623494    -0.038595812587    -0.915736918474     1.007825032230
         H           -3.331497623494     0.075056187413     0.844932081526     1.007825032230

  Basis Set: AUG-CC-PVTZ
    Blend: AUG-CC-PVTZ
  Basis Set: (AUG-CC-PVTZ AUX)
    Blend: AUG-CC-PVTZ-JKFIT
	 Reference Energy          =    -438.8009606174892951 [Eh]
	 Singles Energy            =      -0.0000000000000000 [Eh]
	 Same-Spin Energy          =      -0.4697131168304097 [Eh]
	 Opposite-Spin Energy      =      -1.4999115744435985 [Eh]
	 Correlation Energy        =      -1.9696246912740083 [Eh]
	 Total Energy              =    -440.7705853087633159 [Eh]

	 ================> DF-SCS-MP2 Energies <==================
	-----------------------------------------------------------
	 SCS Same-Spin Scale       =       0.3333333333333333 [-]
	 SCS Opposite-Spin Scale   =       1.2000000000000000 [-]
	 SCS Same-Spin Energy      =      -0.1565710389434699 [Eh]
	 SCS Opposite-Spin Energy  =      -1.7998938893323182 [Eh]
	 SCS Correlation Energy    =      -1.9564649282757880 [Eh]
	 SCS Total Energy          =    -440.7574255457651020 [Eh]
	-----------------------------------------------------------

  Dipole Moment: [D]
     X:    -4.3865      Y:    -0.3960      Z:     0.0411     Total:     4.4045

*** Psi4 exiting successfully. Buy a developer a beer!
