                               Psi4 1.4a3.dev225

  ==> Input File <==

--------------------------------------------------------------------------
#psi4
#
memory 32 gb

molecule  {
0 1
  O        2.7382740    -0.7425350    -0.0126020
  N        0.6793120    -1.7266560     0.0061990
  C       -0.6027900     0.6893070    -0.0105920
  C        0.7782570     0.6611280     0.0035530
  C       -1.3671740    -0.5278470     0.0018860
  C        1.5049430    -0.6032750    -0.0044170
  C       -0.6863680    -1.7128580     0.0067460
  C       -1.3542970     1.9956390    -0.0048030
  C        1.6363160     1.8972900     0.0117510
  C       -2.8711540    -0.5219980    -0.0023590
  H       -1.1766380    -2.6823000     0.0159410
  H       -2.1333760     2.0016470    -0.7732430
  H       -0.6949600     2.8439520    -0.1887900
  H       -1.8505650     2.1568320     0.9594550
  H        1.1855660    -2.6081270     0.0055670
  H        1.5190430     2.4748580    -0.9113220
  H        2.4895493     1.6517259     0.0812193
  H        1.3890810     2.5538390     0.8512930
  H       -3.2566820    -1.5436220     0.0624630
  H       -3.2744260    -0.0723770    -0.9160080
  H       -3.2759870     0.0412750     0.8446610
units angstrom
no_reorient  #important for SAPT in psi4, default
symmetry c1  #important for SAPT in psi4, default
}

set PROPERTIES_ORIGIN ["COM"]
properties('MP2/aug-cc-pvtz', properties = ['dipole'])
--------------------------------------------------------------------------

    Molecular point group: c1
  Charge       = 0
  Multiplicity = 1
  Basis Set: AUG-CC-PVTZ
    Blend: AUG-CC-PVTZ
  Basis Set: (AUG-CC-PVTZ AUX)
    Blend: AUG-CC-PVTZ-JKFIT

    Orbital Energies [Eh]
    ---------------------

    Doubly Occupied:

       1A    -20.500283     2A    -15.615526     3A    -11.344080
       4A    -11.296547     5A    -11.268670     6A    -11.242688
       7A    -11.237566     8A    -11.237032     9A    -11.236569
      10A    -11.191337    11A     -1.361651    12A     -1.262946
      13A     -1.131885    14A     -1.065464    15A     -0.998134
      16A     -0.950024    17A     -0.945623    18A     -0.831146
      19A     -0.815376    20A     -0.727892    21A     -0.706428
      22A     -0.645900    23A     -0.620535    24A     -0.604291
      25A     -0.590165    26A     -0.582272    27A     -0.580474
      28A     -0.570705    29A     -0.561576    30A     -0.550384
      31A     -0.544065    32A     -0.518160    33A     -0.499008
      34A     -0.468497    35A     -0.416019    36A     -0.387502
      37A     -0.295343

  @DF-RHF Final Energy:  -438.79345723784553

   => Energetics <=

    Nuclear Repulsion Energy =            523.7831147574521538
    One-Electron Energy =               -1634.3496191420176729
    Two-Electron Energy =                 671.7730471467200459
    Total Energy =                       -438.7934572378455869
  Basis Set: (AUG-CC-PVTZ AUX)
    Blend: AUG-CC-PVTZ-RI
    Molecular point group: c1

    Geometry (in Angstrom), charge = 0, multiplicity = 1:

       Center              X                  Y                   Z               Mass
    ------------   -----------------  -----------------  -----------------  -----------------
         O            2.675441971703    -0.693983827550    -0.012148977734    15.994914619570
         N            0.616479971703    -1.678104827550     0.006652022266    14.003074004430
         C           -0.665622028297     0.737858172450    -0.010138977734    12.000000000000
         C            0.715424971703     0.709679172450     0.004006022266    12.000000000000
         C           -1.430006028297    -0.479295827550     0.002339022266    12.000000000000
         C            1.442110971703    -0.554723827550    -0.003963977734    12.000000000000
         C           -0.749200028297    -1.664306827550     0.007199022266    12.000000000000
         C           -1.417129028297     2.044190172450    -0.004349977734    12.000000000000
         C            1.573483971703     1.945841172450     0.012204022266    12.000000000000
         C           -2.933986028297    -0.473446827550    -0.001905977734    12.000000000000
         H           -1.239470028297    -2.633748827550     0.016394022266     1.007825032230
         H           -2.196208028297     2.050198172450    -0.772789977734     1.007825032230
         H           -0.757792028297     2.892503172450    -0.188336977734     1.007825032230
         H           -1.913397028297     2.205383172450     0.959908022266     1.007825032230
         H            1.122733971703    -2.559575827550     0.006020022266     1.007825032230
         H            1.456210971703     2.523409172450    -0.910868977734     1.007825032230
         H            2.426717271703     1.700277072450     0.081672322266     1.007825032230
         H            1.326248971703     2.602390172450     0.851746022266     1.007825032230
         H           -3.319514028297    -1.495070827550     0.062916022266     1.007825032230
         H           -3.337258028297    -0.023825827550    -0.915554977734     1.007825032230
         H           -3.338819028297     0.089826172450     0.845114022266     1.007825032230

  Basis Set: AUG-CC-PVTZ
    Blend: AUG-CC-PVTZ
  Basis Set: (AUG-CC-PVTZ AUX)
    Blend: AUG-CC-PVTZ-JKFIT
	 Reference Energy          =    -438.7934572378455300 [Eh]
	 Singles Energy            =      -0.0000000000000000 [Eh]
	 Same-Spin Energy          =      -0.4698877466032094 [Eh]
	 Opposite-Spin Energy      =      -1.4981051859276142 [Eh]
	 Correlation Energy        =      -1.9679929325308236 [Eh]
	 Total Energy              =    -440.7614501703763494 [Eh]

	 ================> DF-SCS-MP2 Energies <==================
	-----------------------------------------------------------
	 SCS Same-Spin Scale       =       0.3333333333333333 [-]
	 SCS Opposite-Spin Scale   =       1.2000000000000000 [-]
	 SCS Same-Spin Energy      =      -0.1566292488677364 [Eh]
	 SCS Opposite-Spin Energy  =      -1.7977262231131370 [Eh]
	 SCS Correlation Energy    =      -1.9543554719808736 [Eh]
	 SCS Total Energy          =    -440.7478127098264054 [Eh]
	-----------------------------------------------------------

  Dipole Moment: [D]
     X:    -4.4495      Y:    -0.2337      Z:     0.0443     Total:     4.4558

*** Psi4 exiting successfully. Buy a developer a beer!
