                               Psi4 1.4a3.dev225

  ==> Input File <==

--------------------------------------------------------------------------
#psi4
#
memory 32 gb

molecule  {
0 1
  O        2.7382740    -0.7425350    -0.0126020
  N        0.6793120    -1.7266560     0.0061990
  C       -0.6027900     0.6893070    -0.0105920
  C        0.7782570     0.6611280     0.0035530
  C       -1.3671740    -0.5278470     0.0018860
  C        1.5049430    -0.6032750    -0.0044170
  C       -0.6657903    -1.7007957     0.0067739
  C       -1.3542970     1.9956390    -0.0048030
  C        1.6363160     1.8972900     0.0117510
  C       -2.8711540    -0.5219980    -0.0023590
  H       -1.1766380    -2.6823000     0.0159410
  H       -2.1333760     2.0016470    -0.7732430
  H       -0.6949600     2.8439520    -0.1887900
  H       -1.8505650     2.1568320     0.9594550
  H        1.1855660    -2.6081270     0.0055670
  H        1.5190430     2.4748580    -0.9113220
  H        2.6811620     1.5965790     0.0968200
  H        1.3890810     2.5538390     0.8512930
  H       -3.2566820    -1.5436220     0.0624630
  H       -3.2744260    -0.0723770    -0.9160080
  H       -3.2759870     0.0412750     0.8446610
units angstrom
no_reorient  #important for SAPT in psi4, default
symmetry c1  #important for SAPT in psi4, default
}

set PROPERTIES_ORIGIN ["COM"]
properties('MP2/aug-cc-pvtz', properties = ['dipole'])
--------------------------------------------------------------------------

    Molecular point group: c1
  Charge       = 0
  Multiplicity = 1
  Basis Set: AUG-CC-PVTZ
    Blend: AUG-CC-PVTZ
  Basis Set: (AUG-CC-PVTZ AUX)
    Blend: AUG-CC-PVTZ-JKFIT

    Orbital Energies [Eh]
    ---------------------

    Doubly Occupied:

       1A    -20.500386     2A    -15.617749     3A    -11.344182
       4A    -11.297661     5A    -11.268926     6A    -11.241413
       7A    -11.237363     8A    -11.237130     9A    -11.236542
      10A    -11.212328    11A     -1.363418    12A     -1.269536
      13A     -1.131853    14A     -1.060922    15A     -0.990718
      16A     -0.949421    17A     -0.934277    18A     -0.830018
      19A     -0.811320    20A     -0.730322    21A     -0.706194
      22A     -0.640876    23A     -0.621902    24A     -0.596740
      25A     -0.586840    26A     -0.583582    27A     -0.571430
      28A     -0.568956    29A     -0.560902    30A     -0.550365
      31A     -0.534385    32A     -0.506142    33A     -0.497532
      34A     -0.470596    35A     -0.415610    36A     -0.388313
      37A     -0.294189

  @DF-RHF Final Energy:  -438.82732459148201

   => Energetics <=

    Nuclear Repulsion Energy =            523.2295621596101682
    One-Electron Energy =               -1633.3936981835379356
    Two-Electron Energy =                 671.3368114324457565
    Total Energy =                       -438.8273245914820109
  Basis Set: (AUG-CC-PVTZ AUX)
    Blend: AUG-CC-PVTZ-RI
    Molecular point group: c1

    Geometry (in Angstrom), charge = 0, multiplicity = 1:

       Center              X                  Y                   Z               Mass
    ------------   -----------------  -----------------  -----------------  -----------------
         O            2.672231937927    -0.694634298299    -0.012266114443    15.994914619570
         N            0.613269937927    -1.678755298299     0.006534885557    14.003074004430
         C           -0.668832062073     0.737207701701    -0.010256114443    12.000000000000
         C            0.712214937927     0.709028701701     0.003888885557    12.000000000000
         C           -1.433216062073    -0.479946298299     0.002221885557    12.000000000000
         C            1.438900937927    -0.555374298299    -0.004081114443    12.000000000000
         C           -0.731832362073    -1.652894998299     0.007109785557    12.000000000000
         C           -1.420339062073     2.043539701701    -0.004467114443    12.000000000000
         C            1.570273937927     1.945190701701     0.012086885557    12.000000000000
         C           -2.937196062073    -0.474097298299    -0.002023114443    12.000000000000
         H           -1.242680062073    -2.634399298299     0.016276885557     1.007825032230
         H           -2.199418062073     2.049547701701    -0.772907114443     1.007825032230
         H           -0.761002062073     2.891852701701    -0.188454114443     1.007825032230
         H           -1.916607062073     2.204732701701     0.959790885557     1.007825032230
         H            1.119523937927    -2.560226298299     0.005902885557     1.007825032230
         H            1.453000937927     2.522758701701    -0.910986114443     1.007825032230
         H            2.615119937927     1.644479701701     0.097155885557     1.007825032230
         H            1.323038937927     2.601739701701     0.851628885557     1.007825032230
         H           -3.322724062073    -1.495721298299     0.062798885557     1.007825032230
         H           -3.340468062073    -0.024476298299    -0.915672114443     1.007825032230
         H           -3.342029062073     0.089175701701     0.844996885557     1.007825032230

  Basis Set: AUG-CC-PVTZ
    Blend: AUG-CC-PVTZ
  Basis Set: (AUG-CC-PVTZ AUX)
    Blend: AUG-CC-PVTZ-JKFIT
	 Reference Energy          =    -438.8273245914820109 [Eh]
	 Singles Energy            =      -0.0000000000000000 [Eh]
	 Same-Spin Energy          =      -0.4702955718818558 [Eh]
	 Opposite-Spin Energy      =      -1.4989411684508078 [Eh]
	 Correlation Energy        =      -1.9692367403326636 [Eh]
	 Total Energy              =    -440.7965613318147007 [Eh]

	 ================> DF-SCS-MP2 Energies <==================
	-----------------------------------------------------------
	 SCS Same-Spin Scale       =       0.3333333333333333 [-]
	 SCS Opposite-Spin Scale   =       1.2000000000000000 [-]
	 SCS Same-Spin Energy      =      -0.1567651906272853 [Eh]
	 SCS Opposite-Spin Energy  =      -1.7987294021409694 [Eh]
	 SCS Correlation Energy    =      -1.9554945927682548 [Eh]
	 SCS Total Energy          =    -440.7828191842502861 [Eh]
	-----------------------------------------------------------

  Dipole Moment: [D]
     X:    -4.4309      Y:    -0.3308      Z:     0.0420     Total:     4.4434

*** Psi4 exiting successfully. Buy a developer a beer!
