                               Psi4 1.4a3.dev225

  ==> Input File <==

--------------------------------------------------------------------------
#psi4
#
memory 32 gb

molecule  {
0 1
  O        2.7382740    -0.7425350    -0.0126020
  N        0.6793120    -1.7266560     0.0061990
  C       -0.6027900     0.6893070    -0.0105920
  C        0.7782570     0.6611280     0.0035530
  C       -1.3671740    -0.5278470     0.0018860
  C        1.5049430    -0.6032750    -0.0044170
  C       -0.6863680    -1.7128580     0.0067460
  C       -1.3542970     1.9956390    -0.0048030
  C        1.6363160     1.8972900     0.0117510
  C       -2.8711540    -0.5219980    -0.0023590
  H       -1.1766380    -2.6823000     0.0159410
  H       -2.1333760     2.0016470    -0.7732430
  H       -0.6949600     2.8439520    -0.1887900
  H       -1.8505650     2.1568320     0.9594550
  H        1.1855660    -2.6081270     0.0055670
  H        1.5211846     2.4643105    -0.8944649
  H        2.6811620     1.5965790     0.0968200
  H        1.3890810     2.5538390     0.8512930
  H       -3.2566820    -1.5436220     0.0624630
  H       -3.2744260    -0.0723770    -0.9160080
  H       -3.2759870     0.0412750     0.8446610
units angstrom
no_reorient  #important for SAPT in psi4, default
symmetry c1  #important for SAPT in psi4, default
}

set PROPERTIES_ORIGIN ["COM"]
properties('MP2/aug-cc-pvtz', properties = ['dipole'])
--------------------------------------------------------------------------

    Molecular point group: c1
  Charge       = 0
  Multiplicity = 1
  Basis Set: AUG-CC-PVTZ
    Blend: AUG-CC-PVTZ
  Basis Set: (AUG-CC-PVTZ AUX)
    Blend: AUG-CC-PVTZ-JKFIT

    Orbital Energies [Eh]
    ---------------------

    Doubly Occupied:

       1A    -20.500144     2A    -15.615664     3A    -11.344026
       4A    -11.296689     5A    -11.269168     6A    -11.242938
       7A    -11.238357     8A    -11.237228     9A    -11.237036
      10A    -11.210355    11A     -1.361675    12A     -1.263070
      13A     -1.131516    14A     -1.062154    15A     -0.991456
      16A     -0.948793    17A     -0.935099    18A     -0.830442
      19A     -0.810069    20A     -0.726158    21A     -0.705552
      22A     -0.645474    23A     -0.620897    24A     -0.598114
      25A     -0.586403    26A     -0.582612    27A     -0.572056
      28A     -0.569243    29A     -0.561618    30A     -0.552129
      31A     -0.533983    32A     -0.505874    33A     -0.499567
      34A     -0.468557    35A     -0.415611    36A     -0.387973
      37A     -0.295596

  @DF-RHF Final Energy:  -438.82770522196563

   => Energetics <=

    Nuclear Repulsion Energy =            522.9102093163770633
    One-Electron Energy =               -1632.7692397780215288
    Two-Electron Energy =                 671.0313252396789494
    Total Energy =                       -438.8277052219656298
  Basis Set: (AUG-CC-PVTZ AUX)
    Blend: AUG-CC-PVTZ-RI
    Molecular point group: c1

    Geometry (in Angstrom), charge = 0, multiplicity = 1:

       Center              X                  Y                   Z               Mass
    ------------   -----------------  -----------------  -----------------  -----------------
         O            2.674017514126    -0.693500850471    -0.012387603454    15.994914619570
         N            0.615055514126    -1.677621850471     0.006413396546    14.003074004430
         C           -0.667046485874     0.738341149529    -0.010377603454    12.000000000000
         C            0.714000514126     0.710162149529     0.003767396546    12.000000000000
         C           -1.431430485874    -0.478812850471     0.002100396546    12.000000000000
         C            1.440686514126    -0.554240850471    -0.004202603454    12.000000000000
         C           -0.750624485874    -1.663823850471     0.006960396546    12.000000000000
         C           -1.418553485874     2.044673149529    -0.004588603454    12.000000000000
         C            1.572059514126     1.946324149529     0.011965396546    12.000000000000
         C           -2.935410485874    -0.472963850471    -0.002144603454    12.000000000000
         H           -1.240894485874    -2.633265850471     0.016155396546     1.007825032230
         H           -2.197632485874     2.050681149529    -0.773028603454     1.007825032230
         H           -0.759216485874     2.892986149529    -0.188575603454     1.007825032230
         H           -1.914821485874     2.205866149529     0.959669396546     1.007825032230
         H            1.121309514126    -2.559092850471     0.005781396546     1.007825032230
         H            1.456928114126     2.513344649529    -0.894250503454     1.007825032230
         H            2.616905514126     1.645613149529     0.097034396546     1.007825032230
         H            1.324824514126     2.602873149529     0.851507396546     1.007825032230
         H           -3.320938485874    -1.494587850471     0.062677396546     1.007825032230
         H           -3.338682485874    -0.023342850471    -0.915793603454     1.007825032230
         H           -3.340243485874     0.090309149529     0.844875396546     1.007825032230

  Basis Set: AUG-CC-PVTZ
    Blend: AUG-CC-PVTZ
  Basis Set: (AUG-CC-PVTZ AUX)
    Blend: AUG-CC-PVTZ-JKFIT
	 Reference Energy          =    -438.8277052219656298 [Eh]
	 Singles Energy            =      -0.0000000000000000 [Eh]
	 Same-Spin Energy          =      -0.4701484878747978 [Eh]
	 Opposite-Spin Energy      =      -1.4990573756344054 [Eh]
	 Correlation Energy        =      -1.9692058635092033 [Eh]
	 Total Energy              =    -440.7969110854748465 [Eh]

	 ================> DF-SCS-MP2 Energies <==================
	-----------------------------------------------------------
	 SCS Same-Spin Scale       =       0.3333333333333333 [-]
	 SCS Opposite-Spin Scale   =       1.2000000000000000 [-]
	 SCS Same-Spin Energy      =      -0.1567161626249326 [Eh]
	 SCS Opposite-Spin Energy  =      -1.7988688507612864 [Eh]
	 SCS Correlation Energy    =      -1.9555850133862189 [Eh]
	 SCS Total Energy          =    -440.7832902353518421 [Eh]
	-----------------------------------------------------------

  Dipole Moment: [D]
     X:    -4.4613      Y:    -0.2850      Z:     0.0354     Total:     4.4705

*** Psi4 exiting successfully. Buy a developer a beer!
