                               Psi4 1.4a3.dev225

  ==> Input File <==

--------------------------------------------------------------------------
#psi4
#
memory 32 gb

molecule  {
0 1
  O        2.7382740    -0.7425350    -0.0126020
  N        0.6793120    -1.7266560     0.0061990
  C       -0.6027900     0.6893070    -0.0105920
  C        0.7782570     0.6611280     0.0035530
  C       -1.3671740    -0.5278470     0.0018860
  C        1.5049430    -0.6032750    -0.0044170
  C       -0.6863680    -1.7128580     0.0067460
  C       -1.3293645     1.9522993    -0.0049951
  C        1.6363160     1.8972900     0.0117510
  C       -2.8711540    -0.5219980    -0.0023590
  H       -1.1766380    -2.6823000     0.0159410
  H       -2.1333760     2.0016470    -0.7732430
  H       -0.6949600     2.8439520    -0.1887900
  H       -1.8505650     2.1568320     0.9594550
  H        1.1855660    -2.6081270     0.0055670
  H        1.5190430     2.4748580    -0.9113220
  H        2.6811620     1.5965790     0.0968200
  H        1.3890810     2.5538390     0.8512930
  H       -3.2566820    -1.5436220     0.0624630
  H       -3.2744260    -0.0723770    -0.9160080
  H       -3.2759870     0.0412750     0.8446610
units angstrom
no_reorient  #important for SAPT in psi4, default
symmetry c1  #important for SAPT in psi4, default
}

set PROPERTIES_ORIGIN ["COM"]
properties('MP2/aug-cc-pvtz', properties = ['dipole'])
--------------------------------------------------------------------------

    Molecular point group: c1
  Charge       = 0
  Multiplicity = 1
  Basis Set: AUG-CC-PVTZ
    Blend: AUG-CC-PVTZ
  Basis Set: (AUG-CC-PVTZ AUX)
    Blend: AUG-CC-PVTZ-JKFIT

    Orbital Energies [Eh]
    ---------------------

    Doubly Occupied:

       1A    -20.500277     2A    -15.615747     3A    -11.344142
       4A    -11.296840     5A    -11.266942     6A    -11.242938
       7A    -11.238877     8A    -11.238588     9A    -11.237177
      10A    -11.212783    11A     -1.361808    12A     -1.263276
      13A     -1.136253    14A     -1.062543    15A     -0.994258
      16A     -0.948824    17A     -0.933258    18A     -0.828602
      19A     -0.810078    20A     -0.726577    21A     -0.706421
      22A     -0.649990    23A     -0.620522    24A     -0.598078
      25A     -0.590769    26A     -0.581027    27A     -0.572307
      28A     -0.567934    29A     -0.557166    30A     -0.548229
      31A     -0.531636    32A     -0.507823    33A     -0.498286
      34A     -0.468509    35A     -0.416270    36A     -0.386159
      37A     -0.295647

  @DF-RHF Final Energy:  -438.82431176274861

   => Energetics <=

    Nuclear Repulsion Energy =            523.7564599624811308
    One-Electron Energy =               -1634.4484225702019558
    Two-Electron Energy =                 671.8676508449722178
    Total Energy =                       -438.8243117627486072
  Basis Set: (AUG-CC-PVTZ AUX)
    Blend: AUG-CC-PVTZ-RI
    Molecular point group: c1

    Geometry (in Angstrom), charge = 0, multiplicity = 1:

       Center              X                  Y                   Z               Mass
    ------------   -----------------  -----------------  -----------------  -----------------
         O            2.671850729503    -0.689784544209    -0.012246856187    15.994914619570
         N            0.612888729503    -1.673905544209     0.006554143813    14.003074004430
         C           -0.669213270497     0.742057455791    -0.010236856187    12.000000000000
         C            0.711833729503     0.713878455791     0.003908143813    12.000000000000
         C           -1.433597270497    -0.475096544209     0.002241143813    12.000000000000
         C            1.438519729503    -0.550524544209    -0.004061856187    12.000000000000
         C           -0.752791270497    -1.660107544209     0.007101143813    12.000000000000
         C           -1.395787770497     2.005049755791    -0.004639956187    12.000000000000
         C            1.569892729503     1.950040455791     0.012106143813    12.000000000000
         C           -2.937577270497    -0.469247544209    -0.002003856187    12.000000000000
         H           -1.243061270497    -2.629549544209     0.016296143813     1.007825032230
         H           -2.199799270497     2.054397455791    -0.772887856187     1.007825032230
         H           -0.761383270497     2.896702455791    -0.188434856187     1.007825032230
         H           -1.916988270497     2.209582455791     0.959810143813     1.007825032230
         H            1.119142729503    -2.555376544209     0.005922143813     1.007825032230
         H            1.452619729503     2.527608455791    -0.910966856187     1.007825032230
         H            2.614738729503     1.649329455791     0.097175143813     1.007825032230
         H            1.322657729503     2.606589455791     0.851648143813     1.007825032230
         H           -3.323105270497    -1.490871544209     0.062818143813     1.007825032230
         H           -3.340849270497    -0.019626544209    -0.915652856187     1.007825032230
         H           -3.342410270497     0.094025455791     0.845016143813     1.007825032230

  Basis Set: AUG-CC-PVTZ
    Blend: AUG-CC-PVTZ
  Basis Set: (AUG-CC-PVTZ AUX)
    Blend: AUG-CC-PVTZ-JKFIT
	 Reference Energy          =    -438.8243117627486072 [Eh]
	 Singles Energy            =      -0.0000000000000000 [Eh]
	 Same-Spin Energy          =      -0.4707702789903545 [Eh]
	 Opposite-Spin Energy      =      -1.4998335313088531 [Eh]
	 Correlation Energy        =      -1.9706038102992076 [Eh]
	 Total Energy              =    -440.7949155730478310 [Eh]

	 ================> DF-SCS-MP2 Energies <==================
	-----------------------------------------------------------
	 SCS Same-Spin Scale       =       0.3333333333333333 [-]
	 SCS Opposite-Spin Scale   =       1.2000000000000000 [-]
	 SCS Same-Spin Energy      =      -0.1569234263301181 [Eh]
	 SCS Opposite-Spin Energy  =      -1.7998002375706237 [Eh]
	 SCS Correlation Energy    =      -1.9567236639007419 [Eh]
	 SCS Total Energy          =    -440.7810354266493391 [Eh]
	-----------------------------------------------------------

  Dipole Moment: [D]
     X:    -4.4762      Y:    -0.2749      Z:     0.0424     Total:     4.4848

*** Psi4 exiting successfully. Buy a developer a beer!
