                               Psi4 1.4a3.dev225

  ==> Input File <==

--------------------------------------------------------------------------
#psi4
#
memory 32 gb

molecule  {
0 1
  O        2.7382740    -0.7425350    -0.0126020
  N        0.6793120    -1.7266560     0.0061990
  C       -0.6027900     0.6893070    -0.0105920
  C        0.7782570     0.6611280     0.0035530
  C       -1.3671740    -0.5278470     0.0018860
  C        1.5049430    -0.6032750    -0.0044170
  C       -0.6863680    -1.7128580     0.0067460
  C       -1.3542970     1.9956390    -0.0048030
  C        1.6363160     1.8972900     0.0117510
  C       -2.8711540    -0.5219980    -0.0023590
  H       -1.1766380    -2.6823000     0.0159410
  H       -2.1333760     2.0016470    -0.7732430
  H       -0.6949600     2.8439520    -0.1887900
  H       -1.8505650     2.1568320     0.9594550
  H        1.1855660    -2.6081270     0.0055670
  H        1.5243971     2.4484892    -0.8691792
  H        2.6811620     1.5965790     0.0968200
  H        1.3890810     2.5538390     0.8512930
  H       -3.2566820    -1.5436220     0.0624630
  H       -3.2744260    -0.0723770    -0.9160080
  H       -3.2759870     0.0412750     0.8446610
units angstrom
no_reorient  #important for SAPT in psi4, default
symmetry c1  #important for SAPT in psi4, default
}

set PROPERTIES_ORIGIN ["COM"]
properties('MP2/aug-cc-pvtz', properties = ['dipole'])
--------------------------------------------------------------------------

    Molecular point group: c1
  Charge       = 0
  Multiplicity = 1
  Basis Set: AUG-CC-PVTZ
    Blend: AUG-CC-PVTZ
  Basis Set: (AUG-CC-PVTZ AUX)
    Blend: AUG-CC-PVTZ-JKFIT

    Orbital Energies [Eh]
    ---------------------

    Doubly Occupied:

       1A    -20.500033     2A    -15.615543     3A    -11.343875
       4A    -11.296563     5A    -11.269034     6A    -11.242848
       7A    -11.238162     8A    -11.237175     9A    -11.237087
      10A    -11.206604    11A     -1.361556    12A     -1.262952
      13A     -1.131520    14A     -1.062408    15A     -0.991934
      16A     -0.948752    17A     -0.936817    18A     -0.830687
      19A     -0.810606    20A     -0.726114    21A     -0.705670
      22A     -0.645554    23A     -0.621226    24A     -0.598011
      25A     -0.586734    26A     -0.583005    27A     -0.573133
      28A     -0.569154    29A     -0.561772    30A     -0.554643
      31A     -0.534134    32A     -0.505955    33A     -0.499636
      34A     -0.468498    35A     -0.415495    36A     -0.388094
      37A     -0.295575

  @DF-RHF Final Energy:  -438.82669967474345

   => Energetics <=

    Nuclear Repulsion Energy =            523.0527525849768153
    One-Electron Energy =               -1633.0457833758302968
    Two-Electron Energy =                 671.1663311161099728
    Total Energy =                       -438.8266996747435087
  Basis Set: (AUG-CC-PVTZ AUX)
    Blend: AUG-CC-PVTZ-RI
    Molecular point group: c1

    Geometry (in Angstrom), charge = 0, multiplicity = 1:

       Center              X                  Y                   Z               Mass
    ------------   -----------------  -----------------  -----------------  -----------------
         O            2.673993896225    -0.693384534237    -0.012573500783    15.994914619570
         N            0.615031896225    -1.677505534237     0.006227499217    14.003074004430
         C           -0.667070103775     0.738457465763    -0.010563500783    12.000000000000
         C            0.713976896225     0.710278465763     0.003581499217    12.000000000000
         C           -1.431454103775    -0.478696534237     0.001914499217    12.000000000000
         C            1.440662896225    -0.554124534237    -0.004388500783    12.000000000000
         C           -0.750648103775    -1.663707534237     0.006774499217    12.000000000000
         C           -1.418577103775     2.044789465763    -0.004774500783    12.000000000000
         C            1.572035896225     1.946440465763     0.011779499217    12.000000000000
         C           -2.935434103775    -0.472847534237    -0.002330500783    12.000000000000
         H           -1.240918103775    -2.633149534237     0.015969499217     1.007825032230
         H           -2.197656103775     2.050797465763    -0.773214500783     1.007825032230
         H           -0.759240103775     2.893102465763    -0.188761500783     1.007825032230
         H           -1.914845103775     2.205982465763     0.959483499217     1.007825032230
         H            1.121285896225    -2.558976534237     0.005595499217     1.007825032230
         H            1.460116996225     2.497639665763    -0.869150700783     1.007825032230
         H            2.616881896225     1.645729465763     0.096848499217     1.007825032230
         H            1.324800896225     2.602989465763     0.851321499217     1.007825032230
         H           -3.320962103775    -1.494471534237     0.062491499217     1.007825032230
         H           -3.338706103775    -0.023226534237    -0.915979500783     1.007825032230
         H           -3.340267103775     0.090425465763     0.844689499217     1.007825032230

  Basis Set: AUG-CC-PVTZ
    Blend: AUG-CC-PVTZ
  Basis Set: (AUG-CC-PVTZ AUX)
    Blend: AUG-CC-PVTZ-JKFIT
	 Reference Energy          =    -438.8266996747434519 [Eh]
	 Singles Energy            =      -0.0000000000000000 [Eh]
	 Same-Spin Energy          =      -0.4701479989345871 [Eh]
	 Opposite-Spin Energy      =      -1.4989140676884061 [Eh]
	 Correlation Energy        =      -1.9690620666229932 [Eh]
	 Total Energy              =    -440.7957617413664479 [Eh]

	 ================> DF-SCS-MP2 Energies <==================
	-----------------------------------------------------------
	 SCS Same-Spin Scale       =       0.3333333333333333 [-]
	 SCS Opposite-Spin Scale   =       1.2000000000000000 [-]
	 SCS Same-Spin Energy      =      -0.1567159996448624 [Eh]
	 SCS Opposite-Spin Energy  =      -1.7986968812260873 [Eh]
	 SCS Correlation Energy    =      -1.9554128808709497 [Eh]
	 SCS Total Energy          =    -440.7821125556143897 [Eh]
	-----------------------------------------------------------

  Dipole Moment: [D]
     X:    -4.4596      Y:    -0.2740      Z:     0.0268     Total:     4.4681

*** Psi4 exiting successfully. Buy a developer a beer!
