                               Psi4 1.4a3.dev225

  ==> Input File <==

--------------------------------------------------------------------------
#psi4
#
memory 32 gb

molecule  {
0 1
  O        2.7382740    -0.7425350    -0.0126020
  N        0.6793120    -1.7266560     0.0061990
  C       -0.6027900     0.6893070    -0.0105920
  C        0.7782570     0.6611280     0.0035530
  C       -1.3671740    -0.5278470     0.0018860
  C        1.5049430    -0.6032750    -0.0044170
  C       -0.6863680    -1.7128580     0.0067460
  C       -1.3542970     1.9956390    -0.0048030
  C        1.6363160     1.8972900     0.0117510
  C       -2.8711540    -0.5219980    -0.0023590
  H       -1.1766380    -2.6823000     0.0159410
  H       -2.1333760     2.0016470    -0.7732430
  H       -0.6949600     2.8439520    -0.1887900
  H       -1.8731970     2.1641831     1.0034295
  H        1.1855660    -2.6081270     0.0055670
  H        1.5190430     2.4748580    -0.9113220
  H        2.6811620     1.5965790     0.0968200
  H        1.3890810     2.5538390     0.8512930
  H       -3.2566820    -1.5436220     0.0624630
  H       -3.2744260    -0.0723770    -0.9160080
  H       -3.2759870     0.0412750     0.8446610
units angstrom
no_reorient  #important for SAPT in psi4, default
symmetry c1  #important for SAPT in psi4, default
}

set PROPERTIES_ORIGIN ["COM"]
properties('MP2/aug-cc-pvtz', properties = ['dipole'])
--------------------------------------------------------------------------

    Molecular point group: c1
  Charge       = 0
  Multiplicity = 1
  Basis Set: AUG-CC-PVTZ
    Blend: AUG-CC-PVTZ
  Basis Set: (AUG-CC-PVTZ AUX)
    Blend: AUG-CC-PVTZ-JKFIT

    Orbital Energies [Eh]
    ---------------------

    Doubly Occupied:

       1A    -20.500394     2A    -15.615868     3A    -11.344325
       4A    -11.296839     5A    -11.269661     6A    -11.243100
       7A    -11.242892     8A    -11.238829     9A    -11.237154
      10A    -11.213022    11A     -1.361918    12A     -1.263279
      13A     -1.131357    14A     -1.062116    15A     -0.988702
      16A     -0.948808    17A     -0.933545    18A     -0.829068
      19A     -0.809646    20A     -0.726298    21A     -0.705602
      22A     -0.645354    23A     -0.619244    24A     -0.598226
      25A     -0.586203    26A     -0.581020    27A     -0.570259
      28A     -0.566780    29A     -0.561779    30A     -0.548523
      31A     -0.533142    32A     -0.505889    33A     -0.499751
      34A     -0.468680    35A     -0.415866    36A     -0.387555
      37A     -0.295712

  @DF-RHF Final Energy:  -438.82557766515242

   => Energetics <=

    Nuclear Repulsion Energy =            522.5959758943953375
    One-Electron Energy =               -1632.1502936486269846
    Two-Electron Energy =                 670.7287400890793378
    Total Energy =                       -438.8255776651524229
  Basis Set: (AUG-CC-PVTZ AUX)
    Blend: AUG-CC-PVTZ-RI
    Molecular point group: c1

    Geometry (in Angstrom), charge = 0, multiplicity = 1:

       Center              X                  Y                   Z               Mass
    ------------   -----------------  -----------------  -----------------  -----------------
         O            2.674199646560    -0.693632438758    -0.012586967214    15.994914619570
         N            0.615237646560    -1.677753438758     0.006214032786    14.003074004430
         C           -0.666864353440     0.738209561242    -0.010576967214    12.000000000000
         C            0.714182646560     0.710030561242     0.003568032786    12.000000000000
         C           -1.431248353440    -0.478944438758     0.001901032786    12.000000000000
         C            1.440868646560    -0.554372438758    -0.004401967214    12.000000000000
         C           -0.750442353440    -1.663955438758     0.006761032786    12.000000000000
         C           -1.418371353440     2.044541561242    -0.004787967214    12.000000000000
         C            1.572241646560     1.946192561242     0.011766032786    12.000000000000
         C           -2.935228353440    -0.473095438758    -0.002343967214    12.000000000000
         H           -1.240712353440    -2.633397438758     0.015956032786     1.007825032230
         H           -2.197450353440     2.050549561242    -0.773227967214     1.007825032230
         H           -0.759034353440     2.892854561242    -0.188774967214     1.007825032230
         H           -1.937271353440     2.213085661242     1.003444532786     1.007825032230
         H            1.121491646560    -2.559224438758     0.005582032786     1.007825032230
         H            1.454968646560     2.523760561242    -0.911306967214     1.007825032230
         H            2.617087646560     1.645481561242     0.096835032786     1.007825032230
         H            1.325006646560     2.602741561242     0.851308032786     1.007825032230
         H           -3.320756353440    -1.494719438758     0.062478032786     1.007825032230
         H           -3.338500353440    -0.023474438758    -0.915992967214     1.007825032230
         H           -3.340061353440     0.090177561242     0.844676032786     1.007825032230

  Basis Set: AUG-CC-PVTZ
    Blend: AUG-CC-PVTZ
  Basis Set: (AUG-CC-PVTZ AUX)
    Blend: AUG-CC-PVTZ-JKFIT
	 Reference Energy          =    -438.8255776651524229 [Eh]
	 Singles Energy            =      -0.0000000000000000 [Eh]
	 Same-Spin Energy          =      -0.4701761679789143 [Eh]
	 Opposite-Spin Energy      =      -1.4995184801754458 [Eh]
	 Correlation Energy        =      -1.9696946481543600 [Eh]
	 Total Energy              =    -440.7952723133067821 [Eh]

	 ================> DF-SCS-MP2 Energies <==================
	-----------------------------------------------------------
	 SCS Same-Spin Scale       =       0.3333333333333333 [-]
	 SCS Opposite-Spin Scale   =       1.2000000000000000 [-]
	 SCS Same-Spin Energy      =      -0.1567253893263048 [Eh]
	 SCS Opposite-Spin Energy  =      -1.7994221762105349 [Eh]
	 SCS Correlation Energy    =      -1.9561475655368397 [Eh]
	 SCS Total Energy          =    -440.7817252306892897 [Eh]
	-----------------------------------------------------------

  Dipole Moment: [D]
     X:    -4.4462      Y:    -0.3037      Z:     0.0261     Total:     4.4567

*** Psi4 exiting successfully. Buy a developer a beer!
