                               Psi4 1.4a3.dev225

  ==> Input File <==

--------------------------------------------------------------------------
#psi4
#
memory 32 gb

molecule  {
0 1
  O        2.7382740    -0.7425350    -0.0126020
  N        0.6793120    -1.7266560     0.0061990
  C       -0.6027900     0.6893070    -0.0105920
  C        0.7782570     0.6611280     0.0035530
  C       -1.3139930    -0.4431651     0.0010179
  C        1.5049430    -0.6032750    -0.0044170
  C       -0.6863680    -1.7128580     0.0067460
  C       -1.3542970     1.9956390    -0.0048030
  C        1.6363160     1.8972900     0.0117510
  C       -2.8711540    -0.5219980    -0.0023590
  H       -1.1766380    -2.6823000     0.0159410
  H       -2.1333760     2.0016470    -0.7732430
  H       -0.6949600     2.8439520    -0.1887900
  H       -1.8505650     2.1568320     0.9594550
  H        1.1855660    -2.6081270     0.0055670
  H        1.5190430     2.4748580    -0.9113220
  H        2.6811620     1.5965790     0.0968200
  H        1.3890810     2.5538390     0.8512930
  H       -3.2566820    -1.5436220     0.0624630
  H       -3.2744260    -0.0723770    -0.9160080
  H       -3.2759870     0.0412750     0.8446610
units angstrom
no_reorient  #important for SAPT in psi4, default
symmetry c1  #important for SAPT in psi4, default
}

set PROPERTIES_ORIGIN ["COM"]
properties('MP2/aug-cc-pvtz', properties = ['dipole'])
--------------------------------------------------------------------------

    Molecular point group: c1
  Charge       = 0
  Multiplicity = 1
  Basis Set: AUG-CC-PVTZ
    Blend: AUG-CC-PVTZ
  Basis Set: (AUG-CC-PVTZ AUX)
    Blend: AUG-CC-PVTZ-JKFIT

    Orbital Energies [Eh]
    ---------------------

    Doubly Occupied:

       1A    -20.494583     2A    -15.623478     3A    -11.340825
       4A    -11.309323     5A    -11.259093     6A    -11.243584
       7A    -11.239765     8A    -11.235947     9A    -11.235806
      10A    -11.211208    11A     -1.359841    12A     -1.265738
      13A     -1.142474    14A     -1.052993    15A     -0.988869
      16A     -0.944770    17A     -0.938225    18A     -0.842109
      19A     -0.808858    20A     -0.724327    21A     -0.709640
      22A     -0.650405    23A     -0.621675    24A     -0.597340
      25A     -0.588733    26A     -0.581806    27A     -0.568973
      28A     -0.567662    29A     -0.555049    30A     -0.548937
      31A     -0.527786    32A     -0.510100    33A     -0.491902
      34A     -0.467725    35A     -0.412888    36A     -0.399366
      37A     -0.284733

  @DF-RHF Final Energy:  -438.81056309583835

   => Energetics <=

    Nuclear Repulsion Energy =            523.7091337746036288
    One-Electron Energy =               -1634.3463230135578215
    Two-Electron Energy =                 671.8266261431159592
    Total Energy =                       -438.8105630958383472
  Basis Set: (AUG-CC-PVTZ AUX)
    Blend: AUG-CC-PVTZ-RI
    Molecular point group: c1

    Geometry (in Angstrom), charge = 0, multiplicity = 1:

       Center              X                  Y                   Z               Mass
    ------------   -----------------  -----------------  -----------------  -----------------
         O            2.669377925662    -0.700991238520    -0.012187680818    15.994914619570
         N            0.610415925662    -1.685112238520     0.006613319182    14.003074004430
         C           -0.671686074338     0.730850761480    -0.010177680818    12.000000000000
         C            0.709360925662     0.702671761480     0.003967319182    12.000000000000
         C           -1.382889074338    -0.401621338520     0.001432219182    12.000000000000
         C            1.436046925662    -0.561731238520    -0.004002680818    12.000000000000
         C           -0.755264074338    -1.671314238520     0.007160319182    12.000000000000
         C           -1.423193074338     2.037182761480    -0.004388680818    12.000000000000
         C            1.567419925662     1.938833761480     0.012165319182    12.000000000000
         C           -2.940050074338    -0.480454238520    -0.001944680818    12.000000000000
         H           -1.245534074338    -2.640756238520     0.016355319182     1.007825032230
         H           -2.202272074338     2.043190761480    -0.772828680818     1.007825032230
         H           -0.763856074338     2.885495761480    -0.188375680818     1.007825032230
         H           -1.919461074338     2.198375761480     0.959869319182     1.007825032230
         H            1.116669925662    -2.566583238520     0.005981319182     1.007825032230
         H            1.450146925662     2.516401761480    -0.910907680818     1.007825032230
         H            2.612265925662     1.638122761480     0.097234319182     1.007825032230
         H            1.320184925662     2.595382761480     0.851707319182     1.007825032230
         H           -3.325578074338    -1.502078238520     0.062877319182     1.007825032230
         H           -3.343322074338    -0.030833238520    -0.915593680818     1.007825032230
         H           -3.344883074338     0.082818761480     0.845075319182     1.007825032230

  Basis Set: AUG-CC-PVTZ
    Blend: AUG-CC-PVTZ
  Basis Set: (AUG-CC-PVTZ AUX)
    Blend: AUG-CC-PVTZ-JKFIT
	 Reference Energy          =    -438.8105630958383472 [Eh]
	 Singles Energy            =      -0.0000000000000000 [Eh]
	 Same-Spin Energy          =      -0.4728684885888936 [Eh]
	 Opposite-Spin Energy      =      -1.5022886745545208 [Eh]
	 Correlation Energy        =      -1.9751571631434144 [Eh]
	 Total Energy              =    -440.7857202589817689 [Eh]

	 ================> DF-SCS-MP2 Energies <==================
	-----------------------------------------------------------
	 SCS Same-Spin Scale       =       0.3333333333333333 [-]
	 SCS Opposite-Spin Scale   =       1.2000000000000000 [-]
	 SCS Same-Spin Energy      =      -0.1576228295296312 [Eh]
	 SCS Opposite-Spin Energy  =      -1.8027464094654249 [Eh]
	 SCS Correlation Energy    =      -1.9603692389950560 [Eh]
	 SCS Total Energy          =    -440.7709323348333896 [Eh]
	-----------------------------------------------------------

  Dipole Moment: [D]
     X:    -4.5627      Y:    -0.4136      Z:     0.0431     Total:     4.5816

*** Psi4 exiting successfully. Buy a developer a beer!
