                               Psi4 1.4a3.dev225

  ==> Input File <==

--------------------------------------------------------------------------
#psi4
#
memory 32 gb

molecule  {
0 1
  O        2.7382740    -0.7425350    -0.0126020
  N        0.6793120    -1.7266560     0.0061990
  C       -0.6027900     0.6893070    -0.0105920
  C        0.7782570     0.6611280     0.0035530
  C       -1.3671740    -0.5278470     0.0018860
  C        1.5049430    -0.6032750    -0.0044170
  C       -0.7281391    -1.7358962     0.0066858
  C       -1.3542970     1.9956390    -0.0048030
  C        1.6363160     1.8972900     0.0117510
  C       -2.8711540    -0.5219980    -0.0023590
  H       -1.1766380    -2.6823000     0.0159410
  H       -2.1333760     2.0016470    -0.7732430
  H       -0.6949600     2.8439520    -0.1887900
  H       -1.8505650     2.1568320     0.9594550
  H        1.1855660    -2.6081270     0.0055670
  H        1.5190430     2.4748580    -0.9113220
  H        2.6811620     1.5965790     0.0968200
  H        1.3890810     2.5538390     0.8512930
  H       -3.2566820    -1.5436220     0.0624630
  H       -3.2744260    -0.0723770    -0.9160080
  H       -3.2759870     0.0412750     0.8446610
units angstrom
no_reorient  #important for SAPT in psi4, default
symmetry c1  #important for SAPT in psi4, default
}

set PROPERTIES_ORIGIN ["COM"]
properties('MP2/aug-cc-pvtz', properties = ['dipole'])
--------------------------------------------------------------------------

    Molecular point group: c1
  Charge       = 0
  Multiplicity = 1
  Basis Set: AUG-CC-PVTZ
    Blend: AUG-CC-PVTZ
  Basis Set: (AUG-CC-PVTZ AUX)
    Blend: AUG-CC-PVTZ-JKFIT

    Orbital Energies [Eh]
    ---------------------

    Doubly Occupied:

       1A    -20.499954     2A    -15.611616     3A    -11.344016
       4A    -11.295303     5A    -11.270007     6A    -11.246488
       7A    -11.241264     8A    -11.237946     9A    -11.237152
      10A    -11.213867    11A     -1.359072    12A     -1.250834
      13A     -1.130919    14A     -1.064315    15A     -0.992221
      16A     -0.947830    17A     -0.933860    18A     -0.831547
      19A     -0.807409    20A     -0.717816    21A     -0.703762
      22A     -0.655498    23A     -0.619046    24A     -0.599963
      25A     -0.585319    26A     -0.580546    27A     -0.571579
      28A     -0.569750    29A     -0.562485    30A     -0.549777
      31A     -0.532544    32A     -0.504806    33A     -0.503055
      34A     -0.464627    35A     -0.415698    36A     -0.386995
      37A     -0.298576

  @DF-RHF Final Energy:  -438.82397748836405

   => Energetics <=

    Nuclear Repulsion Energy =            522.0267016074332105
    One-Electron Energy =               -1631.0264326297401567
    Two-Electron Energy =                 670.1757535339429523
    Total Energy =                       -438.8239774883641076
  Basis Set: (AUG-CC-PVTZ AUX)
    Blend: AUG-CC-PVTZ-RI
    Molecular point group: c1

    Geometry (in Angstrom), charge = 0, multiplicity = 1:

       Center              X                  Y                   Z               Mass
    ------------   -----------------  -----------------  -----------------  -----------------
         O            2.677689797712    -0.691561687320    -0.012258402386    15.994914619570
         N            0.618727797712    -1.675682687320     0.006542597614    14.003074004430
         C           -0.663374202288     0.740280312680    -0.010248402386    12.000000000000
         C            0.717672797712     0.712101312680     0.003896597614    12.000000000000
         C           -1.427758202288    -0.476873687320     0.002229597614    12.000000000000
         C            1.444358797712    -0.552301687320    -0.004073402386    12.000000000000
         C           -0.788723302288    -1.684922887320     0.007029397614    12.000000000000
         C           -1.414881202288     2.046612312680    -0.004459402386    12.000000000000
         C            1.575731797712     1.948263312680     0.012094597614    12.000000000000
         C           -2.931738202288    -0.471024687320    -0.002015402386    12.000000000000
         H           -1.237222202288    -2.631326687320     0.016284597614     1.007825032230
         H           -2.193960202288     2.052620312680    -0.772899402386     1.007825032230
         H           -0.755544202288     2.894925312680    -0.188446402386     1.007825032230
         H           -1.911149202288     2.207805312680     0.959798597614     1.007825032230
         H            1.124981797712    -2.557153687320     0.005910597614     1.007825032230
         H            1.458458797712     2.525831312680    -0.910978402386     1.007825032230
         H            2.620577797712     1.647552312680     0.097163597614     1.007825032230
         H            1.328496797712     2.604812312680     0.851636597614     1.007825032230
         H           -3.317266202288    -1.492648687320     0.062806597614     1.007825032230
         H           -3.335010202288    -0.021403687320    -0.915664402386     1.007825032230
         H           -3.336571202288     0.092248312680     0.845004597614     1.007825032230

  Basis Set: AUG-CC-PVTZ
    Blend: AUG-CC-PVTZ
  Basis Set: (AUG-CC-PVTZ AUX)
    Blend: AUG-CC-PVTZ-JKFIT
	 Reference Energy          =    -438.8239774883640507 [Eh]
	 Singles Energy            =      -0.0000000000000000 [Eh]
	 Same-Spin Energy          =      -0.4699215107906495 [Eh]
	 Opposite-Spin Energy      =      -1.4998227344719117 [Eh]
	 Correlation Energy        =      -1.9697442452625613 [Eh]
	 Total Energy              =    -440.7937217336266258 [Eh]

	 ================> DF-SCS-MP2 Energies <==================
	-----------------------------------------------------------
	 SCS Same-Spin Scale       =       0.3333333333333333 [-]
	 SCS Opposite-Spin Scale   =       1.2000000000000000 [-]
	 SCS Same-Spin Energy      =      -0.1566405035968832 [Eh]
	 SCS Opposite-Spin Energy  =      -1.7997872813662941 [Eh]
	 SCS Correlation Energy    =      -1.9564277849631773 [Eh]
	 SCS Total Energy          =    -440.7804052733272329 [Eh]
	-----------------------------------------------------------

  Dipole Moment: [D]
     X:    -4.5260      Y:    -0.2136      Z:     0.0412     Total:     4.5313

*** Psi4 exiting successfully. Buy a developer a beer!
