                               Psi4 1.4a3.dev225

  ==> Input File <==

--------------------------------------------------------------------------
#psi4
#
memory 32 gb

molecule  {
0 1
  O        2.7382740    -0.7425350    -0.0126020
  N        0.6793120    -1.7266560     0.0061990
  C       -0.6027900     0.6893070    -0.0105920
  C        0.7782570     0.6611280     0.0035530
  C       -1.4502120    -0.4715549     0.0027536
  C        1.5049430    -0.6032750    -0.0044170
  C       -0.6863680    -1.7128580     0.0067460
  C       -1.3542970     1.9956390    -0.0048030
  C        1.6363160     1.8972900     0.0117510
  C       -2.8711540    -0.5219980    -0.0023590
  H       -1.1766380    -2.6823000     0.0159410
  H       -2.1333760     2.0016470    -0.7732430
  H       -0.6949600     2.8439520    -0.1887900
  H       -1.8505650     2.1568320     0.9594550
  H        1.1855660    -2.6081270     0.0055670
  H        1.5190430     2.4748580    -0.9113220
  H        2.6811620     1.5965790     0.0968200
  H        1.3890810     2.5538390     0.8512930
  H       -3.2566820    -1.5436220     0.0624630
  H       -3.2744260    -0.0723770    -0.9160080
  H       -3.2759870     0.0412750     0.8446610
units angstrom
no_reorient  #important for SAPT in psi4, default
symmetry c1  #important for SAPT in psi4, default
}

set PROPERTIES_ORIGIN ["COM"]
properties('MP2/aug-cc-pvtz', properties = ['dipole'])
--------------------------------------------------------------------------

    Molecular point group: c1
  Charge       = 0
  Multiplicity = 1
  Basis Set: AUG-CC-PVTZ
    Blend: AUG-CC-PVTZ
  Basis Set: (AUG-CC-PVTZ AUX)
    Blend: AUG-CC-PVTZ-JKFIT

    Orbital Energies [Eh]
    ---------------------

    Doubly Occupied:

       1A    -20.499012     2A    -15.623411     3A    -11.343278
       4A    -11.311070     5A    -11.269284     6A    -11.250149
       7A    -11.236438     8A    -11.234756     9A    -11.234003
      10A    -11.212100    11A     -1.361680    12A     -1.263031
      13A     -1.134061    14A     -1.065960    15A     -0.990041
      16A     -0.949480    17A     -0.932595    18A     -0.829900
      19A     -0.807320    20A     -0.725914    21A     -0.706921
      22A     -0.644086    23A     -0.622337    24A     -0.601415
      25A     -0.596567    26A     -0.585525    27A     -0.574619
      28A     -0.571636    29A     -0.556410    30A     -0.549849
      31A     -0.532604    32A     -0.514058    33A     -0.488486
      34A     -0.464731    35A     -0.414337    36A     -0.385726
      37A     -0.284865

  @DF-RHF Final Energy:  -438.80924307445480

   => Energetics <=

    Nuclear Repulsion Energy =            522.1023382432217659
    One-Electron Energy =               -1631.0878588366456370
    Two-Electron Energy =                 670.1762775189690728
    Total Energy =                       -438.8092430744547983
  Basis Set: (AUG-CC-PVTZ AUX)
    Blend: AUG-CC-PVTZ-RI
    Molecular point group: c1

    Geometry (in Angstrom), charge = 0, multiplicity = 1:

       Center              X                  Y                   Z               Mass
    ------------   -----------------  -----------------  -----------------  -----------------
         O            2.681302200100    -0.698506065626    -0.012339619704    15.994914619570
         N            0.622340200100    -1.682627065626     0.006461380296    14.003074004430
         C           -0.659761799900     0.733335934374    -0.010329619704    12.000000000000
         C            0.721285200100     0.705156934374     0.003815380296    12.000000000000
         C           -1.507183799900    -0.427525965626     0.003015980296    12.000000000000
         C            1.447971200100    -0.559246065626    -0.004154619704    12.000000000000
         C           -0.743339799900    -1.668829065626     0.007008380296    12.000000000000
         C           -1.411268799900     2.039667934374    -0.004540619704    12.000000000000
         C            1.579344200100     1.941318934374     0.012013380296    12.000000000000
         C           -2.928125799900    -0.477969065626    -0.002096619704    12.000000000000
         H           -1.233609799900    -2.638271065626     0.016203380296     1.007825032230
         H           -2.190347799900     2.045675934374    -0.772980619704     1.007825032230
         H           -0.751931799900     2.887980934374    -0.188527619704     1.007825032230
         H           -1.907536799900     2.200860934374     0.959717380296     1.007825032230
         H            1.128594200100    -2.564098065626     0.005829380296     1.007825032230
         H            1.462071200100     2.518886934374    -0.911059619704     1.007825032230
         H            2.624190200100     1.640607934374     0.097082380296     1.007825032230
         H            1.332109200100     2.597867934374     0.851555380296     1.007825032230
         H           -3.313653799900    -1.499593065626     0.062725380296     1.007825032230
         H           -3.331397799900    -0.028348065626    -0.915745619704     1.007825032230
         H           -3.332958799900     0.085303934374     0.844923380296     1.007825032230

  Basis Set: AUG-CC-PVTZ
    Blend: AUG-CC-PVTZ
  Basis Set: (AUG-CC-PVTZ AUX)
    Blend: AUG-CC-PVTZ-JKFIT
	 Reference Energy          =    -438.8092430744547983 [Eh]
	 Singles Energy            =      -0.0000000000000000 [Eh]
	 Same-Spin Energy          =      -0.4726121212991238 [Eh]
	 Opposite-Spin Energy      =      -1.5024678308691242 [Eh]
	 Correlation Energy        =      -1.9750799521682478 [Eh]
	 Total Energy              =    -440.7843230266230421 [Eh]

	 ================> DF-SCS-MP2 Energies <==================
	-----------------------------------------------------------
	 SCS Same-Spin Scale       =       0.3333333333333333 [-]
	 SCS Opposite-Spin Scale   =       1.2000000000000000 [-]
	 SCS Same-Spin Energy      =      -0.1575373737663746 [Eh]
	 SCS Opposite-Spin Energy  =      -1.8029613970429490 [Eh]
	 SCS Correlation Energy    =      -1.9604987708093236 [Eh]
	 SCS Total Energy          =    -440.7697418452641500 [Eh]
	-----------------------------------------------------------

  Dipole Moment: [D]
     X:    -4.5688      Y:    -0.3833      Z:     0.0422     Total:     4.5850

*** Psi4 exiting successfully. Buy a developer a beer!
