                               Psi4 1.4a3.dev225

  ==> Input File <==

--------------------------------------------------------------------------
#psi4
#
memory 32 gb

molecule  {
0 1
  O        2.7382740    -0.7425350    -0.0126020
  N        0.6793120    -1.7266560     0.0061990
  C       -0.6027900     0.6893070    -0.0105920
  C        0.7782570     0.6611280     0.0035530
  C       -1.4902073    -0.4412697     0.0031632
  C        1.5049430    -0.6032750    -0.0044170
  C       -0.6863680    -1.7128580     0.0067460
  C       -1.3542970     1.9956390    -0.0048030
  C        1.6363160     1.8972900     0.0117510
  C       -2.8711540    -0.5219980    -0.0023590
  H       -1.1766380    -2.6823000     0.0159410
  H       -2.1333760     2.0016470    -0.7732430
  H       -0.6949600     2.8439520    -0.1887900
  H       -1.8505650     2.1568320     0.9594550
  H        1.1855660    -2.6081270     0.0055670
  H        1.5190430     2.4748580    -0.9113220
  H        2.6811620     1.5965790     0.0968200
  H        1.3890810     2.5538390     0.8512930
  H       -3.2566820    -1.5436220     0.0624630
  H       -3.2744260    -0.0723770    -0.9160080
  H       -3.2759870     0.0412750     0.8446610
units angstrom
no_reorient  #important for SAPT in psi4, default
symmetry c1  #important for SAPT in psi4, default
}

set PROPERTIES_ORIGIN ["COM"]
properties('MP2/aug-cc-pvtz', properties = ['dipole'])
--------------------------------------------------------------------------

    Molecular point group: c1
  Charge       = 0
  Multiplicity = 1
  Basis Set: AUG-CC-PVTZ
    Blend: AUG-CC-PVTZ
  Basis Set: (AUG-CC-PVTZ AUX)
    Blend: AUG-CC-PVTZ-JKFIT

    Orbital Energies [Eh]
    ---------------------

    Doubly Occupied:

       1A    -20.498295     2A    -15.627146     3A    -11.342707
       4A    -11.317414     5A    -11.269533     6A    -11.253738
       7A    -11.235274     8A    -11.233597     9A    -11.232561
      10A    -11.211639    11A     -1.361608    12A     -1.263343
      13A     -1.136194    14A     -1.069509    15A     -0.990533
      16A     -0.948491    17A     -0.931793    18A     -0.830265
      19A     -0.805555    20A     -0.725767    21A     -0.707599
      22A     -0.645004    23A     -0.623968    24A     -0.609471
      25A     -0.596290    26A     -0.587568    27A     -0.575705
      28A     -0.571915    29A     -0.554030    30A     -0.549536
      31A     -0.532408    32A     -0.516155    33A     -0.480246
      34A     -0.463281    35A     -0.413362    36A     -0.384599
      37A     -0.279403

  @DF-RHF Final Energy:  -438.79046996943828

   => Energetics <=

    Nuclear Repulsion Energy =            521.8174337181325200
    One-Electron Energy =               -1630.4648012561497126
    Two-Electron Energy =                 669.8568975685788018
    Total Energy =                       -438.7904699694382771
  Basis Set: (AUG-CC-PVTZ AUX)
    Blend: AUG-CC-PVTZ-RI
    Molecular point group: c1

    Geometry (in Angstrom), charge = 0, multiplicity = 1:

       Center              X                  Y                   Z               Mass
    ------------   -----------------  -----------------  -----------------  -----------------
         O            2.684803289768    -0.701157157150    -0.012375475075    15.994914619570
         N            0.625841289768    -1.685278157150     0.006425524925    14.003074004430
         C           -0.656260710232     0.730684842850    -0.010365475075    12.000000000000
         C            0.724786289768     0.702505842850     0.003779524925    12.000000000000
         C           -1.543678010232    -0.399891857150     0.003389724925    12.000000000000
         C            1.451472289768    -0.561897157150    -0.004190475075    12.000000000000
         C           -0.739838710232    -1.671480157150     0.006972524925    12.000000000000
         C           -1.407767710232     2.037016842850    -0.004576475075    12.000000000000
         C            1.582845289768     1.938667842850     0.011977524925    12.000000000000
         C           -2.924624710232    -0.480620157150    -0.002132475075    12.000000000000
         H           -1.230108710232    -2.640922157150     0.016167524925     1.007825032230
         H           -2.186846710232     2.043024842850    -0.773016475075     1.007825032230
         H           -0.748430710232     2.885329842850    -0.188563475075     1.007825032230
         H           -1.904035710232     2.198209842850     0.959681524925     1.007825032230
         H            1.132095289768    -2.566749157150     0.005793524925     1.007825032230
         H            1.465572289768     2.516235842850    -0.911095475075     1.007825032230
         H            2.627691289768     1.637956842850     0.097046524925     1.007825032230
         H            1.335610289768     2.595216842850     0.851519524925     1.007825032230
         H           -3.310152710232    -1.502244157150     0.062689524925     1.007825032230
         H           -3.327896710232    -0.030999157150    -0.915781475075     1.007825032230
         H           -3.329457710232     0.082652842850     0.844887524925     1.007825032230

  Basis Set: AUG-CC-PVTZ
    Blend: AUG-CC-PVTZ
  Basis Set: (AUG-CC-PVTZ AUX)
    Blend: AUG-CC-PVTZ-JKFIT
	 Reference Energy          =    -438.7904699694382771 [Eh]
	 Singles Energy            =      -0.0000000000000000 [Eh]
	 Same-Spin Energy          =      -0.4741387963341506 [Eh]
	 Opposite-Spin Energy      =      -1.5046309431577769 [Eh]
	 Correlation Energy        =      -1.9787697394919275 [Eh]
	 Total Energy              =    -440.7692397089302290 [Eh]

	 ================> DF-SCS-MP2 Energies <==================
	-----------------------------------------------------------
	 SCS Same-Spin Scale       =       0.3333333333333333 [-]
	 SCS Opposite-Spin Scale   =       1.2000000000000000 [-]
	 SCS Same-Spin Energy      =      -0.1580462654447168 [Eh]
	 SCS Opposite-Spin Energy  =      -1.8055571317893322 [Eh]
	 SCS Correlation Energy    =      -1.9636033972340490 [Eh]
	 SCS Total Energy          =    -440.7540733666723440 [Eh]
	-----------------------------------------------------------

  Dipole Moment: [D]
     X:    -4.6390      Y:    -0.4110      Z:     0.0425     Total:     4.6574

*** Psi4 exiting successfully. Buy a developer a beer!
