                               Psi4 1.4a3.dev225

  ==> Input File <==

--------------------------------------------------------------------------
#psi4
#
memory 32 gb

molecule  {
0 1
  O        2.7382740    -0.7425350    -0.0126020
  N        0.6793120    -1.7266560     0.0061990
  C       -0.6027900     0.6893070    -0.0105920
  C        0.7782570     0.6611280     0.0035530
  C       -1.3671740    -0.5278470     0.0018860
  C        1.5049430    -0.6032750    -0.0044170
  C       -0.6863680    -1.7128580     0.0067460
  C       -1.3542970     1.9956390    -0.0048030
  C        1.6363160     1.8972900     0.0117510
  C       -2.8711540    -0.5219980    -0.0023590
  H       -1.1766380    -2.6823000     0.0159410
  H       -2.1476148     2.0017568    -0.7872874
  H       -0.6949600     2.8439520    -0.1887900
  H       -1.8505650     2.1568320     0.9594550
  H        1.1855660    -2.6081270     0.0055670
  H        1.5190430     2.4748580    -0.9113220
  H        2.6811620     1.5965790     0.0968200
  H        1.3890810     2.5538390     0.8512930
  H       -3.2566820    -1.5436220     0.0624630
  H       -3.2744260    -0.0723770    -0.9160080
  H       -3.2759870     0.0412750     0.8446610
units angstrom
no_reorient  #important for SAPT in psi4, default
symmetry c1  #important for SAPT in psi4, default
}

set PROPERTIES_ORIGIN ["COM"]
properties('MP2/aug-cc-pvtz', properties = ['dipole'])
--------------------------------------------------------------------------

    Molecular point group: c1
  Charge       = 0
  Multiplicity = 1
  Basis Set: AUG-CC-PVTZ
    Blend: AUG-CC-PVTZ
  Basis Set: (AUG-CC-PVTZ AUX)
    Blend: AUG-CC-PVTZ-JKFIT

    Orbital Energies [Eh]
    ---------------------

    Doubly Occupied:

       1A    -20.500293     2A    -15.615799     3A    -11.344216
       4A    -11.296806     5A    -11.269446     6A    -11.243031
       7A    -11.239374     8A    -11.238628     9A    -11.237198
      10A    -11.212927    11A     -1.361826    12A     -1.263206
      13A     -1.131445    14A     -1.062061    15A     -0.990098
      16A     -0.948806    17A     -0.933852    18A     -0.829795
      19A     -0.809668    20A     -0.726222    21A     -0.705446
      22A     -0.645443    23A     -0.620328    24A     -0.598020
      25A     -0.586186    26A     -0.581986    27A     -0.570812
      28A     -0.569319    29A     -0.560933    30A     -0.549844
      31A     -0.533010    32A     -0.505823    33A     -0.499563
      34A     -0.468640    35A     -0.415760    36A     -0.387848
      37A     -0.295663

  @DF-RHF Final Energy:  -438.82714194053347

   => Energetics <=

    Nuclear Repulsion Energy =            522.7298235967615483
    One-Electron Energy =               -1632.4152851200215082
    Two-Electron Energy =                 670.8583195827266081
    Total Energy =                       -438.8271419405334655
  Basis Set: (AUG-CC-PVTZ AUX)
    Blend: AUG-CC-PVTZ-RI
    Molecular point group: c1

    Geometry (in Angstrom), charge = 0, multiplicity = 1:

       Center              X                  Y                   Z               Mass
    ------------   -----------------  -----------------  -----------------  -----------------
         O            2.674137940795    -0.693579201619    -0.012160419459    15.994914619570
         N            0.615175940795    -1.677700201619     0.006640580541    14.003074004430
         C           -0.666926059205     0.738262798381    -0.010150419459    12.000000000000
         C            0.714120940795     0.710083798381     0.003994580541    12.000000000000
         C           -1.431310059205    -0.478891201619     0.002327580541    12.000000000000
         C            1.440806940795    -0.554319201619    -0.003975419459    12.000000000000
         C           -0.750504059205    -1.663902201619     0.007187580541    12.000000000000
         C           -1.418433059205     2.044594798381    -0.004361419459    12.000000000000
         C            1.572179940795     1.946245798381     0.012192580541    12.000000000000
         C           -2.935290059205    -0.473042201619    -0.001917419459    12.000000000000
         H           -1.240774059205    -2.633344201619     0.016382580541     1.007825032230
         H           -2.211750859205     2.050712598381    -0.786845819459     1.007825032230
         H           -0.759096059205     2.892907798381    -0.188348419459     1.007825032230
         H           -1.914701059205     2.205787798381     0.959896580541     1.007825032230
         H            1.121429940795    -2.559171201619     0.006008580541     1.007825032230
         H            1.454906940795     2.523813798381    -0.910880419459     1.007825032230
         H            2.617025940795     1.645534798381     0.097261580541     1.007825032230
         H            1.324944940795     2.602794798381     0.851734580541     1.007825032230
         H           -3.320818059205    -1.494666201619     0.062904580541     1.007825032230
         H           -3.338562059205    -0.023421201619    -0.915566419459     1.007825032230
         H           -3.340123059205     0.090230798381     0.845102580541     1.007825032230

  Basis Set: AUG-CC-PVTZ
    Blend: AUG-CC-PVTZ
  Basis Set: (AUG-CC-PVTZ AUX)
    Blend: AUG-CC-PVTZ-JKFIT
	 Reference Energy          =    -438.8271419405334655 [Eh]
	 Singles Energy            =      -0.0000000000000000 [Eh]
	 Same-Spin Energy          =      -0.4701666874557682 [Eh]
	 Opposite-Spin Energy      =      -1.4993104507557975 [Eh]
	 Correlation Energy        =      -1.9694771382115657 [Eh]
	 Total Energy              =    -440.7966190787450387 [Eh]

	 ================> DF-SCS-MP2 Energies <==================
	-----------------------------------------------------------
	 SCS Same-Spin Scale       =       0.3333333333333333 [-]
	 SCS Opposite-Spin Scale   =       1.2000000000000000 [-]
	 SCS Same-Spin Energy      =      -0.1567222291519227 [Eh]
	 SCS Opposite-Spin Energy  =      -1.7991725409069570 [Eh]
	 SCS Correlation Energy    =      -1.9558947700588798 [Eh]
	 SCS Total Energy          =    -440.7830367105923415 [Eh]
	-----------------------------------------------------------

  Dipole Moment: [D]
     X:    -4.4544      Y:    -0.2964      Z:     0.0469     Total:     4.4645

*** Psi4 exiting successfully. Buy a developer a beer!
