                               Psi4 1.4a3.dev225

  ==> Input File <==

--------------------------------------------------------------------------
#psi4
#
memory 32 gb

molecule  {
0 1
  O        2.7382740    -0.7425350    -0.0126020
  N        0.6793120    -1.7266560     0.0061990
  C       -0.6027900     0.6893070    -0.0105920
  C        0.7782570     0.6611280     0.0035530
  C       -1.3671740    -0.5278470     0.0018860
  C        1.5049430    -0.6032750    -0.0044170
  C       -0.6053640    -1.6624801     0.0068487
  C       -1.3542970     1.9956390    -0.0048030
  C        1.6363160     1.8972900     0.0117510
  C       -2.8711540    -0.5219980    -0.0023590
  H       -1.1766380    -2.6823000     0.0159410
  H       -2.1333760     2.0016470    -0.7732430
  H       -0.6949600     2.8439520    -0.1887900
  H       -1.8505650     2.1568320     0.9594550
  H        1.1855660    -2.6081270     0.0055670
  H        1.5190430     2.4748580    -0.9113220
  H        2.6811620     1.5965790     0.0968200
  H        1.3890810     2.5538390     0.8512930
  H       -3.2566820    -1.5436220     0.0624630
  H       -3.2744260    -0.0723770    -0.9160080
  H       -3.2759870     0.0412750     0.8446610
units angstrom
no_reorient  #important for SAPT in psi4, default
symmetry c1  #important for SAPT in psi4, default
}

set PROPERTIES_ORIGIN ["COM"]
properties('MP2/aug-cc-pvtz', properties = ['dipole'])
--------------------------------------------------------------------------

    Molecular point group: c1
  Charge       = 0
  Multiplicity = 1
  Basis Set: AUG-CC-PVTZ
    Blend: AUG-CC-PVTZ
  Basis Set: (AUG-CC-PVTZ AUX)
    Blend: AUG-CC-PVTZ-JKFIT

    Orbital Energies [Eh]
    ---------------------

    Doubly Occupied:

       1A    -20.501048     2A    -15.623524     3A    -11.344356
       4A    -11.300775     5A    -11.268040     6A    -11.237982
       7A    -11.237078     8A    -11.235226     9A    -11.233172
      10A    -11.210941    11A     -1.370258    12A     -1.288818
      13A     -1.133004    14A     -1.057847    15A     -0.989541
      16A     -0.951469    17A     -0.935611    18A     -0.830640
      19A     -0.817704    20A     -0.741413    21A     -0.707763
      22A     -0.630675    23A     -0.627334    24A     -0.591088
      25A     -0.587714    26A     -0.587230    27A     -0.571179
      28A     -0.567822    29A     -0.557653    30A     -0.550607
      31A     -0.535812    32A     -0.506681    33A     -0.490868
      34A     -0.476505    35A     -0.414982    36A     -0.389567
      37A     -0.290173

  @DF-RHF Final Energy:  -438.81705662406921

   => Energetics <=

    Nuclear Repulsion Energy =            524.5259379069424313
    One-Electron Energy =               -1635.9017892871722779
    Two-Electron Energy =                 672.5587947561607507
    Total Energy =                       -438.8170566240692096
  Basis Set: (AUG-CC-PVTZ AUX)
    Blend: AUG-CC-PVTZ-RI
    Molecular point group: c1

    Geometry (in Angstrom), charge = 0, multiplicity = 1:

       Center              X                  Y                   Z               Mass
    ------------   -----------------  -----------------  -----------------  -----------------
         O            2.666942369038    -0.697988351182    -0.012272662250    15.994914619570
         N            0.607980369038    -1.682109351182     0.006528337750    14.003074004430
         C           -0.674121630962     0.733853648818    -0.010262662250    12.000000000000
         C            0.706925369038     0.705674648818     0.003882337750    12.000000000000
         C           -1.438505630962    -0.483300351182     0.002215337750    12.000000000000
         C            1.433611369038    -0.558728351182    -0.004087662250    12.000000000000
         C           -0.676695630962    -1.617933451182     0.007178037750    12.000000000000
         C           -1.425628630962     2.040185648818    -0.004473662250    12.000000000000
         C            1.564984369038     1.941836648818     0.012080337750    12.000000000000
         C           -2.942485630962    -0.477451351182    -0.002029662250    12.000000000000
         H           -1.247969630962    -2.637753351182     0.016270337750     1.007825032230
         H           -2.204707630962     2.046193648818    -0.772913662250     1.007825032230
         H           -0.766291630962     2.888498648818    -0.188460662250     1.007825032230
         H           -1.921896630962     2.201378648818     0.959784337750     1.007825032230
         H            1.114234369038    -2.563580351182     0.005896337750     1.007825032230
         H            1.447711369038     2.519404648818    -0.910992662250     1.007825032230
         H            2.609830369038     1.641125648818     0.097149337750     1.007825032230
         H            1.317749369038     2.598385648818     0.851622337750     1.007825032230
         H           -3.328013630962    -1.499075351182     0.062792337750     1.007825032230
         H           -3.345757630962    -0.027830351182    -0.915678662250     1.007825032230
         H           -3.347318630962     0.085821648818     0.844990337750     1.007825032230

  Basis Set: AUG-CC-PVTZ
    Blend: AUG-CC-PVTZ
  Basis Set: (AUG-CC-PVTZ AUX)
    Blend: AUG-CC-PVTZ-JKFIT
	 Reference Energy          =    -438.8170566240692096 [Eh]
	 Singles Energy            =      -0.0000000000000000 [Eh]
	 Same-Spin Energy          =      -0.4708489706223686 [Eh]
	 Opposite-Spin Energy      =      -1.4987063397378071 [Eh]
	 Correlation Energy        =      -1.9695553103601757 [Eh]
	 Total Energy              =    -440.7866119344294020 [Eh]

	 ================> DF-SCS-MP2 Energies <==================
	-----------------------------------------------------------
	 SCS Same-Spin Scale       =       0.3333333333333333 [-]
	 SCS Opposite-Spin Scale   =       1.2000000000000000 [-]
	 SCS Same-Spin Energy      =      -0.1569496568741229 [Eh]
	 SCS Opposite-Spin Energy  =      -1.7984476076853684 [Eh]
	 SCS Correlation Energy    =      -1.9553972645594913 [Eh]
	 SCS Total Energy          =    -440.7724538886287178 [Eh]
	-----------------------------------------------------------

  Dipole Moment: [D]
     X:    -4.3323      Y:    -0.4327      Z:     0.0426     Total:     4.3541

*** Psi4 exiting successfully. Buy a developer a beer!
