                               Psi4 1.4a3.dev225

  ==> Input File <==

--------------------------------------------------------------------------
#psi4
#
memory 32 gb

molecule  {
0 1
  O        2.7382740    -0.7425350    -0.0126020
  N        0.6793120    -1.7266560     0.0061990
  C       -0.6027900     0.6893070    -0.0105920
  C        0.7782570     0.6611280     0.0035530
  C       -1.3671740    -0.5278470     0.0018860
  C        1.5049430    -0.6032750    -0.0044170
  C       -0.6863680    -1.7128580     0.0067460
  C       -1.3542970     1.9956390    -0.0048030
  C        1.6363160     1.8972900     0.0117510
  C       -2.8711540    -0.5219980    -0.0023590
  H       -1.1766380    -2.6823000     0.0159410
  H       -2.1333760     2.0016470    -0.7732430
  H       -0.6949600     2.8439520    -0.1887900
  H       -1.8505650     2.1568320     0.9594550
  H        1.1855660    -2.6081270     0.0055670
  H        1.5190430     2.4748580    -0.9113220
  H        2.7290652     1.5827923     0.1007202
  H        1.3890810     2.5538390     0.8512930
  H       -3.2566820    -1.5436220     0.0624630
  H       -3.2744260    -0.0723770    -0.9160080
  H       -3.2759870     0.0412750     0.8446610
units angstrom
no_reorient  #important for SAPT in psi4, default
symmetry c1  #important for SAPT in psi4, default
}

set PROPERTIES_ORIGIN ["COM"]
properties('MP2/aug-cc-pvtz', properties = ['dipole'])
--------------------------------------------------------------------------

    Molecular point group: c1
  Charge       = 0
  Multiplicity = 1
  Basis Set: AUG-CC-PVTZ
    Blend: AUG-CC-PVTZ
  Basis Set: (AUG-CC-PVTZ AUX)
    Blend: AUG-CC-PVTZ-JKFIT

    Orbital Energies [Eh]
    ---------------------

    Doubly Occupied:

       1A    -20.500219     2A    -15.615844     3A    -11.344193
       4A    -11.296886     5A    -11.269496     6A    -11.243124
       7A    -11.238835     8A    -11.237361     9A    -11.237168
      10A    -11.217907    11A     -1.361802    12A     -1.263237
      13A     -1.131584    14A     -1.061650    15A     -0.990366
      16A     -0.948875    17A     -0.931681    18A     -0.830285
      19A     -0.808642    20A     -0.725947    21A     -0.705318
      22A     -0.645472    23A     -0.620830    24A     -0.597904
      25A     -0.586174    26A     -0.582495    27A     -0.571390
      28A     -0.567662    29A     -0.561529    30A     -0.550363
      31A     -0.531834    32A     -0.499717    33A     -0.499239
      34A     -0.468630    35A     -0.415439    36A     -0.388050
      37A     -0.295730

  @DF-RHF Final Energy:  -438.82534889890911

   => Energetics <=

    Nuclear Repulsion Energy =            522.6136168379528044
    One-Electron Energy =               -1632.1921830973426495
    Two-Electron Energy =                 670.7532173604806758
    Total Energy =                       -438.8253488989091693
  Basis Set: (AUG-CC-PVTZ AUX)
    Blend: AUG-CC-PVTZ-RI
    Molecular point group: c1

    Geometry (in Angstrom), charge = 0, multiplicity = 1:

       Center              X                  Y                   Z               Mass
    ------------   -----------------  -----------------  -----------------  -----------------
         O            2.673681080520    -0.693477036275    -0.012292345932    15.994914619570
         N            0.614719080520    -1.677598036275     0.006508654068    14.003074004430
         C           -0.667382919480     0.738364963725    -0.010282345932    12.000000000000
         C            0.713664080520     0.710185963725     0.003862654068    12.000000000000
         C           -1.431766919480    -0.478789036275     0.002195654068    12.000000000000
         C            1.440350080520    -0.554217036275    -0.004107345932    12.000000000000
         C           -0.750960919480    -1.663800036275     0.007055654068    12.000000000000
         C           -1.418889919480     2.044696963725    -0.004493345932    12.000000000000
         C            1.571723080520     1.946347963725     0.012060654068    12.000000000000
         C           -2.935746919480    -0.472940036275    -0.002049345932    12.000000000000
         H           -1.241230919480    -2.633242036275     0.016250654068     1.007825032230
         H           -2.197968919480     2.050704963725    -0.772933345932     1.007825032230
         H           -0.759552919480     2.893009963725    -0.188480345932     1.007825032230
         H           -1.915157919480     2.205889963725     0.959764654068     1.007825032230
         H            1.120973080520    -2.559069036275     0.005876654068     1.007825032230
         H            1.454450080520     2.523915963725    -0.911012345932     1.007825032230
         H            2.664472280520     1.631850263725     0.101029854068     1.007825032230
         H            1.324488080520     2.602896963725     0.851602654068     1.007825032230
         H           -3.321274919480    -1.494564036275     0.062772654068     1.007825032230
         H           -3.339018919480    -0.023319036275    -0.915698345932     1.007825032230
         H           -3.340579919480     0.090332963725     0.844970654068     1.007825032230

  Basis Set: AUG-CC-PVTZ
    Blend: AUG-CC-PVTZ
  Basis Set: (AUG-CC-PVTZ AUX)
    Blend: AUG-CC-PVTZ-JKFIT
	 Reference Energy          =    -438.8253488989091124 [Eh]
	 Singles Energy            =      -0.0000000000000000 [Eh]
	 Same-Spin Energy          =      -0.4702658442601150 [Eh]
	 Opposite-Spin Energy      =      -1.4996447644414805 [Eh]
	 Correlation Energy        =      -1.9699106087015954 [Eh]
	 Total Energy              =    -440.7952595076106945 [Eh]

	 ================> DF-SCS-MP2 Energies <==================
	-----------------------------------------------------------
	 SCS Same-Spin Scale       =       0.3333333333333333 [-]
	 SCS Opposite-Spin Scale   =       1.2000000000000000 [-]
	 SCS Same-Spin Energy      =      -0.1567552814200383 [Eh]
	 SCS Opposite-Spin Energy  =      -1.7995737173297766 [Eh]
	 SCS Correlation Energy    =      -1.9563289987498149 [Eh]
	 SCS Total Energy          =    -440.7816778976589376 [Eh]
	-----------------------------------------------------------

  Dipole Moment: [D]
     X:    -4.4711      Y:    -0.3114      Z:     0.0406     Total:     4.4821

*** Psi4 exiting successfully. Buy a developer a beer!
