                               Psi4 1.4a3.dev225

  ==> Input File <==

--------------------------------------------------------------------------
#psi4
#
memory 32 gb

molecule  {
0 1
  O        2.7382740    -0.7425350    -0.0126020
  N        0.6793120    -1.7266560     0.0061990
  C       -0.6027900     0.6893070    -0.0105920
  C        0.7782570     0.6611280     0.0035530
  C       -1.3671740    -0.5278470     0.0018860
  C        1.5049430    -0.6032750    -0.0044170
  C       -0.6863680    -1.7128580     0.0067460
  C       -1.3542970     1.9956390    -0.0048030
  C        1.6363160     1.8972900     0.0117510
  C       -2.8711540    -0.5219980    -0.0023590
  H       -1.1766380    -2.6823000     0.0159410
  H       -2.1689730     2.0019215    -0.8083539
  H       -0.6949600     2.8439520    -0.1887900
  H       -1.8505650     2.1568320     0.9594550
  H        1.1855660    -2.6081270     0.0055670
  H        1.5190430     2.4748580    -0.9113220
  H        2.6811620     1.5965790     0.0968200
  H        1.3890810     2.5538390     0.8512930
  H       -3.2566820    -1.5436220     0.0624630
  H       -3.2744260    -0.0723770    -0.9160080
  H       -3.2759870     0.0412750     0.8446610
units angstrom
no_reorient  #important for SAPT in psi4, default
symmetry c1  #important for SAPT in psi4, default
}

set PROPERTIES_ORIGIN ["COM"]
properties('MP2/aug-cc-pvtz', properties = ['dipole'])
--------------------------------------------------------------------------

    Molecular point group: c1
  Charge       = 0
  Multiplicity = 1
  Basis Set: AUG-CC-PVTZ
    Blend: AUG-CC-PVTZ
  Basis Set: (AUG-CC-PVTZ AUX)
    Blend: AUG-CC-PVTZ-JKFIT

    Orbital Energies [Eh]
    ---------------------

    Doubly Occupied:

       1A    -20.500405     2A    -15.615878     3A    -11.344347
       4A    -11.296844     5A    -11.269724     6A    -11.243078
       7A    -11.242875     8A    -11.238847     9A    -11.237089
      10A    -11.213087    11A     -1.361931    12A     -1.263287
      13A     -1.131358    14A     -1.062133    15A     -0.988643
      16A     -0.948767    17A     -0.933599    18A     -0.829105
      19A     -0.809577    20A     -0.726261    21A     -0.705400
      22A     -0.645476    23A     -0.619854    24A     -0.597848
      25A     -0.586133    26A     -0.581446    27A     -0.570077
      28A     -0.569344    29A     -0.559887    30A     -0.549157
      31A     -0.531472    32A     -0.505826    33A     -0.499678
      34A     -0.468709    35A     -0.415867    36A     -0.387784
      37A     -0.295736

  @DF-RHF Final Energy:  -438.82552011844029

   => Energetics <=

    Nuclear Repulsion Energy =            522.6012950707997788
    One-Electron Energy =               -1632.1605720974635005
    Two-Electron Energy =                 670.7337569082234268
    Total Energy =                       -438.8255201184402949
  Basis Set: (AUG-CC-PVTZ AUX)
    Blend: AUG-CC-PVTZ-RI
    Molecular point group: c1

    Geometry (in Angstrom), charge = 0, multiplicity = 1:

       Center              X                  Y                   Z               Mass
    ------------   -----------------  -----------------  -----------------  -----------------
         O            2.674294963632    -0.693580412473    -0.012005541164    15.994914619570
         N            0.615332963632    -1.677701412473     0.006795458836    14.003074004430
         C           -0.666769036368     0.738261587527    -0.009995541164    12.000000000000
         C            0.714277963632     0.710082587527     0.004149458836    12.000000000000
         C           -1.431153036368    -0.478892412473     0.002482458836    12.000000000000
         C            1.440963963632    -0.554320412473    -0.003820541164    12.000000000000
         C           -0.750347036368    -1.663903412473     0.007342458836    12.000000000000
         C           -1.418276036368     2.044593587527    -0.004206541164    12.000000000000
         C            1.572336963632     1.946244587527     0.012347458836    12.000000000000
         C           -2.935133036368    -0.473043412473    -0.001762541164    12.000000000000
         H           -1.240617036368    -2.633345412473     0.016537458836     1.007825032230
         H           -2.232952036368     2.050876087527    -0.807757441164     1.007825032230
         H           -0.758939036368     2.892906587527    -0.188193541164     1.007825032230
         H           -1.914544036368     2.205786587527     0.960051458836     1.007825032230
         H            1.121586963632    -2.559172412473     0.006163458836     1.007825032230
         H            1.455063963632     2.523812587527    -0.910725541164     1.007825032230
         H            2.617182963632     1.645533587527     0.097416458836     1.007825032230
         H            1.325101963632     2.602793587527     0.851889458836     1.007825032230
         H           -3.320661036368    -1.494667412473     0.063059458836     1.007825032230
         H           -3.338405036368    -0.023422412473    -0.915411541164     1.007825032230
         H           -3.339966036368     0.090229587527     0.845257458836     1.007825032230

  Basis Set: AUG-CC-PVTZ
    Blend: AUG-CC-PVTZ
  Basis Set: (AUG-CC-PVTZ AUX)
    Blend: AUG-CC-PVTZ-JKFIT
	 Reference Energy          =    -438.8255201184402949 [Eh]
	 Singles Energy            =      -0.0000000000000000 [Eh]
	 Same-Spin Energy          =      -0.4701944256221969 [Eh]
	 Opposite-Spin Energy      =      -1.4995473680903808 [Eh]
	 Correlation Energy        =      -1.9697417937125776 [Eh]
	 Total Energy              =    -440.7952619121528528 [Eh]

	 ================> DF-SCS-MP2 Energies <==================
	-----------------------------------------------------------
	 SCS Same-Spin Scale       =       0.3333333333333333 [-]
	 SCS Opposite-Spin Scale   =       1.2000000000000000 [-]
	 SCS Same-Spin Energy      =      -0.1567314752073989 [Eh]
	 SCS Opposite-Spin Energy  =      -1.7994568417084569 [Eh]
	 SCS Correlation Energy    =      -1.9561883169158558 [Eh]
	 SCS Total Energy          =    -440.7817084353561654 [Eh]
	-----------------------------------------------------------

  Dipole Moment: [D]
     X:    -4.4412      Y:    -0.3020      Z:     0.0554     Total:     4.4518

*** Psi4 exiting successfully. Buy a developer a beer!
