                               Psi4 1.4a3.dev225

  ==> Input File <==

--------------------------------------------------------------------------
#psi4
#
memory 32 gb

molecule  {
0 1
  O        2.7382740    -0.7425350    -0.0126020
  N        0.6793120    -1.7266560     0.0061990
  C       -0.6027900     0.6893070    -0.0105920
  C        0.7782570     0.6611280     0.0035530
  C       -1.3671740    -0.5278470     0.0018860
  C        1.5049430    -0.6032750    -0.0044170
  C       -0.6863680    -1.7128580     0.0067460
  C       -1.3542970     1.9956390    -0.0048030
  C        1.6363160     1.8972900     0.0117510
  C       -2.8711540    -0.5219980    -0.0023590
  H       -1.1766380    -2.6823000     0.0159410
  H       -2.1333760     2.0016470    -0.7732430
  H       -0.6949600     2.8439520    -0.1887900
  H       -1.8505650     2.1568320     0.9594550
  H        1.1855660    -2.6081270     0.0055670
  H        1.5190430     2.4748580    -0.9113220
  H        2.6811620     1.5965790     0.0968200
  H        1.3890810     2.5538390     0.8512930
  H       -3.2566820    -1.5436220     0.0624630
  H       -3.2744260    -0.0723770    -0.9160080
  H       -3.3499419     0.1441738     0.9993947
units angstrom
no_reorient  #important for SAPT in psi4, default
symmetry c1  #important for SAPT in psi4, default
}

set PROPERTIES_ORIGIN ["COM"]
properties('MP2/aug-cc-pvtz', properties = ['dipole'])
--------------------------------------------------------------------------

    Molecular point group: c1
  Charge       = 0
  Multiplicity = 1
  Basis Set: AUG-CC-PVTZ
    Blend: AUG-CC-PVTZ
  Basis Set: (AUG-CC-PVTZ AUX)
    Blend: AUG-CC-PVTZ-JKFIT

    Orbital Energies [Eh]
    ---------------------

    Doubly Occupied:

       1A    -20.501384     2A    -15.617252     3A    -11.345239
       4A    -11.299113     5A    -11.270000     6A    -11.259957
       7A    -11.245357     8A    -11.239209     9A    -11.236430
      10A    -11.213230    11A     -1.362905    12A     -1.264594
      13A     -1.131777    14A     -1.061418    15A     -0.991191
      16A     -0.939810    17A     -0.934206    18A     -0.831039
      19A     -0.808265    20A     -0.725954    21A     -0.706343
      22A     -0.646417    23A     -0.618867    24A     -0.599198
      25A     -0.587433    26A     -0.580682    27A     -0.571333
      28A     -0.563421    29A     -0.557450    30A     -0.545929
      31A     -0.519327    32A     -0.505758    33A     -0.499927
      34A     -0.467652    35A     -0.416719    36A     -0.387752
      37A     -0.296299

  @DF-RHF Final Energy:  -438.80790888319871

   => Energetics <=

    Nuclear Repulsion Energy =            522.0384849382458015
    One-Electron Energy =               -1630.9951173370852757
    Two-Electron Energy =                 670.1487235156407678
    Total Energy =                       -438.8079088831987065
  Basis Set: (AUG-CC-PVTZ AUX)
    Blend: AUG-CC-PVTZ-RI
    Molecular point group: c1

    Geometry (in Angstrom), charge = 0, multiplicity = 1:

       Center              X                  Y                   Z               Mass
    ------------   -----------------  -----------------  -----------------  -----------------
         O            2.674576966154    -0.694334893595    -0.013401255112    15.994914619570
         N            0.615614966154    -1.678455893595     0.005399744888    14.003074004430
         C           -0.666487033846     0.737507106405    -0.011391255112    12.000000000000
         C            0.714559966154     0.709328106405     0.002753744888    12.000000000000
         C           -1.430871033846    -0.479646893595     0.001086744888    12.000000000000
         C            1.441245966154    -0.555074893595    -0.005216255112    12.000000000000
         C           -0.750065033846    -1.664657893595     0.005946744888    12.000000000000
         C           -1.417994033846     2.043839106405    -0.005602255112    12.000000000000
         C            1.572618966154     1.945490106405     0.010951744888    12.000000000000
         C           -2.934851033846    -0.473797893595    -0.003158255112    12.000000000000
         H           -1.240335033846    -2.634099893595     0.015141744888     1.007825032230
         H           -2.197073033846     2.049847106405    -0.774042255112     1.007825032230
         H           -0.758657033846     2.892152106405    -0.189589255112     1.007825032230
         H           -1.914262033846     2.205032106405     0.958655744888     1.007825032230
         H            1.121868966154    -2.559926893595     0.004767744888     1.007825032230
         H            1.455345966154     2.523058106405    -0.912121255112     1.007825032230
         H            2.617464966154     1.644779106405     0.096020744888     1.007825032230
         H            1.325383966154     2.602039106405     0.850493744888     1.007825032230
         H           -3.320379033846    -1.495421893595     0.061663744888     1.007825032230
         H           -3.338123033846    -0.024176893595    -0.916807255112     1.007825032230
         H           -3.413638933846     0.192373906405     0.998595444888     1.007825032230

  Basis Set: AUG-CC-PVTZ
    Blend: AUG-CC-PVTZ
  Basis Set: (AUG-CC-PVTZ AUX)
    Blend: AUG-CC-PVTZ-JKFIT
	 Reference Energy          =    -438.8079088831987065 [Eh]
	 Singles Energy            =      -0.0000000000000000 [Eh]
	 Same-Spin Energy          =      -0.4701727244255705 [Eh]
	 Opposite-Spin Energy      =      -1.5006972046107840 [Eh]
	 Correlation Energy        =      -1.9708699290363545 [Eh]
	 Total Energy              =    -440.7787788122350889 [Eh]

	 ================> DF-SCS-MP2 Energies <==================
	-----------------------------------------------------------
	 SCS Same-Spin Scale       =       0.3333333333333333 [-]
	 SCS Opposite-Spin Scale   =       1.2000000000000000 [-]
	 SCS Same-Spin Energy      =      -0.1567242414751902 [Eh]
	 SCS Opposite-Spin Energy  =      -1.8008366455329408 [Eh]
	 SCS Correlation Energy    =      -1.9575608870081309 [Eh]
	 SCS Total Energy          =    -440.7654697702068347 [Eh]
	-----------------------------------------------------------

  Dipole Moment: [D]
     X:    -4.3256      Y:    -0.3519      Z:    -0.0416     Total:     4.3401

*** Psi4 exiting successfully. Buy a developer a beer!
