                               Psi4 1.4a3.dev225

  ==> Input File <==

--------------------------------------------------------------------------
#psi4
#
memory 32 gb

molecule  {
0 1
  O        2.7382740    -0.7425350    -0.0126020
  N        0.6793120    -1.7266560     0.0061990
  C       -0.6027900     0.6893070    -0.0105920
  C        0.7782570     0.6611280     0.0035530
  C       -1.3671740    -0.5278470     0.0018860
  C        1.5049430    -0.6032750    -0.0044170
  C       -0.6863680    -1.7128580     0.0067460
  C       -1.3542970     1.9956390    -0.0048030
  C        1.6363160     1.8972900     0.0117510
  C       -2.8711540    -0.5219980    -0.0023590
  H       -1.1766380    -2.6823000     0.0159410
  H       -2.1333760     2.0016470    -0.7732430
  H       -0.7252034     2.8050404    -0.1803506
  H       -1.8505650     2.1568320     0.9594550
  H        1.1855660    -2.6081270     0.0055670
  H        1.5190430     2.4748580    -0.9113220
  H        2.6811620     1.5965790     0.0968200
  H        1.3890810     2.5538390     0.8512930
  H       -3.2566820    -1.5436220     0.0624630
  H       -3.2744260    -0.0723770    -0.9160080
  H       -3.2759870     0.0412750     0.8446610
units angstrom
no_reorient  #important for SAPT in psi4, default
symmetry c1  #important for SAPT in psi4, default
}

set PROPERTIES_ORIGIN ["COM"]
properties('MP2/aug-cc-pvtz', properties = ['dipole'])
--------------------------------------------------------------------------

    Molecular point group: c1
  Charge       = 0
  Multiplicity = 1
  Basis Set: AUG-CC-PVTZ
    Blend: AUG-CC-PVTZ
  Basis Set: (AUG-CC-PVTZ AUX)
    Blend: AUG-CC-PVTZ-JKFIT

    Orbital Energies [Eh]
    ---------------------

    Doubly Occupied:

       1A    -20.500148     2A    -15.615620     3A    -11.344048
       4A    -11.296587     5A    -11.268940     6A    -11.242707
       7A    -11.238369     8A    -11.237039     9A    -11.231244
      10A    -11.212960    11A     -1.361677    12A     -1.263029
      13A     -1.131800    14A     -1.062023    15A     -0.994159
      16A     -0.948630    17A     -0.934920    18A     -0.832022
      19A     -0.809648    20A     -0.726293    21A     -0.705872
      22A     -0.646821    23A     -0.620583    24A     -0.598850
      25A     -0.586108    26A     -0.582282    27A     -0.571915
      28A     -0.569326    29A     -0.566078    30A     -0.550207
      31A     -0.535513    32A     -0.505858    33A     -0.500680
      34A     -0.468498    35A     -0.415601    36A     -0.387725
      37A     -0.295512

  @DF-RHF Final Energy:  -438.82684302467214

   => Energetics <=

    Nuclear Repulsion Energy =            523.0363504671704504
    One-Electron Energy =               -1633.0078042914560683
    Two-Electron Energy =                 671.1446107996134742
    Total Energy =                       -438.8268430246721437
  Basis Set: (AUG-CC-PVTZ AUX)
    Blend: AUG-CC-PVTZ-RI
    Molecular point group: c1

    Geometry (in Angstrom), charge = 0, multiplicity = 1:

       Center              X                  Y                   Z               Mass
    ------------   -----------------  -----------------  -----------------  -----------------
         O            2.674255604629    -0.693292321127    -0.012325717567    15.994914619570
         N            0.615293604629    -1.677413321127     0.006475282433    14.003074004430
         C           -0.666808395371     0.738549678873    -0.010315717567    12.000000000000
         C            0.714238604629     0.710370678873     0.003829282433    12.000000000000
         C           -1.431192395371    -0.478604321127     0.002162282433    12.000000000000
         C            1.440924604629    -0.554032321127    -0.004140717567    12.000000000000
         C           -0.750386395371    -1.663615321127     0.007022282433    12.000000000000
         C           -1.418315395371     2.044881678873    -0.004526717567    12.000000000000
         C            1.572297604629     1.946532678873     0.012027282433    12.000000000000
         C           -2.935172395371    -0.472755321127    -0.002082717567    12.000000000000
         H           -1.240656395371    -2.633057321127     0.016217282433     1.007825032230
         H           -2.197394395371     2.050889678873    -0.772966717567     1.007825032230
         H           -0.789221795371     2.854283078873    -0.180074317567     1.007825032230
         H           -1.914583395371     2.206074678873     0.959731282433     1.007825032230
         H            1.121547604629    -2.558884321127     0.005843282433     1.007825032230
         H            1.455024604629     2.524100678873    -0.911045717567     1.007825032230
         H            2.617143604629     1.645821678873     0.097096282433     1.007825032230
         H            1.325062604629     2.603081678873     0.851569282433     1.007825032230
         H           -3.320700395371    -1.494379321127     0.062739282433     1.007825032230
         H           -3.338444395371    -0.023134321127    -0.915731717567     1.007825032230
         H           -3.340005395371     0.090517678873     0.844937282433     1.007825032230

  Basis Set: AUG-CC-PVTZ
    Blend: AUG-CC-PVTZ
  Basis Set: (AUG-CC-PVTZ AUX)
    Blend: AUG-CC-PVTZ-JKFIT
	 Reference Energy          =    -438.8268430246721437 [Eh]
	 Singles Energy            =      -0.0000000000000000 [Eh]
	 Same-Spin Energy          =      -0.4700632178907551 [Eh]
	 Opposite-Spin Energy      =      -1.4987486955567224 [Eh]
	 Correlation Energy        =      -1.9688119134474775 [Eh]
	 Total Energy              =    -440.7956549381196396 [Eh]

	 ================> DF-SCS-MP2 Energies <==================
	-----------------------------------------------------------
	 SCS Same-Spin Scale       =       0.3333333333333333 [-]
	 SCS Opposite-Spin Scale   =       1.2000000000000000 [-]
	 SCS Same-Spin Energy      =      -0.1566877392969184 [Eh]
	 SCS Opposite-Spin Energy  =      -1.7984984346680668 [Eh]
	 SCS Correlation Energy    =      -1.9551861739649852 [Eh]
	 SCS Total Energy          =    -440.7820291986371330 [Eh]
	-----------------------------------------------------------

  Dipole Moment: [D]
     X:    -4.4613      Y:    -0.2711      Z:     0.0389     Total:     4.4697

*** Psi4 exiting successfully. Buy a developer a beer!
