                               Psi4 1.4a3.dev225

  ==> Input File <==

--------------------------------------------------------------------------
#psi4
#
memory 32 gb

molecule  {
0 1
  O        2.7382740    -0.7425350    -0.0126020
  N        0.6793120    -1.7266560     0.0061990
  C       -0.6027900     0.6893070    -0.0105920
  C        0.7782570     0.6611280     0.0035530
  C       -1.3671740    -0.5278470     0.0018860
  C        1.5641624    -0.5226991    -0.0051784
  C       -0.6863680    -1.7128580     0.0067460
  C       -1.3542970     1.9956390    -0.0048030
  C        1.6363160     1.8972900     0.0117510
  C       -2.8711540    -0.5219980    -0.0023590
  H       -1.1766380    -2.6823000     0.0159410
  H       -2.1333760     2.0016470    -0.7732430
  H       -0.6949600     2.8439520    -0.1887900
  H       -1.8505650     2.1568320     0.9594550
  H        1.1855660    -2.6081270     0.0055670
  H        1.5190430     2.4748580    -0.9113220
  H        2.6811620     1.5965790     0.0968200
  H        1.3890810     2.5538390     0.8512930
  H       -3.2566820    -1.5436220     0.0624630
  H       -3.2744260    -0.0723770    -0.9160080
  H       -3.2759870     0.0412750     0.8446610
units angstrom
no_reorient  #important for SAPT in psi4, default
symmetry c1  #important for SAPT in psi4, default
}

set PROPERTIES_ORIGIN ["COM"]
properties('MP2/aug-cc-pvtz', properties = ['dipole'])
--------------------------------------------------------------------------

    Molecular point group: c1
  Charge       = 0
  Multiplicity = 1
  Basis Set: AUG-CC-PVTZ
    Blend: AUG-CC-PVTZ
  Basis Set: (AUG-CC-PVTZ AUX)
    Blend: AUG-CC-PVTZ-JKFIT

    Orbital Energies [Eh]
    ---------------------

    Doubly Occupied:

       1A    -20.514441     2A    -15.602500     3A    -11.347935
       4A    -11.295431     5A    -11.273977     6A    -11.238087
       7A    -11.234611     8A    -11.233509     9A    -11.231728
      10A    -11.212322    11A     -1.390092    12A     -1.248206
      13A     -1.127930    14A     -1.062104    15A     -0.993497
      16A     -0.939960    17A     -0.928177    18A     -0.832849
      19A     -0.796218    20A     -0.716609    21A     -0.704577
      22A     -0.649508    23A     -0.618151    24A     -0.611083
      25A     -0.582945    26A     -0.581643    27A     -0.569706
      28A     -0.567942    29A     -0.560029    30A     -0.547669
      31A     -0.532436    32A     -0.510745    33A     -0.499106
      34A     -0.483381    35A     -0.420495    36A     -0.383671
      37A     -0.292190

  @DF-RHF Final Energy:  -438.81734197148165

   => Energetics <=

    Nuclear Repulsion Energy =            522.6640882939479980
    One-Electron Energy =               -1632.2919402609002191
    Two-Electron Energy =                 670.8105099954706247
    Total Energy =                       -438.8173419714815964
  Basis Set: (AUG-CC-PVTZ AUX)
    Blend: AUG-CC-PVTZ-RI
    Molecular point group: c1

    Geometry (in Angstrom), charge = 0, multiplicity = 1:

       Center              X                  Y                   Z               Mass
    ------------   -----------------  -----------------  -----------------  -----------------
         O            2.668849339056    -0.700631809433    -0.012197021072    15.994914619570
         N            0.609887339056    -1.684752809433     0.006603978928    14.003074004430
         C           -0.672214660944     0.731210190567    -0.010187021072    12.000000000000
         C            0.708832339056     0.703031190567     0.003957978928    12.000000000000
         C           -1.436598660944    -0.485943809433     0.002290978928    12.000000000000
         C            1.494737739056    -0.480795909433    -0.004773421072    12.000000000000
         C           -0.755792660944    -1.670954809433     0.007150978928    12.000000000000
         C           -1.423721660944     2.037542190567    -0.004398021072    12.000000000000
         C            1.566891339056     1.939193190567     0.012155978928    12.000000000000
         C           -2.940578660944    -0.480094809433    -0.001954021072    12.000000000000
         H           -1.246062660944    -2.640396809433     0.016345978928     1.007825032230
         H           -2.202800660944     2.043550190567    -0.772838021072     1.007825032230
         H           -0.764384660944     2.885855190567    -0.188385021072     1.007825032230
         H           -1.919989660944     2.198735190567     0.959859978928     1.007825032230
         H            1.116141339056    -2.566223809433     0.005971978928     1.007825032230
         H            1.449618339056     2.516761190567    -0.910917021072     1.007825032230
         H            2.611737339056     1.638482190567     0.097224978928     1.007825032230
         H            1.319656339056     2.595742190567     0.851697978928     1.007825032230
         H           -3.326106660944    -1.501718809433     0.062867978928     1.007825032230
         H           -3.343850660944    -0.030473809433    -0.915603021072     1.007825032230
         H           -3.345411660944     0.083178190567     0.845065978928     1.007825032230

  Basis Set: AUG-CC-PVTZ
    Blend: AUG-CC-PVTZ
  Basis Set: (AUG-CC-PVTZ AUX)
    Blend: AUG-CC-PVTZ-JKFIT
	 Reference Energy          =    -438.8173419714816532 [Eh]
	 Singles Energy            =      -0.0000000000000000 [Eh]
	 Same-Spin Energy          =      -0.4706298431697370 [Eh]
	 Opposite-Spin Energy      =      -1.4994823262526955 [Eh]
	 Correlation Energy        =      -1.9701121694224324 [Eh]
	 Total Energy              =    -440.7874541409040603 [Eh]

	 ================> DF-SCS-MP2 Energies <==================
	-----------------------------------------------------------
	 SCS Same-Spin Scale       =       0.3333333333333333 [-]
	 SCS Opposite-Spin Scale   =       1.2000000000000000 [-]
	 SCS Same-Spin Energy      =      -0.1568766143899123 [Eh]
	 SCS Opposite-Spin Energy  =      -1.7993787915032347 [Eh]
	 SCS Correlation Energy    =      -1.9562554058931469 [Eh]
	 SCS Total Energy          =    -440.7735973773748128 [Eh]
	-----------------------------------------------------------

  Dipole Moment: [D]
     X:    -3.9256      Y:    -0.1183      Z:     0.0362     Total:     3.9275

*** Psi4 exiting successfully. Buy a developer a beer!
