                               Psi4 1.4a3.dev225

  ==> Input File <==

--------------------------------------------------------------------------
#psi4
#
memory 32 gb

molecule  {
0 1
  O        2.7382740    -0.7425350    -0.0126020
  N        0.6793120    -1.7266560     0.0061990
  C       -0.6027900     0.6893070    -0.0105920
  C        0.7782570     0.6611280     0.0035530
  C       -1.3671740    -0.5278470     0.0018860
  C        1.5049430    -0.6032750    -0.0044170
  C       -0.7363654    -1.7123529     0.0067660
  C       -1.3542970     1.9956390    -0.0048030
  C        1.6363160     1.8972900     0.0117510
  C       -2.8711540    -0.5219980    -0.0023590
  H       -1.1766380    -2.6823000     0.0159410
  H       -2.1333760     2.0016470    -0.7732430
  H       -0.6949600     2.8439520    -0.1887900
  H       -1.8505650     2.1568320     0.9594550
  H        1.1855660    -2.6081270     0.0055670
  H        1.5190430     2.4748580    -0.9113220
  H        2.6811620     1.5965790     0.0968200
  H        1.3890810     2.5538390     0.8512930
  H       -3.2566820    -1.5436220     0.0624630
  H       -3.2744260    -0.0723770    -0.9160080
  H       -3.2759870     0.0412750     0.8446610
units angstrom
no_reorient  #important for SAPT in psi4, default
symmetry c1  #important for SAPT in psi4, default
}

set PROPERTIES_ORIGIN ["COM"]
properties('MP2/aug-cc-pvtz', properties = ['dipole'])
--------------------------------------------------------------------------

    Molecular point group: c1
  Charge       = 0
  Multiplicity = 1
  Basis Set: AUG-CC-PVTZ
    Blend: AUG-CC-PVTZ
  Basis Set: (AUG-CC-PVTZ AUX)
    Blend: AUG-CC-PVTZ-JKFIT

    Orbital Energies [Eh]
    ---------------------

    Doubly Occupied:

       1A    -20.500158     2A    -15.609634     3A    -11.343565
       4A    -11.293309     5A    -11.270142     6A    -11.243903
       7A    -11.241515     8A    -11.238091     9A    -11.237548
      10A    -11.214003    11A     -1.358706    12A     -1.248963
      13A     -1.131950    14A     -1.066588    15A     -0.992996
      16A     -0.948611    17A     -0.932576    18A     -0.831068
      19A     -0.807020    20A     -0.716500    21A     -0.702995
      22A     -0.653498    23A     -0.619511    24A     -0.598589
      25A     -0.584889    26A     -0.580290    27A     -0.571883
      28A     -0.569952    29A     -0.563344    30A     -0.549665
      31A     -0.533069    32A     -0.505481    33A     -0.503211
      34A     -0.465036    35A     -0.415226    36A     -0.387384
      37A     -0.301989

  @DF-RHF Final Energy:  -438.82508458048403

   => Energetics <=

    Nuclear Repulsion Energy =            522.3895040728853019
    One-Electron Energy =               -1631.7634595219799394
    Two-Electron Energy =                 670.5488708686106065
    Total Energy =                       -438.8250845804840310
  Basis Set: (AUG-CC-PVTZ AUX)
    Blend: AUG-CC-PVTZ-RI
    Molecular point group: c1

    Geometry (in Angstrom), charge = 0, multiplicity = 1:

       Center              X                  Y                   Z               Mass
    ------------   -----------------  -----------------  -----------------  -----------------
         O            2.678409907674    -0.693622609588    -0.012265422896    15.994914619570
         N            0.619447907674    -1.677743609588     0.006535577104    14.003074004430
         C           -0.662654092326     0.738219390412    -0.010255422896    12.000000000000
         C            0.718392907674     0.710040390412     0.003889577104    12.000000000000
         C           -1.427038092326    -0.478934609588     0.002222577104    12.000000000000
         C            1.445078907674    -0.554362609588    -0.004080422896    12.000000000000
         C           -0.796229492326    -1.663440509588     0.007102577104    12.000000000000
         C           -1.414161092326     2.044551390412    -0.004466422896    12.000000000000
         C            1.576451907674     1.946202390412     0.012087577104    12.000000000000
         C           -2.931018092326    -0.473085609588    -0.002022422896    12.000000000000
         H           -1.236502092326    -2.633387609588     0.016277577104     1.007825032230
         H           -2.193240092326     2.050559390412    -0.772906422896     1.007825032230
         H           -0.754824092326     2.892864390412    -0.188453422896     1.007825032230
         H           -1.910429092326     2.205744390412     0.959791577104     1.007825032230
         H            1.125701907674    -2.559214609588     0.005903577104     1.007825032230
         H            1.459178907674     2.523770390412    -0.910985422896     1.007825032230
         H            2.621297907674     1.645491390412     0.097156577104     1.007825032230
         H            1.329216907674     2.602751390412     0.851629577104     1.007825032230
         H           -3.316546092326    -1.494709609588     0.062799577104     1.007825032230
         H           -3.334290092326    -0.023464609588    -0.915671422896     1.007825032230
         H           -3.335851092326     0.090187390412     0.844997577104     1.007825032230

  Basis Set: AUG-CC-PVTZ
    Blend: AUG-CC-PVTZ
  Basis Set: (AUG-CC-PVTZ AUX)
    Blend: AUG-CC-PVTZ-JKFIT
	 Reference Energy          =    -438.8250845804840310 [Eh]
	 Singles Energy            =      -0.0000000000000000 [Eh]
	 Same-Spin Energy          =      -0.4694196151528360 [Eh]
	 Opposite-Spin Energy      =      -1.4992242717514102 [Eh]
	 Correlation Energy        =      -1.9686438869042462 [Eh]
	 Total Energy              =    -440.7937284673882914 [Eh]

	 ================> DF-SCS-MP2 Energies <==================
	-----------------------------------------------------------
	 SCS Same-Spin Scale       =       0.3333333333333333 [-]
	 SCS Opposite-Spin Scale   =       1.2000000000000000 [-]
	 SCS Same-Spin Energy      =      -0.1564732050509453 [Eh]
	 SCS Opposite-Spin Energy  =      -1.7990691261016922 [Eh]
	 SCS Correlation Energy    =      -1.9555423311526376 [Eh]
	 SCS Total Energy          =    -440.7806269116366593 [Eh]
	-----------------------------------------------------------

  Dipole Moment: [D]
     X:    -4.5337      Y:    -0.1842      Z:     0.0409     Total:     4.5376

*** Psi4 exiting successfully. Buy a developer a beer!
