                               Psi4 1.4a3.dev225

  ==> Input File <==

--------------------------------------------------------------------------
#psi4
#
memory 32 gb

molecule  {
0 1
  O        2.7382740    -0.7425350    -0.0126020
  N        0.6793120    -1.7266560     0.0061990
  C       -0.6027900     0.6893070    -0.0105920
  C        0.7782570     0.6611280     0.0035530
  C       -1.3671740    -0.5278470     0.0018860
  C        1.5049430    -0.6032750    -0.0044170
  C       -0.6863680    -1.7128580     0.0067460
  C       -1.3792295     2.0389787    -0.0046109
  C        1.6363160     1.8972900     0.0117510
  C       -2.8711540    -0.5219980    -0.0023590
  H       -1.1766380    -2.6823000     0.0159410
  H       -2.1333760     2.0016470    -0.7732430
  H       -0.6949600     2.8439520    -0.1887900
  H       -1.8505650     2.1568320     0.9594550
  H        1.1855660    -2.6081270     0.0055670
  H        1.5190430     2.4748580    -0.9113220
  H        2.6811620     1.5965790     0.0968200
  H        1.3890810     2.5538390     0.8512930
  H       -3.2566820    -1.5436220     0.0624630
  H       -3.2744260    -0.0723770    -0.9160080
  H       -3.2759870     0.0412750     0.8446610
units angstrom
no_reorient  #important for SAPT in psi4, default
symmetry c1  #important for SAPT in psi4, default
}

set PROPERTIES_ORIGIN ["COM"]
properties('MP2/aug-cc-pvtz', properties = ['dipole'])
--------------------------------------------------------------------------

    Molecular point group: c1
  Charge       = 0
  Multiplicity = 1
  Basis Set: AUG-CC-PVTZ
    Blend: AUG-CC-PVTZ
  Basis Set: (AUG-CC-PVTZ AUX)
    Blend: AUG-CC-PVTZ-JKFIT

    Orbital Energies [Eh]
    ---------------------

    Doubly Occupied:

       1A    -20.500154     2A    -15.615724     3A    -11.344103
       4A    -11.296706     5A    -11.271150     6A    -11.243069
       7A    -11.238419     8A    -11.237345     9A    -11.235849
      10A    -11.212864    11A     -1.361695    12A     -1.263028
      13A     -1.127645    14A     -1.061537    15A     -0.988729
      16A     -0.948819    17A     -0.934781    18A     -0.831666
      19A     -0.809383    20A     -0.725873    21A     -0.704649
      22A     -0.642087    23A     -0.621288    24A     -0.598821
      25A     -0.584821    26A     -0.583493    27A     -0.573835
      28A     -0.569085    29A     -0.563850    30A     -0.551575
      31A     -0.534673    32A     -0.504413    33A     -0.497367
      34A     -0.468641    35A     -0.414891    36A     -0.389150
      37A     -0.295552

  @DF-RHF Final Energy:  -438.82619986633205

   => Energetics <=

    Nuclear Repulsion Energy =            521.9074061043282882
    One-Electron Energy =               -1630.7737527589411002
    Two-Electron Energy =                 670.0401467882807083
    Total Energy =                       -438.8261998663319901
  Basis Set: (AUG-CC-PVTZ AUX)
    Blend: AUG-CC-PVTZ-RI
    Molecular point group: c1

    Geometry (in Angstrom), charge = 0, multiplicity = 1:

       Center              X                  Y                   Z               Mass
    ------------   -----------------  -----------------  -----------------  -----------------
         O            2.676215788304    -0.697372244557    -0.012280488105    15.994914619570
         N            0.617253788304    -1.681493244557     0.006520511895    14.003074004430
         C           -0.664848211696     0.734469755443    -0.010270488105    12.000000000000
         C            0.716198788304     0.706290755443     0.003874511895    12.000000000000
         C           -1.429232211696    -0.482684244557     0.002207511895    12.000000000000
         C            1.442884788304    -0.558112244557    -0.004095488105    12.000000000000
         C           -0.748426211696    -1.667695244557     0.007067511895    12.000000000000
         C           -1.441287711696     2.084141455443    -0.004289388105    12.000000000000
         C            1.574257788304     1.942452755443     0.012072511895    12.000000000000
         C           -2.933212211696    -0.476835244557    -0.002037488105    12.000000000000
         H           -1.238696211696    -2.637137244557     0.016262511895     1.007825032230
         H           -2.195434211696     2.046809755443    -0.772921488105     1.007825032230
         H           -0.757018211696     2.889114755443    -0.188468488105     1.007825032230
         H           -1.912623211696     2.201994755443     0.959776511895     1.007825032230
         H            1.123507788304    -2.562964244557     0.005888511895     1.007825032230
         H            1.456984788304     2.520020755443    -0.911000488105     1.007825032230
         H            2.619103788304     1.641741755443     0.097141511895     1.007825032230
         H            1.327022788304     2.599001755443     0.851614511895     1.007825032230
         H           -3.318740211696    -1.498459244557     0.062784511895     1.007825032230
         H           -3.336484211696    -0.027214244557    -0.915686488105     1.007825032230
         H           -3.338045211696     0.086437755443     0.844982511895     1.007825032230

  Basis Set: AUG-CC-PVTZ
    Blend: AUG-CC-PVTZ
  Basis Set: (AUG-CC-PVTZ AUX)
    Blend: AUG-CC-PVTZ-JKFIT
	 Reference Energy          =    -438.8261998663320469 [Eh]
	 Singles Energy            =      -0.0000000000000000 [Eh]
	 Same-Spin Energy          =      -0.4697523457295843 [Eh]
	 Opposite-Spin Energy      =      -1.4988608171278048 [Eh]
	 Correlation Energy        =      -1.9686131628573891 [Eh]
	 Total Energy              =    -440.7948130291894131 [Eh]

	 ================> DF-SCS-MP2 Energies <==================
	-----------------------------------------------------------
	 SCS Same-Spin Scale       =       0.3333333333333333 [-]
	 SCS Opposite-Spin Scale   =       1.2000000000000000 [-]
	 SCS Same-Spin Energy      =      -0.1565841152431948 [Eh]
	 SCS Opposite-Spin Energy  =      -1.7986329805533658 [Eh]
	 SCS Correlation Energy    =      -1.9552170957965607 [Eh]
	 SCS Total Energy          =    -440.7814169621286169 [Eh]
	-----------------------------------------------------------

  Dipole Moment: [D]
     X:    -4.4477      Y:    -0.3131      Z:     0.0413     Total:     4.4589

*** Psi4 exiting successfully. Buy a developer a beer!
