                               Psi4 1.4a3.dev225

  ==> Input File <==

--------------------------------------------------------------------------
#psi4
#
memory 32 gb

molecule  {
0 1
  O        2.7382740    -0.7425350    -0.0126020
  N        0.6793120    -1.7266560     0.0061990
  C       -0.6027900     0.6893070    -0.0105920
  C        0.7782570     0.6611280     0.0035530
  C       -1.3405835    -0.4855060     0.0014519
  C        1.5049430    -0.6032750    -0.0044170
  C       -0.6863680    -1.7128580     0.0067460
  C       -1.3542970     1.9956390    -0.0048030
  C        1.6363160     1.8972900     0.0117510
  C       -2.8711540    -0.5219980    -0.0023590
  H       -1.1766380    -2.6823000     0.0159410
  H       -2.1333760     2.0016470    -0.7732430
  H       -0.6949600     2.8439520    -0.1887900
  H       -1.8505650     2.1568320     0.9594550
  H        1.1855660    -2.6081270     0.0055670
  H        1.5190430     2.4748580    -0.9113220
  H        2.6811620     1.5965790     0.0968200
  H        1.3890810     2.5538390     0.8512930
  H       -3.2566820    -1.5436220     0.0624630
  H       -3.2744260    -0.0723770    -0.9160080
  H       -3.2759870     0.0412750     0.8446610
units angstrom
no_reorient  #important for SAPT in psi4, default
symmetry c1  #important for SAPT in psi4, default
}

set PROPERTIES_ORIGIN ["COM"]
properties('MP2/aug-cc-pvtz', properties = ['dipole'])
--------------------------------------------------------------------------

    Molecular point group: c1
  Charge       = 0
  Multiplicity = 1
  Basis Set: AUG-CC-PVTZ
    Blend: AUG-CC-PVTZ
  Basis Set: (AUG-CC-PVTZ AUX)
    Blend: AUG-CC-PVTZ-JKFIT

    Orbital Energies [Eh]
    ---------------------

    Doubly Occupied:

       1A    -20.497555     2A    -15.619296     3A    -11.342611
       4A    -11.302772     5A    -11.264683     6A    -11.243365
       7A    -11.238442     8A    -11.237394     9A    -11.236459
      10A    -11.212118    11A     -1.360819    12A     -1.264379
      13A     -1.136436    14A     -1.057397    15A     -0.990168
      16A     -0.946241    17A     -0.936271    18A     -0.835917
      19A     -0.809638    20A     -0.725219    21A     -0.707639
      22A     -0.647900    23A     -0.621073    24A     -0.597613
      25A     -0.587012    26A     -0.582061    27A     -0.569925
      28A     -0.568795    29A     -0.558182    30A     -0.549631
      31A     -0.530364    32A     -0.506100    33A     -0.499886
      34A     -0.468106    35A     -0.414467    36A     -0.393227
      37A     -0.290187

  @DF-RHF Final Energy:  -438.82248941644605

   => Energetics <=

    Nuclear Repulsion Energy =            523.2457153891979260
    One-Electron Energy =               -1633.4377085848368552
    Two-Electron Energy =                 671.3695037791929963
    Total Energy =                       -438.8224894164460466
  Basis Set: (AUG-CC-PVTZ AUX)
    Blend: AUG-CC-PVTZ-RI
    Molecular point group: c1

    Geometry (in Angstrom), charge = 0, multiplicity = 1:

       Center              X                  Y                   Z               Mass
    ------------   -----------------  -----------------  -----------------  -----------------
         O            2.671705592283    -0.697284820829    -0.012225672105    15.994914619570
         N            0.612743592283    -1.681405820829     0.006575327895    14.003074004430
         C           -0.669358407717     0.734557179171    -0.010215672105    12.000000000000
         C            0.711688592283     0.706378179171     0.003929327895    12.000000000000
         C           -1.407151907717    -0.440255820829     0.001828227895    12.000000000000
         C            1.438374592283    -0.558024820829    -0.004040672105    12.000000000000
         C           -0.752936407717    -1.667607820829     0.007122327895    12.000000000000
         C           -1.420865407717     2.040889179171    -0.004426672105    12.000000000000
         C            1.569747592283     1.942540179171     0.012127327895    12.000000000000
         C           -2.937722407717    -0.476747820829    -0.001982672105    12.000000000000
         H           -1.243206407717    -2.637049820829     0.016317327895     1.007825032230
         H           -2.199944407717     2.046897179171    -0.772866672105     1.007825032230
         H           -0.761528407717     2.889202179171    -0.188413672105     1.007825032230
         H           -1.917133407717     2.202082179171     0.959831327895     1.007825032230
         H            1.118997592283    -2.562876820829     0.005943327895     1.007825032230
         H            1.452474592283     2.520108179171    -0.910945672105     1.007825032230
         H            2.614593592283     1.641829179171     0.097196327895     1.007825032230
         H            1.322512592283     2.599089179171     0.851669327895     1.007825032230
         H           -3.323250407717    -1.498371820829     0.062839327895     1.007825032230
         H           -3.340994407717    -0.027126820829    -0.915631672105     1.007825032230
         H           -3.342555407717     0.086525179171     0.845037327895     1.007825032230

  Basis Set: AUG-CC-PVTZ
    Blend: AUG-CC-PVTZ
  Basis Set: (AUG-CC-PVTZ AUX)
    Blend: AUG-CC-PVTZ-JKFIT
	 Reference Energy          =    -438.8224894164460466 [Eh]
	 Singles Energy            =      -0.0000000000000000 [Eh]
	 Same-Spin Energy          =      -0.4714240299847730 [Eh]
	 Opposite-Spin Energy      =      -1.5005431825941082 [Eh]
	 Correlation Energy        =      -1.9719672125788812 [Eh]
	 Total Energy              =    -440.7944566290249213 [Eh]

	 ================> DF-SCS-MP2 Energies <==================
	-----------------------------------------------------------
	 SCS Same-Spin Scale       =       0.3333333333333333 [-]
	 SCS Opposite-Spin Scale   =       1.2000000000000000 [-]
	 SCS Same-Spin Energy      =      -0.1571413433282576 [Eh]
	 SCS Opposite-Spin Energy  =      -1.8006518191129297 [Eh]
	 SCS Correlation Energy    =      -1.9577931624411875 [Eh]
	 SCS Total Energy          =    -440.7802825788872383 [Eh]
	-----------------------------------------------------------

  Dipole Moment: [D]
     X:    -4.5147      Y:    -0.3599      Z:     0.0424     Total:     4.5292

*** Psi4 exiting successfully. Buy a developer a beer!
