                               Psi4 1.4a3.dev225

  ==> Input File <==

--------------------------------------------------------------------------
#psi4
#
memory 32 gb

molecule  {
0 1
  O        2.7382740    -0.7425350    -0.0126020
  N        0.6793120    -1.7266560     0.0061990
  C       -0.6027900     0.6893070    -0.0105920
  C        0.7782570     0.6611280     0.0035530
  C       -1.3671740    -0.5278470     0.0018860
  C        1.5049430    -0.6032750    -0.0044170
  C       -0.6454263    -1.6883760     0.0068003
  C       -1.3542970     1.9956390    -0.0048030
  C        1.6363160     1.8972900     0.0117510
  C       -2.8711540    -0.5219980    -0.0023590
  H       -1.1766380    -2.6823000     0.0159410
  H       -2.1333760     2.0016470    -0.7732430
  H       -0.6949600     2.8439520    -0.1887900
  H       -1.8505650     2.1568320     0.9594550
  H        1.1855660    -2.6081270     0.0055670
  H        1.5190430     2.4748580    -0.9113220
  H        2.6811620     1.5965790     0.0968200
  H        1.3890810     2.5538390     0.8512930
  H       -3.2566820    -1.5436220     0.0624630
  H       -3.2744260    -0.0723770    -0.9160080
  H       -3.2759870     0.0412750     0.8446610
units angstrom
no_reorient  #important for SAPT in psi4, default
symmetry c1  #important for SAPT in psi4, default
}

set PROPERTIES_ORIGIN ["COM"]
properties('MP2/aug-cc-pvtz', properties = ['dipole'])
--------------------------------------------------------------------------

    Molecular point group: c1
  Charge       = 0
  Multiplicity = 1
  Basis Set: AUG-CC-PVTZ
    Blend: AUG-CC-PVTZ
  Basis Set: (AUG-CC-PVTZ AUX)
    Blend: AUG-CC-PVTZ-JKFIT

    Orbital Energies [Eh]
    ---------------------

    Doubly Occupied:

       1A    -20.500574     2A    -15.619706     3A    -11.344229
       4A    -11.298620     5A    -11.268604     6A    -11.239934
       7A    -11.237471     8A    -11.236091     9A    -11.235783
      10A    -11.211844    11A     -1.365346    12A     -1.275989
      13A     -1.132203    14A     -1.059859    15A     -0.990285
      16A     -0.950059    17A     -0.934616    18A     -0.829963
      19A     -0.813191    20A     -0.734270    21A     -0.706803
      22A     -0.636831    23A     -0.623373    24A     -0.594898
      25A     -0.587356    26A     -0.584861    27A     -0.571368
      28A     -0.568586    29A     -0.560061    30A     -0.550474
      31A     -0.534909    32A     -0.506384    33A     -0.495454
      34A     -0.472587    35A     -0.415468    36A     -0.388728
      37A     -0.292801

  @DF-RHF Final Energy:  -438.82544784252161

   => Energetics <=

    Nuclear Repulsion Energy =            523.6516322174870766
    One-Electron Energy =               -1634.2149986210854422
    Two-Electron Energy =                 671.7379185610767536
    Total Energy =                       -438.8254478425216121
  Basis Set: (AUG-CC-PVTZ AUX)
    Blend: AUG-CC-PVTZ-RI
    Molecular point group: c1

    Geometry (in Angstrom), charge = 0, multiplicity = 1:

       Center              X                  Y                   Z               Mass
    ------------   -----------------  -----------------  -----------------  -----------------
         O            2.670449323720    -0.695721488128    -0.012268425433    15.994914619570
         N            0.611487323720    -1.679842488128     0.006532574567    14.003074004430
         C           -0.670614676280     0.736120511872    -0.010258425433    12.000000000000
         C            0.710432323720     0.707941511872     0.003886574567    12.000000000000
         C           -1.434998676280    -0.481033488128     0.002219574567    12.000000000000
         C            1.437118323720    -0.556461488128    -0.004083425433    12.000000000000
         C           -0.713250976280    -1.641562488128     0.007133874567    12.000000000000
         C           -1.422121676280     2.042452511872    -0.004469425433    12.000000000000
         C            1.568491323720     1.944103511872     0.012084574567    12.000000000000
         C           -2.938978676280    -0.475184488128    -0.002025425433    12.000000000000
         H           -1.244462676280    -2.635486488128     0.016274574567     1.007825032230
         H           -2.201200676280     2.048460511872    -0.772909425433     1.007825032230
         H           -0.762784676280     2.890765511872    -0.188456425433     1.007825032230
         H           -1.918389676280     2.203645511872     0.959788574567     1.007825032230
         H            1.117741323720    -2.561313488128     0.005900574567     1.007825032230
         H            1.451218323720     2.521671511872    -0.910988425433     1.007825032230
         H            2.613337323720     1.643392511872     0.097153574567     1.007825032230
         H            1.321256323720     2.600652511872     0.851626574567     1.007825032230
         H           -3.324506676280    -1.496808488128     0.062796574567     1.007825032230
         H           -3.342250676280    -0.025563488128    -0.915674425433     1.007825032230
         H           -3.343811676280     0.088088511872     0.844994574567     1.007825032230

  Basis Set: AUG-CC-PVTZ
    Blend: AUG-CC-PVTZ
  Basis Set: (AUG-CC-PVTZ AUX)
    Blend: AUG-CC-PVTZ-JKFIT
	 Reference Energy          =    -438.8254478425216121 [Eh]
	 Singles Energy            =      -0.0000000000000000 [Eh]
	 Same-Spin Energy          =      -0.4704611565472822 [Eh]
	 Opposite-Spin Energy      =      -1.4987905539125492 [Eh]
	 Correlation Energy        =      -1.9692517104598313 [Eh]
	 Total Energy              =    -440.7946995529814558 [Eh]

	 ================> DF-SCS-MP2 Energies <==================
	-----------------------------------------------------------
	 SCS Same-Spin Scale       =       0.3333333333333333 [-]
	 SCS Opposite-Spin Scale   =       1.2000000000000000 [-]
	 SCS Same-Spin Energy      =      -0.1568203855157607 [Eh]
	 SCS Opposite-Spin Energy  =      -1.7985486646950590 [Eh]
	 SCS Correlation Energy    =      -1.9553690502108196 [Eh]
	 SCS Total Energy          =    -440.7808168927324459 [Eh]
	-----------------------------------------------------------

  Dipole Moment: [D]
     X:    -4.3987      Y:    -0.3669      Z:     0.0422     Total:     4.4142

*** Psi4 exiting successfully. Buy a developer a beer!
