                               Psi4 1.4a3.dev225

  ==> Input File <==

--------------------------------------------------------------------------
#psi4
#
memory 32 gb

molecule  {
0 1
  O        2.7382740    -0.7425350    -0.0126020
  N        0.6793120    -1.7266560     0.0061990
  C       -0.6027900     0.6893070    -0.0105920
  C        0.7782570     0.6611280     0.0035530
  C       -1.3671740    -0.5278470     0.0018860
  C        1.5049430    -0.6032750    -0.0044170
  C       -0.6863680    -1.7128580     0.0067460
  C       -1.2545670     1.8222800    -0.0055712
  C        1.6363160     1.8972900     0.0117510
  C       -2.8711540    -0.5219980    -0.0023590
  H       -1.1766380    -2.6823000     0.0159410
  H       -2.1333760     2.0016470    -0.7732430
  H       -0.6949600     2.8439520    -0.1887900
  H       -1.8505650     2.1568320     0.9594550
  H        1.1855660    -2.6081270     0.0055670
  H        1.5190430     2.4748580    -0.9113220
  H        2.6811620     1.5965790     0.0968200
  H        1.3890810     2.5538390     0.8512930
  H       -3.2566820    -1.5436220     0.0624630
  H       -3.2744260    -0.0723770    -0.9160080
  H       -3.2759870     0.0412750     0.8446610
units angstrom
no_reorient  #important for SAPT in psi4, default
symmetry c1  #important for SAPT in psi4, default
}

set PROPERTIES_ORIGIN ["COM"]
properties('MP2/aug-cc-pvtz', properties = ['dipole'])
--------------------------------------------------------------------------

    Molecular point group: c1
  Charge       = 0
  Multiplicity = 1
  Basis Set: AUG-CC-PVTZ
    Blend: AUG-CC-PVTZ
  Basis Set: (AUG-CC-PVTZ AUX)
    Blend: AUG-CC-PVTZ-JKFIT

    Orbital Energies [Eh]
    ---------------------

    Doubly Occupied:

       1A    -20.500415     2A    -15.615555     3A    -11.344079
       4A    -11.296916     5A    -11.257183     6A    -11.247548
       7A    -11.242917     8A    -11.239258     9A    -11.236875
      10A    -11.212676    11A     -1.361905    12A     -1.263714
      13A     -1.157575    14A     -1.064485    15A     -1.006661
      16A     -0.948715    17A     -0.930969    18A     -0.821696
      19A     -0.810342    20A     -0.728333    21A     -0.709765
      22A     -0.670802    23A     -0.621916    24A     -0.606726
      25A     -0.596479    26A     -0.579415    27A     -0.575167
      28A     -0.562773    29A     -0.550998    30A     -0.539974
      31A     -0.524830    32A     -0.511253    33A     -0.479395
      34A     -0.467978    35A     -0.417056    36A     -0.377136
      37A     -0.295495

  @DF-RHF Final Energy:  -438.77514765655474

   => Energetics <=

    Nuclear Repulsion Energy =            526.7945123762376625
    One-Electron Energy =               -1640.3893732259309672
    Two-Electron Energy =                 674.8197131931385684
    Total Energy =                       -438.7751476565547364
  Basis Set: (AUG-CC-PVTZ AUX)
    Blend: AUG-CC-PVTZ-RI
    Molecular point group: c1

    Geometry (in Angstrom), charge = 0, multiplicity = 1:

       Center              X                  Y                   Z               Mass
    ------------   -----------------  -----------------  -----------------  -----------------
         O            2.665303141301    -0.678402976179    -0.012196425817    15.994914619570
         N            0.606341141301    -1.662523976179     0.006604574183    14.003074004430
         C           -0.675760858699     0.753439023821    -0.010186425817    12.000000000000
         C            0.705286141301     0.725260023821     0.003958574183    12.000000000000
         C           -1.440144858699    -0.463714976179     0.002291574183    12.000000000000
         C            1.431972141301    -0.539142976179    -0.004011425817    12.000000000000
         C           -0.759338858699    -1.648725976179     0.007151574183    12.000000000000
         C           -1.327537858699     1.886412023821    -0.005165625817    12.000000000000
         C            1.563345141301     1.961422023821     0.012156574183    12.000000000000
         C           -2.944124858699    -0.457865976179    -0.001953425817    12.000000000000
         H           -1.249608858699    -2.618167976179     0.016346574183     1.007825032230
         H           -2.206346858699     2.065779023821    -0.772837425817     1.007825032230
         H           -0.767930858699     2.908084023821    -0.188384425817     1.007825032230
         H           -1.923535858699     2.220964023821     0.959860574183     1.007825032230
         H            1.112595141301    -2.543994976179     0.005972574183     1.007825032230
         H            1.446072141301     2.538990023821    -0.910916425817     1.007825032230
         H            2.608191141301     1.660711023821     0.097225574183     1.007825032230
         H            1.316110141301     2.617971023821     0.851698574183     1.007825032230
         H           -3.329652858699    -1.479489976179     0.062868574183     1.007825032230
         H           -3.347396858699    -0.008244976179    -0.915602425817     1.007825032230
         H           -3.348957858699     0.105407023821     0.845066574183     1.007825032230

  Basis Set: AUG-CC-PVTZ
    Blend: AUG-CC-PVTZ
  Basis Set: (AUG-CC-PVTZ AUX)
    Blend: AUG-CC-PVTZ-JKFIT
	 Reference Energy          =    -438.7751476565547364 [Eh]
	 Singles Energy            =      -0.0000000000000000 [Eh]
	 Same-Spin Energy          =      -0.4741807509912919 [Eh]
	 Opposite-Spin Energy      =      -1.5043577710712750 [Eh]
	 Correlation Energy        =      -1.9785385220625669 [Eh]
	 Total Energy              =    -440.7536861786173290 [Eh]

	 ================> DF-SCS-MP2 Energies <==================
	-----------------------------------------------------------
	 SCS Same-Spin Scale       =       0.3333333333333333 [-]
	 SCS Opposite-Spin Scale   =       1.2000000000000000 [-]
	 SCS Same-Spin Energy      =      -0.1580602503304306 [Eh]
	 SCS Opposite-Spin Energy  =      -1.8052293252855298 [Eh]
	 SCS Correlation Energy    =      -1.9632895756159605 [Eh]
	 SCS Total Energy          =    -440.7384372321707247 [Eh]
	-----------------------------------------------------------

  Dipole Moment: [D]
     X:    -4.5048      Y:    -0.2394      Z:     0.0464     Total:     4.5114

*** Psi4 exiting successfully. Buy a developer a beer!
