                               Psi4 1.4a3.dev225

  ==> Input File <==

--------------------------------------------------------------------------
#psi4
#
memory 32 gb

molecule  {
0 1
  O        2.7382740    -0.7425350    -0.0126020
  N        0.6793120    -1.7266560     0.0061990
  C       -0.6027900     0.6893070    -0.0105920
  C        0.7782570     0.6611280     0.0035530
  C       -1.3565378    -0.5109106     0.0017124
  C        1.5049430    -0.6032750    -0.0044170
  C       -0.6863680    -1.7128580     0.0067460
  C       -1.3542970     1.9956390    -0.0048030
  C        1.6363160     1.8972900     0.0117510
  C       -2.8711540    -0.5219980    -0.0023590
  H       -1.1766380    -2.6823000     0.0159410
  H       -2.1333760     2.0016470    -0.7732430
  H       -0.6949600     2.8439520    -0.1887900
  H       -1.8505650     2.1568320     0.9594550
  H        1.1855660    -2.6081270     0.0055670
  H        1.5190430     2.4748580    -0.9113220
  H        2.6811620     1.5965790     0.0968200
  H        1.3890810     2.5538390     0.8512930
  H       -3.2566820    -1.5436220     0.0624630
  H       -3.2744260    -0.0723770    -0.9160080
  H       -3.2759870     0.0412750     0.8446610
units angstrom
no_reorient  #important for SAPT in psi4, default
symmetry c1  #important for SAPT in psi4, default
}

set PROPERTIES_ORIGIN ["COM"]
properties('MP2/aug-cc-pvtz', properties = ['dipole'])
--------------------------------------------------------------------------

    Molecular point group: c1
  Charge       = 0
  Multiplicity = 1
  Basis Set: AUG-CC-PVTZ
    Blend: AUG-CC-PVTZ
  Basis Set: (AUG-CC-PVTZ AUX)
    Blend: AUG-CC-PVTZ-JKFIT

    Orbital Energies [Eh]
    ---------------------

    Doubly Occupied:

       1A    -20.499192     2A    -15.617094     3A    -11.343556
       4A    -11.299104     5A    -11.267555     6A    -11.243156
       7A    -11.238096     8A    -11.237715     9A    -11.236801
      10A    -11.212568    11A     -1.361391    12A     -1.263627
      13A     -1.133362    14A     -1.060149    15A     -0.990814
      16A     -0.947694    17A     -0.934930    18A     -0.832436
      19A     -0.809803    20A     -0.725799    21A     -0.706366
      22A     -0.646415    23A     -0.620831    24A     -0.597948
      25A     -0.586376    26A     -0.582257    27A     -0.570825
      28A     -0.569124    29A     -0.560226    30A     -0.549996
      31A     -0.532378    32A     -0.504259    33A     -0.501856
      34A     -0.468389    35A     -0.415248    36A     -0.389936
      37A     -0.293453

  @DF-RHF Final Energy:  -438.82636199408734

   => Energetics <=

    Nuclear Repulsion Energy =            522.9851981080607857
    One-Electron Energy =               -1632.9216678700081502
    Two-Electron Energy =                 671.1101077678599722
    Total Energy =                       -438.8263619940873923
  Basis Set: (AUG-CC-PVTZ AUX)
    Blend: AUG-CC-PVTZ-RI
    Molecular point group: c1

    Geometry (in Angstrom), charge = 0, multiplicity = 1:

       Center              X                  Y                   Z               Mass
    ------------   -----------------  -----------------  -----------------  -----------------
         O            2.673102192255    -0.695060964961    -0.012248475631    15.994914619570
         N            0.614140192255    -1.679181964961     0.006552524369    14.003074004430
         C           -0.667961807745     0.736781035039    -0.010238475631    12.000000000000
         C            0.713085192255     0.708602035039     0.003906524369    12.000000000000
         C           -1.421709607745    -0.463436564961     0.002065924369    12.000000000000
         C            1.439771192255    -0.555800964961    -0.004063475631    12.000000000000
         C           -0.751539807745    -1.665383964961     0.007099524369    12.000000000000
         C           -1.419468807745     2.043113035039    -0.004449475631    12.000000000000
         C            1.571144192255     1.944764035039     0.012104524369    12.000000000000
         C           -2.936325807745    -0.474523964961    -0.002005475631    12.000000000000
         H           -1.241809807745    -2.634825964961     0.016294524369     1.007825032230
         H           -2.198547807745     2.049121035039    -0.772889475631     1.007825032230
         H           -0.760131807745     2.891426035039    -0.188436475631     1.007825032230
         H           -1.915736807745     2.204306035039     0.959808524369     1.007825032230
         H            1.120394192255    -2.560652964961     0.005920524369     1.007825032230
         H            1.453871192255     2.522332035039    -0.910968475631     1.007825032230
         H            2.615990192255     1.644053035039     0.097173524369     1.007825032230
         H            1.323909192255     2.601313035039     0.851646524369     1.007825032230
         H           -3.321853807745    -1.496147964961     0.062816524369     1.007825032230
         H           -3.339597807745    -0.024902964961    -0.915654475631     1.007825032230
         H           -3.341158807745     0.088749035039     0.845014524369     1.007825032230

  Basis Set: AUG-CC-PVTZ
    Blend: AUG-CC-PVTZ
  Basis Set: (AUG-CC-PVTZ AUX)
    Blend: AUG-CC-PVTZ-JKFIT
	 Reference Energy          =    -438.8263619940873355 [Eh]
	 Singles Energy            =      -0.0000000000000000 [Eh]
	 Same-Spin Energy          =      -0.4706352490741940 [Eh]
	 Opposite-Spin Energy      =      -1.4996683936138215 [Eh]
	 Correlation Energy        =      -1.9703036426880156 [Eh]
	 Total Energy              =    -440.7966656367753444 [Eh]

	 ================> DF-SCS-MP2 Energies <==================
	-----------------------------------------------------------
	 SCS Same-Spin Scale       =       0.3333333333333333 [-]
	 SCS Opposite-Spin Scale   =       1.2000000000000000 [-]
	 SCS Same-Spin Energy      =      -0.1568784163580647 [Eh]
	 SCS Opposite-Spin Energy  =      -1.7996020723365858 [Eh]
	 SCS Correlation Energy    =      -1.9564804886946503 [Eh]
	 SCS Total Energy          =    -440.7828424827819731 [Eh]
	-----------------------------------------------------------

  Dipole Moment: [D]
     X:    -4.4835      Y:    -0.3209      Z:     0.0420     Total:     4.4952

*** Psi4 exiting successfully. Buy a developer a beer!
