                               Psi4 1.4a3.dev225

  ==> Input File <==

--------------------------------------------------------------------------
#psi4
#
memory 32 gb

molecule  {
0 1
  O        2.7382740    -0.7425350    -0.0126020
  N        0.6793120    -1.7266560     0.0061990
  C       -0.6027900     0.6893070    -0.0105920
  C        0.7782570     0.6611280     0.0035530
  C       -1.4735360    -0.6972108     0.0036223
  C        1.5049430    -0.6032750    -0.0044170
  C       -0.6863680    -1.7128580     0.0067460
  C       -1.3542970     1.9956390    -0.0048030
  C        1.6363160     1.8972900     0.0117510
  C       -2.8711540    -0.5219980    -0.0023590
  H       -1.1766380    -2.6823000     0.0159410
  H       -2.1333760     2.0016470    -0.7732430
  H       -0.6949600     2.8439520    -0.1887900
  H       -1.8505650     2.1568320     0.9594550
  H        1.1855660    -2.6081270     0.0055670
  H        1.5190430     2.4748580    -0.9113220
  H        2.6811620     1.5965790     0.0968200
  H        1.3890810     2.5538390     0.8512930
  H       -3.2566820    -1.5436220     0.0624630
  H       -3.2744260    -0.0723770    -0.9160080
  H       -3.2759870     0.0412750     0.8446610
units angstrom
no_reorient  #important for SAPT in psi4, default
symmetry c1  #important for SAPT in psi4, default
}

set PROPERTIES_ORIGIN ["COM"]
properties('MP2/aug-cc-pvtz', properties = ['dipole'])
--------------------------------------------------------------------------

    Molecular point group: c1
  Charge       = 0
  Multiplicity = 1
  Basis Set: AUG-CC-PVTZ
    Blend: AUG-CC-PVTZ
  Basis Set: (AUG-CC-PVTZ AUX)
    Blend: AUG-CC-PVTZ-JKFIT

    Orbital Energies [Eh]
    ---------------------

    Doubly Occupied:

       1A    -20.508078     2A    -15.607370     3A    -11.348025
       4A    -11.280571     5A    -11.277705     6A    -11.243478
       7A    -11.239403     8A    -11.237595     9A    -11.235462
      10A    -11.213582    11A     -1.364813    12A     -1.259974
      13A     -1.121764    14A     -1.080177    15A     -0.992470
      16A     -0.966181    17A     -0.926440    18A     -0.822349
      19A     -0.799327    20A     -0.730585    21A     -0.696310
      22A     -0.637299    23A     -0.621704    24A     -0.611604
      25A     -0.597877    26A     -0.585464    27A     -0.576522
      28A     -0.572639    29A     -0.562701    30A     -0.551278
      31A     -0.543767    32A     -0.512994    33A     -0.471531
      34A     -0.458423    35A     -0.414777    36A     -0.372490
      37A     -0.316028

  @DF-RHF Final Energy:  -438.79514751910887

   => Energetics <=

    Nuclear Repulsion Energy =            521.3330037522367775
    One-Electron Energy =               -1629.5387828337318297
    Two-Electron Energy =                 669.4106315623862429
    Total Energy =                       -438.7951475191089230
  Basis Set: (AUG-CC-PVTZ AUX)
    Blend: AUG-CC-PVTZ-RI
    Molecular point group: c1

    Geometry (in Angstrom), charge = 0, multiplicity = 1:

       Center              X                  Y                   Z               Mass
    ------------   -----------------  -----------------  -----------------  -----------------
         O            2.683343925388    -0.678752706108    -0.012415663554    15.994914619570
         N            0.624381925388    -1.662873706108     0.006385336446    14.003074004430
         C           -0.657720074612     0.753089293892    -0.010405663554    12.000000000000
         C            0.723326925388     0.724910293892     0.003739336446    12.000000000000
         C           -1.528466074612    -0.633428506108     0.003808636446    12.000000000000
         C            1.450012925388    -0.539492706108    -0.004230663554    12.000000000000
         C           -0.741298074612    -1.649075706108     0.006932336446    12.000000000000
         C           -1.409227074612     2.059421293892    -0.004616663554    12.000000000000
         C            1.581385925388     1.961072293892     0.011937336446    12.000000000000
         C           -2.926084074612    -0.458215706108    -0.002172663554    12.000000000000
         H           -1.231568074612    -2.618517706108     0.016127336446     1.007825032230
         H           -2.188306074612     2.065429293892    -0.773056663554     1.007825032230
         H           -0.749890074612     2.907734293892    -0.188603663554     1.007825032230
         H           -1.905495074612     2.220614293892     0.959641336446     1.007825032230
         H            1.130635925388    -2.544344706108     0.005753336446     1.007825032230
         H            1.464112925388     2.538640293892    -0.911135663554     1.007825032230
         H            2.626231925388     1.660361293892     0.097006336446     1.007825032230
         H            1.334150925388     2.617621293892     0.851479336446     1.007825032230
         H           -3.311612074612    -1.479839706108     0.062649336446     1.007825032230
         H           -3.329356074612    -0.008594706108    -0.915821663554     1.007825032230
         H           -3.330917074612     0.105057293892     0.844847336446     1.007825032230

  Basis Set: AUG-CC-PVTZ
    Blend: AUG-CC-PVTZ
  Basis Set: (AUG-CC-PVTZ AUX)
    Blend: AUG-CC-PVTZ-JKFIT
	 Reference Energy          =    -438.7951475191088662 [Eh]
	 Singles Energy            =      -0.0000000000000000 [Eh]
	 Same-Spin Energy          =      -0.4675432151645118 [Eh]
	 Opposite-Spin Energy      =      -1.4977528281009014 [Eh]
	 Correlation Energy        =      -1.9652960432654132 [Eh]
	 Total Energy              =    -440.7604435623742916 [Eh]

	 ================> DF-SCS-MP2 Energies <==================
	-----------------------------------------------------------
	 SCS Same-Spin Scale       =       0.3333333333333333 [-]
	 SCS Opposite-Spin Scale   =       1.2000000000000000 [-]
	 SCS Same-Spin Energy      =      -0.1558477383881706 [Eh]
	 SCS Opposite-Spin Energy  =      -1.7973033937210816 [Eh]
	 SCS Correlation Energy    =      -1.9531511321092523 [Eh]
	 SCS Total Energy          =    -440.7482986512181355 [Eh]
	-----------------------------------------------------------

  Dipole Moment: [D]
     X:    -4.3085      Y:    -0.0240      Z:     0.0393     Total:     4.3087

*** Psi4 exiting successfully. Buy a developer a beer!
