                               Psi4 1.4a3.dev225

  ==> Input File <==

--------------------------------------------------------------------------
#psi4
#
memory 32 gb

molecule  {
0 1
  O        2.7382740    -0.7425350    -0.0126020
  N        0.6793120    -1.7266560     0.0061990
  C       -0.6027900     0.6893070    -0.0105920
  C        0.7782570     0.6611280     0.0035530
  C       -1.3671740    -0.5278470     0.0018860
  C        1.5049430    -0.6032750    -0.0044170
  C       -0.6863680    -1.7128580     0.0067460
  C       -1.3542970     1.9956390    -0.0048030
  C        1.6363160     1.8972900     0.0117510
  C       -2.8711540    -0.5219980    -0.0023590
  H       -1.1766380    -2.6823000     0.0159410
  H       -2.1333760     2.0016470    -0.7732430
  H       -0.6949600     2.8439520    -0.1887900
  H       -1.8505650     2.1568320     0.9594550
  H        1.1855660    -2.6081270     0.0055670
  H        1.5404594     2.3693827    -0.7427507
  H        2.6811620     1.5965790     0.0968200
  H        1.3890810     2.5538390     0.8512930
  H       -3.2566820    -1.5436220     0.0624630
  H       -3.2744260    -0.0723770    -0.9160080
  H       -3.2759870     0.0412750     0.8446610
units angstrom
no_reorient  #important for SAPT in psi4, default
symmetry c1  #important for SAPT in psi4, default
}

set PROPERTIES_ORIGIN ["COM"]
properties('MP2/aug-cc-pvtz', properties = ['dipole'])
--------------------------------------------------------------------------

    Molecular point group: c1
  Charge       = 0
  Multiplicity = 1
  Basis Set: AUG-CC-PVTZ
    Blend: AUG-CC-PVTZ
  Basis Set: (AUG-CC-PVTZ AUX)
    Blend: AUG-CC-PVTZ-JKFIT

    Orbital Energies [Eh]
    ---------------------

    Doubly Occupied:

       1A    -20.499643     2A    -15.615128     3A    -11.343326
       4A    -11.296201     5A    -11.268682     6A    -11.242559
       7A    -11.237413     8A    -11.237370     9A    -11.237023
      10A    -11.187776    11A     -1.361136    12A     -1.262559
      13A     -1.131978    14A     -1.064920    15A     -0.996280
      16A     -0.950058    17A     -0.946318    18A     -0.832761
      19A     -0.813668    20A     -0.726233    21A     -0.706724
      22A     -0.646832    23A     -0.624457    24A     -0.597750
      25A     -0.595959    26A     -0.584302    27A     -0.577659
      28A     -0.568821    29A     -0.563714    30A     -0.559391
      31A     -0.534301    32A     -0.506289    33A     -0.499655
      34A     -0.468288    35A     -0.415100    36A     -0.388699
      37A     -0.295632

  @DF-RHF Final Energy:  -438.79402090828148

   => Energetics <=

    Nuclear Repulsion Energy =            523.8548729308129168
    One-Electron Energy =               -1634.5285765551845998
    Two-Electron Energy =                 671.8796827160902012
    Total Energy =                       -438.7940209082814818
  Basis Set: (AUG-CC-PVTZ AUX)
    Blend: AUG-CC-PVTZ-RI
    Molecular point group: c1

    Geometry (in Angstrom), charge = 0, multiplicity = 1:

       Center              X                  Y                   Z               Mass
    ------------   -----------------  -----------------  -----------------  -----------------
         O            2.673875808188    -0.692802953062    -0.013502987431    15.994914619570
         N            0.614913808188    -1.676923953062     0.005298012569    14.003074004430
         C           -0.667188191812     0.739039046938    -0.011492987431    12.000000000000
         C            0.713858808188     0.710860046938     0.002652012569    12.000000000000
         C           -1.431572191812    -0.478114953062     0.000985012569    12.000000000000
         C            1.440544808188    -0.553542953062    -0.005317987431    12.000000000000
         C           -0.750766191812    -1.663125953062     0.005845012569    12.000000000000
         C           -1.418695191812     2.045371046938    -0.005703987431    12.000000000000
         C            1.571917808188     1.947022046938     0.010850012569    12.000000000000
         C           -2.935552191812    -0.472265953062    -0.003259987431    12.000000000000
         H           -1.241036191812    -2.632567953062     0.015040012569     1.007825032230
         H           -2.197774191812     2.051379046938    -0.774143987431     1.007825032230
         H           -0.759358191812     2.893684046938    -0.189690987431     1.007825032230
         H           -1.914963191812     2.206564046938     0.958554012569     1.007825032230
         H            1.121167808188    -2.558394953062     0.004666012569     1.007825032230
         H            1.476061208188     2.419114746938    -0.743651687431     1.007825032230
         H            2.616763808188     1.646311046938     0.095919012569     1.007825032230
         H            1.324682808188     2.603571046938     0.850392012569     1.007825032230
         H           -3.321080191812    -1.493889953062     0.061562012569     1.007825032230
         H           -3.338824191812    -0.022644953062    -0.916908987431     1.007825032230
         H           -3.340385191812     0.091007046938     0.843760012569     1.007825032230

  Basis Set: AUG-CC-PVTZ
    Blend: AUG-CC-PVTZ
  Basis Set: (AUG-CC-PVTZ AUX)
    Blend: AUG-CC-PVTZ-JKFIT
	 Reference Energy          =    -438.7940209082814818 [Eh]
	 Singles Energy            =      -0.0000000000000000 [Eh]
	 Same-Spin Energy          =      -0.4702047249479859 [Eh]
	 Opposite-Spin Energy      =      -1.4985924503654624 [Eh]
	 Correlation Energy        =      -1.9687971753134483 [Eh]
	 Total Energy              =    -440.7628180835949365 [Eh]

	 ================> DF-SCS-MP2 Energies <==================
	-----------------------------------------------------------
	 SCS Same-Spin Scale       =       0.3333333333333333 [-]
	 SCS Opposite-Spin Scale   =       1.2000000000000000 [-]
	 SCS Same-Spin Energy      =      -0.1567349083159953 [Eh]
	 SCS Opposite-Spin Energy  =      -1.7983109404385549 [Eh]
	 SCS Correlation Energy    =      -1.9550458487545501 [Eh]
	 SCS Total Energy          =    -440.7490667570360188 [Eh]
	-----------------------------------------------------------

  Dipole Moment: [D]
     X:    -4.4575      Y:    -0.2387      Z:    -0.0003     Total:     4.4639

*** Psi4 exiting successfully. Buy a developer a beer!
