                               Psi4 1.4a3.dev225

  ==> Input File <==

--------------------------------------------------------------------------
#psi4
#
memory 32 gb

molecule  {
0 1
  O        2.7382740    -0.7425350    -0.0126020
  N        0.6793120    -1.7266560     0.0061990
  C       -0.6027900     0.6893070    -0.0105920
  C        0.7782570     0.6611280     0.0035530
  C       -1.3671740    -0.5278470     0.0018860
  C        1.5049430    -0.6032750    -0.0044170
  C       -0.6863680    -1.7128580     0.0067460
  C       -1.3542970     1.9956390    -0.0048030
  C        1.6363160     1.8972900     0.0117510
  C       -2.8711540    -0.5219980    -0.0023590
  H       -1.1766380    -2.6823000     0.0159410
  H       -2.1333760     2.0016470    -0.7732430
  H       -0.6949600     2.8439520    -0.1887900
  H       -1.8505650     2.1568320     0.9594550
  H        1.1855660    -2.6081270     0.0055670
  H        1.4976266     2.5803333    -1.0798933
  H        2.6811620     1.5965790     0.0968200
  H        1.3890810     2.5538390     0.8512930
  H       -3.2566820    -1.5436220     0.0624630
  H       -3.2744260    -0.0723770    -0.9160080
  H       -3.2759870     0.0412750     0.8446610
units angstrom
no_reorient  #important for SAPT in psi4, default
symmetry c1  #important for SAPT in psi4, default
}

set PROPERTIES_ORIGIN ["COM"]
properties('MP2/aug-cc-pvtz', properties = ['dipole'])
--------------------------------------------------------------------------

    Molecular point group: c1
  Charge       = 0
  Multiplicity = 1
  Basis Set: AUG-CC-PVTZ
    Blend: AUG-CC-PVTZ
  Basis Set: (AUG-CC-PVTZ AUX)
    Blend: AUG-CC-PVTZ-JKFIT

    Orbital Energies [Eh]
    ---------------------

    Doubly Occupied:

       1A    -20.501339     2A    -15.616987     3A    -11.345616
       4A    -11.298248     5A    -11.270890     6A    -11.243980
       7A    -11.240258     8A    -11.237888     9A    -11.236806
      10A    -11.235890    11A     -1.362956    12A     -1.264389
      13A     -1.132228    14A     -1.061869    15A     -0.990068
      16A     -0.949656    17A     -0.927096    18A     -0.829968
      19A     -0.807639    20A     -0.727153    21A     -0.705631
      22A     -0.645934    23A     -0.620073    24A     -0.599283
      25A     -0.587125    26A     -0.582110    27A     -0.570985
      28A     -0.568733    29A     -0.562130    30A     -0.539201
      31A     -0.523582    32A     -0.505357    33A     -0.493180
      34A     -0.468873    35A     -0.416867    36A     -0.386885
      37A     -0.296103

  @DF-RHF Final Energy:  -438.80810764552831

   => Energetics <=

    Nuclear Repulsion Energy =            521.9944664791979676
    One-Electron Energy =               -1630.8991981389574448
    Two-Electron Energy =                 670.0966240142311108
    Total Energy =                       -438.8081076455282528
  Basis Set: (AUG-CC-PVTZ AUX)
    Blend: AUG-CC-PVTZ-RI
    Molecular point group: c1

    Geometry (in Angstrom), charge = 0, multiplicity = 1:

       Center              X                  Y                   Z               Mass
    ------------   -----------------  -----------------  -----------------  -----------------
         O            2.674190709620    -0.694353835704    -0.011024356860    15.994914619570
         N            0.615228709620    -1.678474835704     0.007776643140    14.003074004430
         C           -0.666873290380     0.737488164296    -0.009014356860    12.000000000000
         C            0.714173709620     0.709309164296     0.005130643140    12.000000000000
         C           -1.431257290380    -0.479665835704     0.003463643140    12.000000000000
         C            1.440859709620    -0.555093835704    -0.002839356860    12.000000000000
         C           -0.750451290380    -1.664676835704     0.008323643140    12.000000000000
         C           -1.418380290380     2.043820164296    -0.003225356860    12.000000000000
         C            1.572232709620     1.945471164296     0.013328643140    12.000000000000
         C           -2.935237290380    -0.473816835704    -0.000781356860    12.000000000000
         H           -1.240721290380    -2.634118835704     0.017518643140     1.007825032230
         H           -2.197459290380     2.049828164296    -0.771665356860     1.007825032230
         H           -0.759043290380     2.892133164296    -0.187212356860     1.007825032230
         H           -1.914648290380     2.205013164296     0.961032643140     1.007825032230
         H            1.121482709620    -2.559945835704     0.007144643140     1.007825032230
         H            1.433543309620     2.628514464296    -1.078315656860     1.007825032230
         H            2.617078709620     1.644760164296     0.098397643140     1.007825032230
         H            1.324997709620     2.602020164296     0.852870643140     1.007825032230
         H           -3.320765290380    -1.495440835704     0.064040643140     1.007825032230
         H           -3.338509290380    -0.024195835704    -0.914430356860     1.007825032230
         H           -3.340070290380     0.089456164296     0.846238643140     1.007825032230

  Basis Set: AUG-CC-PVTZ
    Blend: AUG-CC-PVTZ
  Basis Set: (AUG-CC-PVTZ AUX)
    Blend: AUG-CC-PVTZ-JKFIT
	 Reference Energy          =    -438.8081076455283096 [Eh]
	 Singles Energy            =      -0.0000000000000000 [Eh]
	 Same-Spin Energy          =      -0.4701507832577809 [Eh]
	 Opposite-Spin Energy      =      -1.5005441167549094 [Eh]
	 Correlation Energy        =      -1.9706949000126903 [Eh]
	 Total Energy              =    -440.7788025455409979 [Eh]

	 ================> DF-SCS-MP2 Energies <==================
	-----------------------------------------------------------
	 SCS Same-Spin Scale       =       0.3333333333333333 [-]
	 SCS Opposite-Spin Scale   =       1.2000000000000000 [-]
	 SCS Same-Spin Energy      =      -0.1567169277525936 [Eh]
	 SCS Opposite-Spin Energy  =      -1.8006529401058913 [Eh]
	 SCS Correlation Energy    =      -1.9573698678584850 [Eh]
	 SCS Total Energy          =    -440.7654775133867702 [Eh]
	-----------------------------------------------------------

  Dipole Moment: [D]
     X:    -4.4878      Y:    -0.4080      Z:     0.1306     Total:     4.5082

*** Psi4 exiting successfully. Buy a developer a beer!
