                               Psi4 1.4a3.dev225

  ==> Input File <==

--------------------------------------------------------------------------
#psi4
#
memory 32 gb

molecule  {
0 1
  O        2.7382740    -0.7425350    -0.0126020
  N        0.6793120    -1.7266560     0.0061990
  C       -0.6027900     0.6893070    -0.0105920
  C        0.7782570     0.6611280     0.0035530
  C       -1.3882988    -0.5143197     0.0021088
  C        1.5049430    -0.6032750    -0.0044170
  C       -0.6863680    -1.7128580     0.0067460
  C       -1.3542970     1.9956390    -0.0048030
  C        1.6363160     1.8972900     0.0117510
  C       -2.8711540    -0.5219980    -0.0023590
  H       -1.1766380    -2.6823000     0.0159410
  H       -2.1333760     2.0016470    -0.7732430
  H       -0.6949600     2.8439520    -0.1887900
  H       -1.8505650     2.1568320     0.9594550
  H        1.1855660    -2.6081270     0.0055670
  H        1.5190430     2.4748580    -0.9113220
  H        2.6811620     1.5965790     0.0968200
  H        1.3890810     2.5538390     0.8512930
  H       -3.2566820    -1.5436220     0.0624630
  H       -3.2744260    -0.0723770    -0.9160080
  H       -3.2759870     0.0412750     0.8446610
units angstrom
no_reorient  #important for SAPT in psi4, default
symmetry c1  #important for SAPT in psi4, default
}

set PROPERTIES_ORIGIN ["COM"]
properties('MP2/aug-cc-pvtz', properties = ['dipole'])
--------------------------------------------------------------------------

    Molecular point group: c1
  Charge       = 0
  Multiplicity = 1
  Basis Set: AUG-CC-PVTZ
    Blend: AUG-CC-PVTZ
  Basis Set: (AUG-CC-PVTZ AUX)
    Blend: AUG-CC-PVTZ-JKFIT

    Orbital Energies [Eh]
    ---------------------

    Doubly Occupied:

       1A    -20.499946     2A    -15.617672     3A    -11.343951
       4A    -11.300510     5A    -11.269207     6A    -11.244777
       7A    -11.238004     8A    -11.236652     9A    -11.236243
      10A    -11.212666    11A     -1.361741    12A     -1.262999
      13A     -1.131992    14A     -1.062538    15A     -0.990630
      16A     -0.949365    17A     -0.933674    18A     -0.830005
      19A     -0.809342    20A     -0.726128    21A     -0.705848
      22A     -0.644859    23A     -0.620946    24A     -0.597812
      25A     -0.589356    26A     -0.583023    27A     -0.572128
      28A     -0.570336    29A     -0.560380    30A     -0.550154
      31A     -0.533439    32A     -0.508045    33A     -0.497881
      34A     -0.467488    35A     -0.415414    36A     -0.387368
      37A     -0.292966

  @DF-RHF Final Energy:  -438.82560421743074

   => Energetics <=

    Nuclear Repulsion Energy =            522.6200067308978987
    One-Electron Energy =               -1632.1802606096302952
    Two-Electron Energy =                 670.7346496613017734
    Total Energy =                       -438.8256042174307368
  Basis Set: (AUG-CC-PVTZ AUX)
    Blend: AUG-CC-PVTZ-RI
    Molecular point group: c1

    Geometry (in Angstrom), charge = 0, multiplicity = 1:

       Center              X                  Y                   Z               Mass
    ------------   -----------------  -----------------  -----------------  -----------------
         O            2.675882471661    -0.694762540777    -0.012283175507    15.994914619570
         N            0.616920471661    -1.678883540777     0.006517824493    14.003074004430
         C           -0.665181528339     0.737079459223    -0.010273175507    12.000000000000
         C            0.715865471661     0.708900459223     0.003871824493    12.000000000000
         C           -1.450690328339    -0.466547240777     0.002427624493    12.000000000000
         C            1.442551471661    -0.555502540777    -0.004098175507    12.000000000000
         C           -0.748759528339    -1.665085540777     0.007064824493    12.000000000000
         C           -1.416688528339     2.043411459223    -0.004484175507    12.000000000000
         C            1.573924471661     1.945062459223     0.012069824493    12.000000000000
         C           -2.933545528339    -0.474225540777    -0.002040175507    12.000000000000
         H           -1.239029528339    -2.634527540777     0.016259824493     1.007825032230
         H           -2.195767528339     2.049419459223    -0.772924175507     1.007825032230
         H           -0.757351528339     2.891724459223    -0.188471175507     1.007825032230
         H           -1.912956528339     2.204604459223     0.959773824493     1.007825032230
         H            1.123174471661    -2.560354540777     0.005885824493     1.007825032230
         H            1.456651471661     2.522630459223    -0.911003175507     1.007825032230
         H            2.618770471661     1.644351459223     0.097138824493     1.007825032230
         H            1.326689471661     2.601611459223     0.851611824493     1.007825032230
         H           -3.319073528339    -1.495849540777     0.062781824493     1.007825032230
         H           -3.336817528339    -0.024604540777    -0.915689175507     1.007825032230
         H           -3.338378528339     0.089047459223     0.844979824493     1.007825032230

  Basis Set: AUG-CC-PVTZ
    Blend: AUG-CC-PVTZ
  Basis Set: (AUG-CC-PVTZ AUX)
    Blend: AUG-CC-PVTZ-JKFIT
	 Reference Energy          =    -438.8256042174307368 [Eh]
	 Singles Energy            =      -0.0000000000000000 [Eh]
	 Same-Spin Energy          =      -0.4706835374138039 [Eh]
	 Opposite-Spin Energy      =      -1.4998497007264209 [Eh]
	 Correlation Energy        =      -1.9705332381402247 [Eh]
	 Total Energy              =    -440.7961374555709426 [Eh]

	 ================> DF-SCS-MP2 Energies <==================
	-----------------------------------------------------------
	 SCS Same-Spin Scale       =       0.3333333333333333 [-]
	 SCS Opposite-Spin Scale   =       1.2000000000000000 [-]
	 SCS Same-Spin Energy      =      -0.1568945124712680 [Eh]
	 SCS Opposite-Spin Energy  =      -1.7998196408717051 [Eh]
	 SCS Correlation Energy    =      -1.9567141533429731 [Eh]
	 SCS Total Energy          =    -440.7823183707737371 [Eh]
	-----------------------------------------------------------

  Dipole Moment: [D]
     X:    -4.4856      Y:    -0.3190      Z:     0.0418     Total:     4.4971

*** Psi4 exiting successfully. Buy a developer a beer!
