                               Psi4 1.4a3.dev225

  ==> Input File <==

--------------------------------------------------------------------------
#psi4
#
memory 32 gb

molecule  {
0 1
  O        2.7382740    -0.7425350    -0.0126020
  N        0.6793120    -1.7266560     0.0061990
  C       -0.6027900     0.6893070    -0.0105920
  C        0.7782570     0.6611280     0.0035530
  C       -1.3671740    -0.5278470     0.0018860
  C        1.5049430    -0.6032750    -0.0044170
  C       -0.6863680    -1.7128580     0.0067460
  C       -1.3542970     1.9956390    -0.0048030
  C        1.6363160     1.8972900     0.0117510
  C       -2.8711540    -0.5219980    -0.0023590
  H       -1.1766380    -2.6823000     0.0159410
  H       -2.1333760     2.0016470    -0.7732430
  H       -0.6949600     2.8439520    -0.1887900
  H       -1.8505650     2.1568320     0.9594550
  H        1.1855660    -2.6081270     0.0055670
  H        1.5190430     2.4748580    -0.9113220
  H        2.6811620     1.5965790     0.0968200
  H        1.3890810     2.5538390     0.8512930
  H       -3.3271709    -1.7304129     0.0743149
  H       -3.2744260    -0.0723770    -0.9160080
  H       -3.2759870     0.0412750     0.8446610
units angstrom
no_reorient  #important for SAPT in psi4, default
symmetry c1  #important for SAPT in psi4, default
}

set PROPERTIES_ORIGIN ["COM"]
properties('MP2/aug-cc-pvtz', properties = ['dipole'])
--------------------------------------------------------------------------

    Molecular point group: c1
  Charge       = 0
  Multiplicity = 1
  Basis Set: AUG-CC-PVTZ
    Blend: AUG-CC-PVTZ
  Basis Set: (AUG-CC-PVTZ AUX)
    Blend: AUG-CC-PVTZ-JKFIT

    Orbital Energies [Eh]
    ---------------------

    Doubly Occupied:

       1A    -20.500917     2A    -15.616486     3A    -11.344858
       4A    -11.297635     5A    -11.271035     6A    -11.260188
       7A    -11.244716     8A    -11.239474     9A    -11.238507
      10A    -11.213627    11A     -1.362458    12A     -1.263885
      13A     -1.132420    14A     -1.060458    15A     -0.991888
      16A     -0.941054    17A     -0.934264    18A     -0.830658
      19A     -0.807770    20A     -0.726886    21A     -0.703517
      22A     -0.645980    23A     -0.622330    24A     -0.598644
      25A     -0.588138    26A     -0.584140    27A     -0.573291
      28A     -0.563207    29A     -0.552641    30A     -0.550113
      31A     -0.521858    32A     -0.506509    33A     -0.490865
      34A     -0.469319    35A     -0.416426    36A     -0.389282
      37A     -0.296370

  @DF-RHF Final Energy:  -438.80728742742753

   => Energetics <=

    Nuclear Repulsion Energy =            522.0076288348957405
    One-Electron Energy =               -1630.9262031948592266
    Two-Electron Energy =                 670.1112869325360180
    Total Energy =                       -438.8072874274274682
  Basis Set: (AUG-CC-PVTZ AUX)
    Blend: AUG-CC-PVTZ-RI
    Molecular point group: c1

    Geometry (in Angstrom), charge = 0, multiplicity = 1:

       Center              X                  Y                   Z               Mass
    ------------   -----------------  -----------------  -----------------  -----------------
         O            2.674551484552    -0.692205130859    -0.012350805844    15.994914619570
         N            0.615589484552    -1.676326130859     0.006450194156    14.003074004430
         C           -0.666512515448     0.739636869141    -0.010340805844    12.000000000000
         C            0.714534484552     0.711457869141     0.003804194156    12.000000000000
         C           -1.430896515448    -0.477517130859     0.002137194156    12.000000000000
         C            1.441220484552    -0.552945130859    -0.004165805844    12.000000000000
         C           -0.750090515448    -1.662528130859     0.006997194156    12.000000000000
         C           -1.418019515448     2.045968869141    -0.004551805844    12.000000000000
         C            1.572593484552     1.947619869141     0.012002194156    12.000000000000
         C           -2.934876515448    -0.471668130859    -0.002107805844    12.000000000000
         H           -1.240360515448    -2.631970130859     0.016192194156     1.007825032230
         H           -2.197098515448     2.051976869141    -0.772991805844     1.007825032230
         H           -0.758682515448     2.894281869141    -0.188538805844     1.007825032230
         H           -1.914287515448     2.207161869141     0.959706194156     1.007825032230
         H            1.121843484552    -2.557797130859     0.005818194156     1.007825032230
         H            1.455320484552     2.525187869141    -0.911070805844     1.007825032230
         H            2.617439484552     1.646908869141     0.097071194156     1.007825032230
         H            1.325358484552     2.604168869141     0.851544194156     1.007825032230
         H           -3.390893415448    -1.680083030859     0.074566094156     1.007825032230
         H           -3.338148515448    -0.022047130859    -0.915756805844     1.007825032230
         H           -3.339709515448     0.091604869141     0.844912194156     1.007825032230

  Basis Set: AUG-CC-PVTZ
    Blend: AUG-CC-PVTZ
  Basis Set: (AUG-CC-PVTZ AUX)
    Blend: AUG-CC-PVTZ-JKFIT
	 Reference Energy          =    -438.8072874274275250 [Eh]
	 Singles Energy            =      -0.0000000000000000 [Eh]
	 Same-Spin Energy          =      -0.4702695551864332 [Eh]
	 Opposite-Spin Energy      =      -1.5009721380488972 [Eh]
	 Correlation Energy        =      -1.9712416932353305 [Eh]
	 Total Energy              =    -440.7785291206628813 [Eh]

	 ================> DF-SCS-MP2 Energies <==================
	-----------------------------------------------------------
	 SCS Same-Spin Scale       =       0.3333333333333333 [-]
	 SCS Opposite-Spin Scale   =       1.2000000000000000 [-]
	 SCS Same-Spin Energy      =      -0.1567565183954777 [Eh]
	 SCS Opposite-Spin Energy  =      -1.8011665656586766 [Eh]
	 SCS Correlation Energy    =      -1.9579230840541544 [Eh]
	 SCS Total Energy          =    -440.7652105114816550 [Eh]
	-----------------------------------------------------------

  Dipole Moment: [D]
     X:    -4.3532      Y:    -0.1755      Z:     0.0362     Total:     4.3569

*** Psi4 exiting successfully. Buy a developer a beer!
