                               Psi4 1.4a3.dev225

  ==> Input File <==

--------------------------------------------------------------------------
#psi4
#
memory 32 gb

molecule  {
0 1
  O        2.7382740    -0.7425350    -0.0126020
  N        0.6793120    -1.7266560     0.0061990
  C       -0.6027900     0.6893070    -0.0105920
  C        0.7782570     0.6611280     0.0035530
  C       -1.2804120    -0.5782093     0.0009576
  C        1.5049430    -0.6032750    -0.0044170
  C       -0.6863680    -1.7128580     0.0067460
  C       -1.3542970     1.9956390    -0.0048030
  C        1.6363160     1.8972900     0.0117510
  C       -2.8711540    -0.5219980    -0.0023590
  H       -1.1766380    -2.6823000     0.0159410
  H       -2.1333760     2.0016470    -0.7732430
  H       -0.6949600     2.8439520    -0.1887900
  H       -1.8505650     2.1568320     0.9594550
  H        1.1855660    -2.6081270     0.0055670
  H        1.5190430     2.4748580    -0.9113220
  H        2.6811620     1.5965790     0.0968200
  H        1.3890810     2.5538390     0.8512930
  H       -3.2566820    -1.5436220     0.0624630
  H       -3.2744260    -0.0723770    -0.9160080
  H       -3.2759870     0.0412750     0.8446610
units angstrom
no_reorient  #important for SAPT in psi4, default
symmetry c1  #important for SAPT in psi4, default
}

set PROPERTIES_ORIGIN ["COM"]
properties('MP2/aug-cc-pvtz', properties = ['dipole'])
--------------------------------------------------------------------------

    Molecular point group: c1
  Charge       = 0
  Multiplicity = 1
  Basis Set: AUG-CC-PVTZ
    Blend: AUG-CC-PVTZ
  Basis Set: (AUG-CC-PVTZ AUX)
    Blend: AUG-CC-PVTZ-JKFIT

    Orbital Energies [Eh]
    ---------------------

    Doubly Occupied:

       1A    -20.501227     2A    -15.608250     3A    -11.344763
       4A    -11.281424     5A    -11.270037     6A    -11.240412
       7A    -11.240089     8A    -11.239341     9A    -11.236150
      10A    -11.213405    11A     -1.361953    12A     -1.265018
      13A     -1.130420    14A     -1.063308    15A     -0.994510
      16A     -0.944631    17A     -0.935736    18A     -0.833075
      19A     -0.809517    20A     -0.726511    21A     -0.704253
      22A     -0.648494    23A     -0.620820    24A     -0.600155
      25A     -0.581305    26A     -0.581142    27A     -0.569797
      28A     -0.568334    29A     -0.558409    30A     -0.550243
      31A     -0.535242    32A     -0.509474    33A     -0.484462
      34A     -0.474177    35A     -0.416515    36A     -0.389806
      37A     -0.305838

  @DF-RHF Final Energy:  -438.81776069096566

   => Energetics <=

    Nuclear Repulsion Energy =            523.7402929273742984
    One-Electron Energy =               -1634.4396197862915869
    Two-Electron Energy =                 671.8815661679515188
    Total Energy =                       -438.8177606909656561
  Basis Set: (AUG-CC-PVTZ AUX)
    Blend: AUG-CC-PVTZ-RI
    Molecular point group: c1

    Geometry (in Angstrom), charge = 0, multiplicity = 1:

       Center              X                  Y                   Z               Mass
    ------------   -----------------  -----------------  -----------------  -----------------
         O            2.666438327956    -0.689169803169    -0.012182402305    15.994914619570
         N            0.607476327956    -1.673290803169     0.006618597695    14.003074004430
         C           -0.674625672044     0.742672196831    -0.010172402305    12.000000000000
         C            0.706421327956     0.714493196831     0.003972597695    12.000000000000
         C           -1.352247672044    -0.524844103169     0.001377197695    12.000000000000
         C            1.433107327956    -0.549909803169    -0.003997402305    12.000000000000
         C           -0.758203672044    -1.659492803169     0.007165597695    12.000000000000
         C           -1.426132672044     2.049004196831    -0.004383402305    12.000000000000
         C            1.564480327956     1.950655196831     0.012170597695    12.000000000000
         C           -2.942989672044    -0.468632803169    -0.001939402305    12.000000000000
         H           -1.248473672044    -2.628934803169     0.016360597695     1.007825032230
         H           -2.205211672044     2.055012196831    -0.772823402305     1.007825032230
         H           -0.766795672044     2.897317196831    -0.188370402305     1.007825032230
         H           -1.922400672044     2.210197196831     0.959874597695     1.007825032230
         H            1.113730327956    -2.554761803169     0.005986597695     1.007825032230
         H            1.447207327956     2.528223196831    -0.910902402305     1.007825032230
         H            2.609326327956     1.649944196831     0.097239597695     1.007825032230
         H            1.317245327956     2.607204196831     0.851712597695     1.007825032230
         H           -3.328517672044    -1.490256803169     0.062882597695     1.007825032230
         H           -3.346261672044    -0.019011803169    -0.915588402305     1.007825032230
         H           -3.347822672044     0.094640196831     0.845080597695     1.007825032230

  Basis Set: AUG-CC-PVTZ
    Blend: AUG-CC-PVTZ
  Basis Set: (AUG-CC-PVTZ AUX)
    Blend: AUG-CC-PVTZ-JKFIT
	 Reference Energy          =    -438.8177606909656561 [Eh]
	 Singles Energy            =      -0.0000000000000000 [Eh]
	 Same-Spin Energy          =      -0.4686229820159067 [Eh]
	 Opposite-Spin Energy      =      -1.4974468344646268 [Eh]
	 Correlation Energy        =      -1.9660698164805335 [Eh]
	 Total Energy              =    -440.7838305074461687 [Eh]

	 ================> DF-SCS-MP2 Energies <==================
	-----------------------------------------------------------
	 SCS Same-Spin Scale       =       0.3333333333333333 [-]
	 SCS Opposite-Spin Scale   =       1.2000000000000000 [-]
	 SCS Same-Spin Energy      =      -0.1562076606719689 [Eh]
	 SCS Opposite-Spin Energy  =      -1.7969362013575521 [Eh]
	 SCS Correlation Energy    =      -1.9531438620295209 [Eh]
	 SCS Total Energy          =    -440.7709045529952050 [Eh]
	-----------------------------------------------------------

  Dipole Moment: [D]
     X:    -4.3851      Y:    -0.1747      Z:     0.0414     Total:     4.3888

*** Psi4 exiting successfully. Buy a developer a beer!
