                               Psi4 1.4a3.dev225

  ==> Input File <==

--------------------------------------------------------------------------
#psi4
#
memory 32 gb

molecule  {
0 1
  O        2.7382740    -0.7425350    -0.0126020
  N        0.6793120    -1.7266560     0.0061990
  C       -0.6027900     0.6893070    -0.0105920
  C        0.7782570     0.6611280     0.0035530
  C       -1.3671740    -0.5278470     0.0018860
  C        1.5049430    -0.6032750    -0.0044170
  C       -0.6663690    -1.7130601     0.0067380
  C       -1.3542970     1.9956390    -0.0048030
  C        1.6363160     1.8972900     0.0117510
  C       -2.8711540    -0.5219980    -0.0023590
  H       -1.1766380    -2.6823000     0.0159410
  H       -2.1333760     2.0016470    -0.7732430
  H       -0.6949600     2.8439520    -0.1887900
  H       -1.8505650     2.1568320     0.9594550
  H        1.1855660    -2.6081270     0.0055670
  H        1.5190430     2.4748580    -0.9113220
  H        2.6811620     1.5965790     0.0968200
  H        1.3890810     2.5538390     0.8512930
  H       -3.2566820    -1.5436220     0.0624630
  H       -3.2744260    -0.0723770    -0.9160080
  H       -3.2759870     0.0412750     0.8446610
units angstrom
no_reorient  #important for SAPT in psi4, default
symmetry c1  #important for SAPT in psi4, default
}

set PROPERTIES_ORIGIN ["COM"]
properties('MP2/aug-cc-pvtz', properties = ['dipole'])
--------------------------------------------------------------------------

    Molecular point group: c1
  Charge       = 0
  Multiplicity = 1
  Basis Set: AUG-CC-PVTZ
    Blend: AUG-CC-PVTZ
  Basis Set: (AUG-CC-PVTZ AUX)
    Blend: AUG-CC-PVTZ-JKFIT

    Orbital Energies [Eh]
    ---------------------

    Doubly Occupied:

       1A    -20.500237     2A    -15.618220     3A    -11.344318
       4A    -11.298353     5A    -11.268882     6A    -11.242620
       7A    -11.237206     8A    -11.237169     9A    -11.236531
      10A    -11.212322    11A     -1.363314    12A     -1.269317
      13A     -1.131266    14A     -1.060222    15A     -0.990436
      16A     -0.949044    17A     -0.934695    18A     -0.830151
      19A     -0.811039    20A     -0.730357    21A     -0.706162
      22A     -0.642395    23A     -0.621529    24A     -0.597896
      25A     -0.586709    26A     -0.583544    27A     -0.571250
      28A     -0.568932    29A     -0.560665    30A     -0.550326
      31A     -0.533981    32A     -0.505807    33A     -0.497787
      34A     -0.470203    35A     -0.415795    36A     -0.387982
      37A     -0.293010

  @DF-RHF Final Energy:  -438.82701899704375

   => Energetics <=

    Nuclear Repulsion Energy =            523.0016217169486481
    One-Electron Energy =               -1632.9379488048734856
    Two-Electron Energy =                 671.1093080908810862
    Total Energy =                       -438.8270189970437514
  Basis Set: (AUG-CC-PVTZ AUX)
    Blend: AUG-CC-PVTZ-RI
    Molecular point group: c1

    Geometry (in Angstrom), charge = 0, multiplicity = 1:

       Center              X                  Y                   Z               Mass
    ------------   -----------------  -----------------  -----------------  -----------------
         O            2.672282595894    -0.693560703049    -0.012262971845    15.994914619570
         N            0.613320595894    -1.677681703049     0.006538028155    14.003074004430
         C           -0.668781404106     0.738281296951    -0.010252971845    12.000000000000
         C            0.712265595894     0.710102296951     0.003892028155    12.000000000000
         C           -1.433165404106    -0.478872703049     0.002225028155    12.000000000000
         C            1.438951595894    -0.554300703049    -0.004077971845    12.000000000000
         C           -0.732360404106    -1.664085803049     0.007077028155    12.000000000000
         C           -1.420288404106     2.044613296951    -0.004463971845    12.000000000000
         C            1.570324595894     1.946264296951     0.012090028155    12.000000000000
         C           -2.937145404106    -0.473023703049    -0.002019971845    12.000000000000
         H           -1.242629404106    -2.633325703049     0.016280028155     1.007825032230
         H           -2.199367404106     2.050621296951    -0.772903971845     1.007825032230
         H           -0.760951404106     2.892926296951    -0.188450971845     1.007825032230
         H           -1.916556404106     2.205806296951     0.959794028155     1.007825032230
         H            1.119574595894    -2.559152703049     0.005906028155     1.007825032230
         H            1.453051595894     2.523832296951    -0.910982971845     1.007825032230
         H            2.615170595894     1.645553296951     0.097159028155     1.007825032230
         H            1.323089595894     2.602813296951     0.851632028155     1.007825032230
         H           -3.322673404106    -1.494647703049     0.062802028155     1.007825032230
         H           -3.340417404106    -0.023402703049    -0.915668971845     1.007825032230
         H           -3.341978404106     0.090249296951     0.845000028155     1.007825032230

  Basis Set: AUG-CC-PVTZ
    Blend: AUG-CC-PVTZ
  Basis Set: (AUG-CC-PVTZ AUX)
    Blend: AUG-CC-PVTZ-JKFIT
	 Reference Energy          =    -438.8270189970437514 [Eh]
	 Singles Energy            =      -0.0000000000000000 [Eh]
	 Same-Spin Energy          =      -0.4704703085497778 [Eh]
	 Opposite-Spin Energy      =      -1.4991941638125263 [Eh]
	 Correlation Energy        =      -1.9696644723623042 [Eh]
	 Total Energy              =    -440.7966834694060481 [Eh]

	 ================> DF-SCS-MP2 Energies <==================
	-----------------------------------------------------------
	 SCS Same-Spin Scale       =       0.3333333333333333 [-]
	 SCS Opposite-Spin Scale   =       1.2000000000000000 [-]
	 SCS Same-Spin Energy      =      -0.1568234361832593 [Eh]
	 SCS Opposite-Spin Energy  =      -1.7990329965750316 [Eh]
	 SCS Correlation Energy    =      -1.9558564327582908 [Eh]
	 SCS Total Energy          =    -440.7828754298020613 [Eh]
	-----------------------------------------------------------

  Dipole Moment: [D]
     X:    -4.4367      Y:    -0.3395      Z:     0.0421     Total:     4.4499

*** Psi4 exiting successfully. Buy a developer a beer!
