                               Psi4 1.4a3.dev225

  ==> Input File <==

--------------------------------------------------------------------------
#psi4
#
memory 32 gb

molecule  {
0 1
  O        2.7382740    -0.7425350    -0.0126020
  N        0.6793120    -1.7266560     0.0061990
  C       -0.6027900     0.6893070    -0.0105920
  C        0.7782570     0.6611280     0.0035530
  C       -1.3671740    -0.5278470     0.0018860
  C        1.5049430    -0.6032750    -0.0044170
  C       -0.6863680    -1.7128580     0.0067460
  C       -1.3542970     1.9956390    -0.0048030
  C        1.6249117     1.8808604     0.0116420
  C       -2.8711540    -0.5219980    -0.0023590
  H       -1.1766380    -2.6823000     0.0159410
  H       -2.1333760     2.0016470    -0.7732430
  H       -0.6949600     2.8439520    -0.1887900
  H       -1.8505650     2.1568320     0.9594550
  H        1.1855660    -2.6081270     0.0055670
  H        1.5190430     2.4748580    -0.9113220
  H        2.6811620     1.5965790     0.0968200
  H        1.3890810     2.5538390     0.8512930
  H       -3.2566820    -1.5436220     0.0624630
  H       -3.2744260    -0.0723770    -0.9160080
  H       -3.2759870     0.0412750     0.8446610
units angstrom
no_reorient  #important for SAPT in psi4, default
symmetry c1  #important for SAPT in psi4, default
}

set PROPERTIES_ORIGIN ["COM"]
properties('MP2/aug-cc-pvtz', properties = ['dipole'])
--------------------------------------------------------------------------

    Molecular point group: c1
  Charge       = 0
  Multiplicity = 1
  Basis Set: AUG-CC-PVTZ
    Blend: AUG-CC-PVTZ
  Basis Set: (AUG-CC-PVTZ AUX)
    Blend: AUG-CC-PVTZ-JKFIT

    Orbital Energies [Eh]
    ---------------------

    Doubly Occupied:

       1A    -20.500322     2A    -15.615834     3A    -11.344167
       4A    -11.296883     5A    -11.269354     6A    -11.243077
       7A    -11.237651     8A    -11.237313     9A    -11.237001
      10A    -11.213258    11A     -1.361900    12A     -1.263242
      13A     -1.132333    14A     -1.063480    15A     -0.992043
      16A     -0.948909    17A     -0.933639    18A     -0.830306
      19A     -0.809343    20A     -0.726397    21A     -0.706112
      22A     -0.645765    23A     -0.620847    24A     -0.598317
      25A     -0.587878    26A     -0.582401    27A     -0.571154
      28A     -0.569945    29A     -0.562622    30A     -0.547821
      31A     -0.532946    32A     -0.503753    33A     -0.501301
      34A     -0.468591    35A     -0.415994    36A     -0.387415
      37A     -0.295399

  @DF-RHF Final Energy:  -438.82694663421483

   => Energetics <=

    Nuclear Repulsion Energy =            523.1980568264901876
    One-Electron Energy =               -1633.3405815236862964
    Two-Electron Energy =                 671.3155780629813307
    Total Energy =                       -438.8269466342148917
  Basis Set: (AUG-CC-PVTZ AUX)
    Blend: AUG-CC-PVTZ-RI
    Molecular point group: c1

    Geometry (in Angstrom), charge = 0, multiplicity = 1:

       Center              X                  Y                   Z               Mass
    ------------   -----------------  -----------------  -----------------  -----------------
         O            2.675031563127    -0.692140187824    -0.012254130555    15.994914619570
         N            0.616069563127    -1.676261187824     0.006546869445    14.003074004430
         C           -0.666032436873     0.739701812176    -0.010244130555    12.000000000000
         C            0.715014563127     0.711522812176     0.003900869445    12.000000000000
         C           -1.430416436873    -0.477452187824     0.002233869445    12.000000000000
         C            1.441700563127    -0.552880187824    -0.004069130555    12.000000000000
         C           -0.749610436873    -1.662463187824     0.007093869445    12.000000000000
         C           -1.417539436873     2.046033812176    -0.004455130555    12.000000000000
         C            1.561669263127     1.931255212176     0.011989869445    12.000000000000
         C           -2.934396436873    -0.471603187824    -0.002011130555    12.000000000000
         H           -1.239880436873    -2.631905187824     0.016288869445     1.007825032230
         H           -2.196618436873     2.052041812176    -0.772895130555     1.007825032230
         H           -0.758202436873     2.894346812176    -0.188442130555     1.007825032230
         H           -1.913807436873     2.207226812176     0.959802869445     1.007825032230
         H            1.122323563127    -2.557732187824     0.005914869445     1.007825032230
         H            1.455800563127     2.525252812176    -0.910974130555     1.007825032230
         H            2.617919563127     1.646973812176     0.097167869445     1.007825032230
         H            1.325838563127     2.604233812176     0.851640869445     1.007825032230
         H           -3.319924436873    -1.493227187824     0.062810869445     1.007825032230
         H           -3.337668436873    -0.021982187824    -0.915660130555     1.007825032230
         H           -3.339229436873     0.091669812176     0.845008869445     1.007825032230

  Basis Set: AUG-CC-PVTZ
    Blend: AUG-CC-PVTZ
  Basis Set: (AUG-CC-PVTZ AUX)
    Blend: AUG-CC-PVTZ-JKFIT
	 Reference Energy          =    -438.8269466342148348 [Eh]
	 Singles Energy            =      -0.0000000000000000 [Eh]
	 Same-Spin Energy          =      -0.4703833763486130 [Eh]
	 Opposite-Spin Energy      =      -1.4993746972575439 [Eh]
	 Correlation Energy        =      -1.9697580736061568 [Eh]
	 Total Energy              =    -440.7967047078209930 [Eh]

	 ================> DF-SCS-MP2 Energies <==================
	-----------------------------------------------------------
	 SCS Same-Spin Scale       =       0.3333333333333333 [-]
	 SCS Opposite-Spin Scale   =       1.2000000000000000 [-]
	 SCS Same-Spin Energy      =      -0.1567944587828710 [Eh]
	 SCS Opposite-Spin Energy  =      -1.7992496367090527 [Eh]
	 SCS Correlation Energy    =      -1.9560440954919236 [Eh]
	 SCS Total Energy          =    -440.7829907297067393 [Eh]
	-----------------------------------------------------------

  Dipole Moment: [D]
     X:    -4.4562      Y:    -0.2918      Z:     0.0416     Total:     4.4659

*** Psi4 exiting successfully. Buy a developer a beer!
