                               Psi4 1.4a3.dev225

  ==> Input File <==

--------------------------------------------------------------------------
#psi4
#
memory 32 gb

molecule  {
0 1
  O        2.7382740    -0.7425350    -0.0126020
  N        0.6793120    -1.7266560     0.0061990
  C       -0.6027900     0.6893070    -0.0105920
  C        0.7782570     0.6611280     0.0035530
  C       -1.3671740    -0.5278470     0.0018860
  C        1.5049430    -0.6032750    -0.0044170
  C       -0.6863680    -1.7128580     0.0067460
  C       -1.3044320     1.9089595    -0.0051871
  C        1.6363160     1.8972900     0.0117510
  C       -2.8711540    -0.5219980    -0.0023590
  H       -1.1766380    -2.6823000     0.0159410
  H       -2.1333760     2.0016470    -0.7732430
  H       -0.6949600     2.8439520    -0.1887900
  H       -1.8505650     2.1568320     0.9594550
  H        1.1855660    -2.6081270     0.0055670
  H        1.5190430     2.4748580    -0.9113220
  H        2.6811620     1.5965790     0.0968200
  H        1.3890810     2.5538390     0.8512930
  H       -3.2566820    -1.5436220     0.0624630
  H       -3.2744260    -0.0723770    -0.9160080
  H       -3.2759870     0.0412750     0.8446610
units angstrom
no_reorient  #important for SAPT in psi4, default
symmetry c1  #important for SAPT in psi4, default
}

set PROPERTIES_ORIGIN ["COM"]
properties('MP2/aug-cc-pvtz', properties = ['dipole'])
--------------------------------------------------------------------------

    Molecular point group: c1
  Charge       = 0
  Multiplicity = 1
  Basis Set: AUG-CC-PVTZ
    Blend: AUG-CC-PVTZ
  Basis Set: (AUG-CC-PVTZ AUX)
    Blend: AUG-CC-PVTZ-JKFIT

    Orbital Energies [Eh]
    ---------------------

    Doubly Occupied:

       1A    -20.500319     2A    -15.615708     3A    -11.344127
       4A    -11.296875     5A    -11.264145     6A    -11.242886
       7A    -11.241357     8A    -11.238722     9A    -11.237076
      10A    -11.212735    11A     -1.361840    12A     -1.263396
      13A     -1.142024    14A     -1.063118    15A     -0.997923
      16A     -0.948795    17A     -0.932464    18A     -0.826529
      19A     -0.810384    20A     -0.727029    21A     -0.707442
      22A     -0.655872    23A     -0.620658    24A     -0.599235
      25A     -0.594905    26A     -0.580239    27A     -0.573746
      28A     -0.565487    29A     -0.554056    30A     -0.545618
      31A     -0.528766    32A     -0.509366    33A     -0.494571
      34A     -0.468371    35A     -0.416669    36A     -0.383852
      37A     -0.295638

  @DF-RHF Final Energy:  -438.81514397171276

   => Energetics <=

    Nuclear Repulsion Energy =            524.7282670519512067
    One-Electron Energy =               -1636.3629333829965162
    Two-Electron Energy =                 672.8195223593324954
    Total Energy =                       -438.8151439717128142
  Basis Set: (AUG-CC-PVTZ AUX)
    Blend: AUG-CC-PVTZ-RI
    Molecular point group: c1

    Geometry (in Angstrom), charge = 0, multiplicity = 1:

       Center              X                  Y                   Z               Mass
    ------------   -----------------  -----------------  -----------------  -----------------
         O            2.669668200102    -0.685990685281    -0.012230048981    15.994914619570
         N            0.610706200102    -1.670111685281     0.006570951019    14.003074004430
         C           -0.671395799898     0.745851314719    -0.010220048981    12.000000000000
         C            0.709651200102     0.717672314719     0.003924951019    12.000000000000
         C           -1.435779799898    -0.471302685281     0.002257951019    12.000000000000
         C            1.436337200102    -0.546730685281    -0.004045048981    12.000000000000
         C           -0.754973799898    -1.656313685281     0.007117951019    12.000000000000
         C           -1.373037799898     1.965503814719    -0.004815148981    12.000000000000
         C            1.567710200102     1.953834314719     0.012122951019    12.000000000000
         C           -2.939759799898    -0.465453685281    -0.001987048981    12.000000000000
         H           -1.245243799898    -2.625755685281     0.016312951019     1.007825032230
         H           -2.201981799898     2.058191314719    -0.772871048981     1.007825032230
         H           -0.763565799898     2.900496314719    -0.188418048981     1.007825032230
         H           -1.919170799898     2.213376314719     0.959826951019     1.007825032230
         H            1.116960200102    -2.551582685281     0.005938951019     1.007825032230
         H            1.450437200102     2.531402314719    -0.910950048981     1.007825032230
         H            2.612556200102     1.653123314719     0.097191951019     1.007825032230
         H            1.320475200102     2.610383314719     0.851664951019     1.007825032230
         H           -3.325287799898    -1.487077685281     0.062834951019     1.007825032230
         H           -3.343031799898    -0.015832685281    -0.915636048981     1.007825032230
         H           -3.344592799898     0.097819314719     0.845032951019     1.007825032230

  Basis Set: AUG-CC-PVTZ
    Blend: AUG-CC-PVTZ
  Basis Set: (AUG-CC-PVTZ AUX)
    Blend: AUG-CC-PVTZ-JKFIT
	 Reference Energy          =    -438.8151439717127573 [Eh]
	 Singles Energy            =      -0.0000000000000000 [Eh]
	 Same-Spin Energy          =      -0.4716340093673270 [Eh]
	 Opposite-Spin Energy      =      -1.5009015957598004 [Eh]
	 Correlation Energy        =      -1.9725356051271274 [Eh]
	 Total Energy              =    -440.7876795768398779 [Eh]

	 ================> DF-SCS-MP2 Energies <==================
	-----------------------------------------------------------
	 SCS Same-Spin Scale       =       0.3333333333333333 [-]
	 SCS Opposite-Spin Scale   =       1.2000000000000000 [-]
	 SCS Same-Spin Energy      =      -0.1572113364557757 [Eh]
	 SCS Opposite-Spin Energy  =      -1.8010819149117605 [Eh]
	 SCS Correlation Energy    =      -1.9582932513675362 [Eh]
	 SCS Total Energy          =    -440.7734372230802933 [Eh]
	-----------------------------------------------------------

  Dipole Moment: [D]
     X:    -4.4884      Y:    -0.2589      Z:     0.0433     Total:     4.4960

*** Psi4 exiting successfully. Buy a developer a beer!
