                               Psi4 1.4a3.dev225

  ==> Input File <==

--------------------------------------------------------------------------
#psi4
#
memory 32 gb

molecule  {
0 1
  O        2.7382740    -0.7425350    -0.0126020
  N        0.6793120    -1.7266560     0.0061990
  C       -0.6027900     0.6893070    -0.0105920
  C        0.7782570     0.6611280     0.0035530
  C       -1.3671740    -0.5278470     0.0018860
  C        1.5049430    -0.6032750    -0.0044170
  C       -0.6863680    -1.7128580     0.0067460
  C       -1.3542970     1.9956390    -0.0048030
  C        1.6363160     1.8972900     0.0117510
  C       -2.8711540    -0.5219980    -0.0023590
  H       -1.1766380    -2.6823000     0.0159410
  H       -2.1333760     2.0016470    -0.7732430
  H       -0.6949600     2.8439520    -0.1887900
  H       -1.8505650     2.1568320     0.9594550
  H        1.1855660    -2.6081270     0.0055670
  H        1.5190430     2.4748580    -0.9113220
  H        2.6811620     1.5965790     0.0968200
  H        1.3890810     2.5538390     0.8512930
  H       -3.2566820    -1.5436220     0.0624630
  H       -3.2560157    -0.0929032    -0.8742979
  H       -3.2759870     0.0412750     0.8446610
units angstrom
no_reorient  #important for SAPT in psi4, default
symmetry c1  #important for SAPT in psi4, default
}

set PROPERTIES_ORIGIN ["COM"]
properties('MP2/aug-cc-pvtz', properties = ['dipole'])
--------------------------------------------------------------------------

    Molecular point group: c1
  Charge       = 0
  Multiplicity = 1
  Basis Set: AUG-CC-PVTZ
    Blend: AUG-CC-PVTZ
  Basis Set: (AUG-CC-PVTZ AUX)
    Blend: AUG-CC-PVTZ-JKFIT

    Orbital Energies [Eh]
    ---------------------

    Doubly Occupied:

       1A    -20.500032     2A    -15.615494     3A    -11.343953
       4A    -11.296393     5A    -11.269159     6A    -11.242560
       7A    -11.238379     8A    -11.237160     9A    -11.231137
      10A    -11.212766    11A     -1.361571    12A     -1.262916
      13A     -1.131643    14A     -1.062656    15A     -0.991270
      16A     -0.952573    17A     -0.933974    18A     -0.830212
      19A     -0.810476    20A     -0.726516    21A     -0.705439
      22A     -0.645306    23A     -0.622240    24A     -0.598023
      25A     -0.587948    26A     -0.584173    27A     -0.573516
      28A     -0.569553    29A     -0.561490    30A     -0.551134
      31A     -0.534750    32A     -0.505765    33A     -0.499317
      34A     -0.468702    35A     -0.415526    36A     -0.387936
      37A     -0.295549

  @DF-RHF Final Energy:  -438.82672639241866

   => Energetics <=

    Nuclear Repulsion Energy =            523.0434319615549157
    One-Electron Energy =               -1633.0259060922739991
    Two-Electron Energy =                 671.1557477383004198
    Total Energy =                       -438.8267263924186636
  Basis Set: (AUG-CC-PVTZ AUX)
    Blend: AUG-CC-PVTZ-RI
    Molecular point group: c1

    Geometry (in Angstrom), charge = 0, multiplicity = 1:

       Center              X                  Y                   Z               Mass
    ------------   -----------------  -----------------  -----------------  -----------------
         O            2.673897908662    -0.693427488307    -0.012570319626    15.994914619570
         N            0.614935908662    -1.677548488307     0.006230680374    14.003074004430
         C           -0.667166091338     0.738414511693    -0.010560319626    12.000000000000
         C            0.713880908662     0.710235511693     0.003584680374    12.000000000000
         C           -1.431550091338    -0.478739488307     0.001917680374    12.000000000000
         C            1.440566908662    -0.554167488307    -0.004385319626    12.000000000000
         C           -0.750744091338    -1.663750488307     0.006777680374    12.000000000000
         C           -1.418673091338     2.044746511693    -0.004771319626    12.000000000000
         C            1.571939908662     1.946397511693     0.011782680374    12.000000000000
         C           -2.935530091338    -0.472890488307    -0.002327319626    12.000000000000
         H           -1.241014091338    -2.633192488307     0.015972680374     1.007825032230
         H           -2.197752091338     2.050754511693    -0.773211319626     1.007825032230
         H           -0.759336091338     2.893059511693    -0.188758319626     1.007825032230
         H           -1.914941091338     2.205939511693     0.959486680374     1.007825032230
         H            1.121189908662    -2.559019488307     0.005598680374     1.007825032230
         H            1.454666908662     2.523965511693    -0.911290319626     1.007825032230
         H            2.616785908662     1.645686511693     0.096851680374     1.007825032230
         H            1.324704908662     2.602946511693     0.851324680374     1.007825032230
         H           -3.321058091338    -1.494514488307     0.062494680374     1.007825032230
         H           -3.320391791338    -0.043795688307    -0.874266219626     1.007825032230
         H           -3.340363091338     0.090382511693     0.844692680374     1.007825032230

  Basis Set: AUG-CC-PVTZ
    Blend: AUG-CC-PVTZ
  Basis Set: (AUG-CC-PVTZ AUX)
    Blend: AUG-CC-PVTZ-JKFIT
	 Reference Energy          =    -438.8267263924186636 [Eh]
	 Singles Energy            =      -0.0000000000000000 [Eh]
	 Same-Spin Energy          =      -0.4701474987511993 [Eh]
	 Opposite-Spin Energy      =      -1.4988908133528538 [Eh]
	 Correlation Energy        =      -1.9690383121040531 [Eh]
	 Total Energy              =    -440.7957647045226963 [Eh]

	 ================> DF-SCS-MP2 Energies <==================
	-----------------------------------------------------------
	 SCS Same-Spin Scale       =       0.3333333333333333 [-]
	 SCS Opposite-Spin Scale   =       1.2000000000000000 [-]
	 SCS Same-Spin Energy      =      -0.1567158329170664 [Eh]
	 SCS Opposite-Spin Energy  =      -1.7986689760234245 [Eh]
	 SCS Correlation Energy    =      -1.9553848089404908 [Eh]
	 SCS Total Energy          =    -440.7821112013591573 [Eh]
	-----------------------------------------------------------

  Dipole Moment: [D]
     X:    -4.4858      Y:    -0.2834      Z:     0.0270     Total:     4.4949

*** Psi4 exiting successfully. Buy a developer a beer!
