                               Psi4 1.4a3.dev225

  ==> Input File <==

--------------------------------------------------------------------------
#psi4
#
memory 32 gb

molecule  {
0 1
  O        2.7382740    -0.7425350    -0.0126020
  N        0.6793120    -1.7266560     0.0061990
  C       -0.6027900     0.6893070    -0.0105920
  C        0.7782570     0.6611280     0.0035530
  C       -1.3671740    -0.5278470     0.0018860
  C        1.5049430    -0.6032750    -0.0044170
  C       -0.6863680    -1.7128580     0.0067460
  C       -1.3542970     1.9956390    -0.0048030
  C        1.6363160     1.8972900     0.0117510
  C       -2.8711540    -0.5219980    -0.0023590
  H       -1.1766380    -2.6823000     0.0159410
  H       -2.1333760     2.0016470    -0.7732430
  H       -0.6949600     2.8439520    -0.1887900
  H       -1.8505650     2.1568320     0.9594550
  H        1.1855660    -2.6081270     0.0055670
  H        1.5190430     2.4748580    -0.9113220
  H        2.6811620     1.5965790     0.0968200
  H        1.3890810     2.5538390     0.8512930
  H       -3.2214376    -1.4502265     0.0565371
  H       -3.2744260    -0.0723770    -0.9160080
  H       -3.2759870     0.0412750     0.8446610
units angstrom
no_reorient  #important for SAPT in psi4, default
symmetry c1  #important for SAPT in psi4, default
}

set PROPERTIES_ORIGIN ["COM"]
properties('MP2/aug-cc-pvtz', properties = ['dipole'])
--------------------------------------------------------------------------

    Molecular point group: c1
  Charge       = 0
  Multiplicity = 1
  Basis Set: AUG-CC-PVTZ
    Blend: AUG-CC-PVTZ
  Basis Set: (AUG-CC-PVTZ AUX)
    Blend: AUG-CC-PVTZ-JKFIT

    Orbital Energies [Eh]
    ---------------------

    Doubly Occupied:

       1A    -20.500008     2A    -15.615532     3A    -11.343908
       4A    -11.296552     5A    -11.268640     6A    -11.242404
       7A    -11.238162     8A    -11.236456     9A    -11.224908
      10A    -11.212554    11A     -1.361543    12A     -1.262943
      13A     -1.131550    14A     -1.064122    15A     -0.991334
      16A     -0.956077    17A     -0.933882    18A     -0.830498
      19A     -0.811470    20A     -0.725993    21A     -0.707454
      22A     -0.645426    23A     -0.620233    24A     -0.598713
      25A     -0.587741    26A     -0.583470    27A     -0.581255
      28A     -0.570496    29A     -0.561086    30A     -0.549874
      31A     -0.536071    32A     -0.505540    33A     -0.500522
      34A     -0.468383    35A     -0.415457    36A     -0.387416
      37A     -0.295405

  @DF-RHF Final Energy:  -438.82181267167397

   => Energetics <=

    Nuclear Repulsion Energy =            523.2975844917240238
    One-Electron Energy =               -1633.5126319954683822
    Two-Electron Energy =                 671.3932348320702204
    Total Energy =                       -438.8218126716740244
  Basis Set: (AUG-CC-PVTZ AUX)
    Blend: AUG-CC-PVTZ-RI
    Molecular point group: c1

    Geometry (in Angstrom), charge = 0, multiplicity = 1:

       Center              X                  Y                   Z               Mass
    ------------   -----------------  -----------------  -----------------  -----------------
         O            2.673774146447    -0.694265026513    -0.012220105664    15.994914619570
         N            0.614812146447    -1.678386026513     0.006580894336    14.003074004430
         C           -0.667289853553     0.737576973487    -0.010210105664    12.000000000000
         C            0.713757146447     0.709397973487     0.003934894336    12.000000000000
         C           -1.431673853553    -0.479577026513     0.002267894336    12.000000000000
         C            1.440443146447    -0.555005026513    -0.004035105664    12.000000000000
         C           -0.750867853553    -1.664588026513     0.007127894336    12.000000000000
         C           -1.418796853553     2.043908973487    -0.004421105664    12.000000000000
         C            1.571816146447     1.945559973487     0.012132894336    12.000000000000
         C           -2.935653853553    -0.473728026513    -0.001977105664    12.000000000000
         H           -1.241137853553    -2.634030026513     0.016322894336     1.007825032230
         H           -2.197875853553     2.049916973487    -0.772861105664     1.007825032230
         H           -0.759459853553     2.892221973487    -0.188408105664     1.007825032230
         H           -1.915064853553     2.205101973487     0.959836894336     1.007825032230
         H            1.121066146447    -2.559857026513     0.005948894336     1.007825032230
         H            1.454543146447     2.523127973487    -0.910940105664     1.007825032230
         H            2.616662146447     1.644848973487     0.097201894336     1.007825032230
         H            1.324581146447     2.602108973487     0.851674894336     1.007825032230
         H           -3.285937453553    -1.401956526513     0.056918994336     1.007825032230
         H           -3.338925853553    -0.024107026513    -0.915626105664     1.007825032230
         H           -3.340486853553     0.089544973487     0.845042894336     1.007825032230

  Basis Set: AUG-CC-PVTZ
    Blend: AUG-CC-PVTZ
  Basis Set: (AUG-CC-PVTZ AUX)
    Blend: AUG-CC-PVTZ-JKFIT
	 Reference Energy          =    -438.8218126716739675 [Eh]
	 Singles Energy            =      -0.0000000000000000 [Eh]
	 Same-Spin Energy          =      -0.4701148994384111 [Eh]
	 Opposite-Spin Energy      =      -1.4985665205567256 [Eh]
	 Correlation Energy        =      -1.9686814199951366 [Eh]
	 Total Energy              =    -440.7904940916691316 [Eh]

	 ================> DF-SCS-MP2 Energies <==================
	-----------------------------------------------------------
	 SCS Same-Spin Scale       =       0.3333333333333333 [-]
	 SCS Opposite-Spin Scale   =       1.2000000000000000 [-]
	 SCS Same-Spin Energy      =      -0.1567049664794704 [Eh]
	 SCS Opposite-Spin Energy  =      -1.7982798246680707 [Eh]
	 SCS Correlation Energy    =      -1.9549847911475411 [Eh]
	 SCS Total Energy          =    -440.7767974628214915 [Eh]
	-----------------------------------------------------------

  Dipole Moment: [D]
     X:    -4.5027      Y:    -0.3345      Z:     0.0435     Total:     4.5153

*** Psi4 exiting successfully. Buy a developer a beer!
