                               Psi4 1.4a3.dev225

  ==> Input File <==

--------------------------------------------------------------------------
#psi4
#
memory 32 gb

molecule  {
0 1
  O        2.7382740    -0.7425350    -0.0126020
  N        0.6793120    -1.7266560     0.0061990
  C       -0.6027900     0.6893070    -0.0105920
  C        0.7782570     0.6611280     0.0035530
  C       -1.3671740    -0.5278470     0.0018860
  C        1.5049430    -0.6032750    -0.0044170
  C       -0.7063670    -1.7126559     0.0067540
  C       -1.3542970     1.9956390    -0.0048030
  C        1.6363160     1.8972900     0.0117510
  C       -2.8711540    -0.5219980    -0.0023590
  H       -1.1766380    -2.6823000     0.0159410
  H       -2.1333760     2.0016470    -0.7732430
  H       -0.6949600     2.8439520    -0.1887900
  H       -1.8505650     2.1568320     0.9594550
  H        1.1855660    -2.6081270     0.0055670
  H        1.5190430     2.4748580    -0.9113220
  H        2.6811620     1.5965790     0.0968200
  H        1.3890810     2.5538390     0.8512930
  H       -3.2566820    -1.5436220     0.0624630
  H       -3.2744260    -0.0723770    -0.9160080
  H       -3.2759870     0.0412750     0.8446610
units angstrom
no_reorient  #important for SAPT in psi4, default
symmetry c1  #important for SAPT in psi4, default
}

set PROPERTIES_ORIGIN ["COM"]
properties('MP2/aug-cc-pvtz', properties = ['dipole'])
--------------------------------------------------------------------------

    Molecular point group: c1
  Charge       = 0
  Multiplicity = 1
  Basis Set: AUG-CC-PVTZ
    Blend: AUG-CC-PVTZ
  Basis Set: (AUG-CC-PVTZ AUX)
    Blend: AUG-CC-PVTZ-JKFIT

    Orbital Energies [Eh]
    ---------------------

    Doubly Occupied:

       1A    -20.500206     2A    -15.613300     3A    -11.343928
       4A    -11.295311     5A    -11.269634     6A    -11.243372
       7A    -11.239738     8A    -11.237454     9A    -11.237373
      10A    -11.213314    11A     -1.360421    12A     -1.257258
      13A     -1.131737    14A     -1.063834    15A     -0.991924
      16A     -0.948704    17A     -0.933419    18A     -0.830557
      19A     -0.808549    20A     -0.722123    21A     -0.704679
      22A     -0.648612    23A     -0.620112    24A     -0.598405
      25A     -0.585807    26A     -0.581421    27A     -0.571647
      28A     -0.569616    29A     -0.562357    30A     -0.550044
      31A     -0.533571    32A     -0.505726    33A     -0.501084
      34A     -0.467091    35A     -0.415546    36A     -0.387738
      37A     -0.298195

  @DF-RHF Final Energy:  -438.82734590473956

   => Energetics <=

    Nuclear Repulsion Energy =            522.6415068647552289
    One-Electron Energy =               -1632.2500912472928576
    Two-Electron Energy =                 670.7812384777980697
    Total Energy =                       -438.8273459047395590
  Basis Set: (AUG-CC-PVTZ AUX)
    Blend: AUG-CC-PVTZ-RI
    Molecular point group: c1

    Geometry (in Angstrom), charge = 0, multiplicity = 1:

       Center              X                  Y                   Z               Mass
    ------------   -----------------  -----------------  -----------------  -----------------
         O            2.675783921913    -0.693596085717    -0.012264372446    15.994914619570
         N            0.616821921913    -1.677717085717     0.006536627554    14.003074004430
         C           -0.665280078087     0.738245914283    -0.010254372446    12.000000000000
         C            0.715766921913     0.710066914283     0.003890627554    12.000000000000
         C           -1.429664078087    -0.478908085717     0.002223627554    12.000000000000
         C            1.442452921913    -0.554336085717    -0.004079372446    12.000000000000
         C           -0.768857078087    -1.663716985717     0.007091627554    12.000000000000
         C           -1.416787078087     2.044577914283    -0.004465372446    12.000000000000
         C            1.573825921913     1.946228914283     0.012088627554    12.000000000000
         C           -2.933644078087    -0.473059085717    -0.002021372446    12.000000000000
         H           -1.239128078087    -2.633361085717     0.016278627554     1.007825032230
         H           -2.195866078087     2.050585914283    -0.772905372446     1.007825032230
         H           -0.757450078087     2.892890914283    -0.188452372446     1.007825032230
         H           -1.913055078087     2.205770914283     0.959792627554     1.007825032230
         H            1.123075921913    -2.559188085717     0.005904627554     1.007825032230
         H            1.456552921913     2.523796914283    -0.910984372446     1.007825032230
         H            2.618671921913     1.645517914283     0.097157627554     1.007825032230
         H            1.326590921913     2.602777914283     0.851630627554     1.007825032230
         H           -3.319172078087    -1.494683085717     0.062800627554     1.007825032230
         H           -3.336916078087    -0.023438085717    -0.915670372446     1.007825032230
         H           -3.338477078087     0.090213914283     0.844998627554     1.007825032230

  Basis Set: AUG-CC-PVTZ
    Blend: AUG-CC-PVTZ
  Basis Set: (AUG-CC-PVTZ AUX)
    Blend: AUG-CC-PVTZ-JKFIT
	 Reference Energy          =    -438.8273459047395590 [Eh]
	 Singles Energy            =      -0.0000000000000000 [Eh]
	 Same-Spin Energy          =      -0.4698436237503686 [Eh]
	 Opposite-Spin Energy      =      -1.4991634777336760 [Eh]
	 Correlation Energy        =      -1.9690071014840447 [Eh]
	 Total Energy              =    -440.7963530062236259 [Eh]

	 ================> DF-SCS-MP2 Energies <==================
	-----------------------------------------------------------
	 SCS Same-Spin Scale       =       0.3333333333333333 [-]
	 SCS Opposite-Spin Scale   =       1.2000000000000000 [-]
	 SCS Same-Spin Energy      =      -0.1566145412501229 [Eh]
	 SCS Opposite-Spin Energy  =      -1.7989961732804112 [Eh]
	 SCS Correlation Energy    =      -1.9556107145305339 [Eh]
	 SCS Total Energy          =    -440.7829566192700668 [Eh]
	-----------------------------------------------------------

  Dipole Moment: [D]
     X:    -4.4899      Y:    -0.2483      Z:     0.0414     Total:     4.4970

*** Psi4 exiting successfully. Buy a developer a beer!
