                               Psi4 1.4a3.dev225

  ==> Input File <==

--------------------------------------------------------------------------
#psi4
#
memory 32 gb

molecule  {
0 1
  O        2.7382740    -0.7425350    -0.0126020
  N        0.6793120    -1.7266560     0.0061990
  C       -0.6027900     0.6893070    -0.0105920
  C        0.7782570     0.6611280     0.0035530
  C       -1.3671740    -0.5278470     0.0018860
  C        1.5049430    -0.6032750    -0.0044170
  C       -0.6863680    -1.7128580     0.0067460
  C       -1.3542970     1.9956390    -0.0048030
  C        1.6363160     1.8972900     0.0117510
  C       -2.8711540    -0.5219980    -0.0023590
  H       -1.1766380    -2.6823000     0.0159410
  H       -2.1333760     2.0016470    -0.7732430
  H       -0.6949600     2.8439520    -0.1887900
  H       -1.8505650     2.1568320     0.9594550
  H        1.1855660    -2.6081270     0.0055670
  H        1.5190430     2.4748580    -0.9113220
  H        2.6811620     1.5965790     0.0968200
  H        1.3890810     2.5538390     0.8512930
  H       -3.2566820    -1.5436220     0.0624630
  H       -3.3480671     0.0097279    -1.0828486
  H       -3.2759870     0.0412750     0.8446610
units angstrom
no_reorient  #important for SAPT in psi4, default
symmetry c1  #important for SAPT in psi4, default
}

set PROPERTIES_ORIGIN ["COM"]
properties('MP2/aug-cc-pvtz', properties = ['dipole'])
--------------------------------------------------------------------------

    Molecular point group: c1
  Charge       = 0
  Multiplicity = 1
  Basis Set: AUG-CC-PVTZ
    Blend: AUG-CC-PVTZ
  Basis Set: (AUG-CC-PVTZ AUX)
    Blend: AUG-CC-PVTZ-JKFIT

    Orbital Energies [Eh]
    ---------------------

    Doubly Occupied:

       1A    -20.501450     2A    -15.617354     3A    -11.345293
       4A    -11.299230     5A    -11.270032     6A    -11.260012
       7A    -11.245297     8A    -11.239222     9A    -11.236315
      10A    -11.213250    11A     -1.362969    12A     -1.264671
      13A     -1.131829    14A     -1.061416    15A     -0.991206
      16A     -0.939962    17A     -0.934226    18A     -0.831061
      19A     -0.808302    20A     -0.726256    21A     -0.706313
      22A     -0.646539    23A     -0.618324    24A     -0.599264
      25A     -0.587380    26A     -0.579132    27A     -0.572870
      28A     -0.562148    29A     -0.559432    30A     -0.544651
      31A     -0.520943    32A     -0.505340    33A     -0.500297
      34A     -0.467457    35A     -0.416772    36A     -0.387757
      37A     -0.296211

  @DF-RHF Final Energy:  -438.80797391163514

   => Energetics <=

    Nuclear Repulsion Energy =            522.0299995624985741
    One-Electron Energy =               -1630.9755812834209792
    Two-Electron Energy =                 670.1376078092871467
    Total Energy =                       -438.8079739116351448
  Basis Set: (AUG-CC-PVTZ AUX)
    Blend: AUG-CC-PVTZ-RI
    Molecular point group: c1

    Geometry (in Angstrom), charge = 0, multiplicity = 1:

       Center              X                  Y                   Z               Mass
    ------------   -----------------  -----------------  -----------------  -----------------
         O            2.674574659135    -0.694182019422    -0.011037080752    15.994914619570
         N            0.615612659135    -1.678303019422     0.007763919248    14.003074004430
         C           -0.666489340865     0.737659980578    -0.009027080752    12.000000000000
         C            0.714557659135     0.709480980578     0.005117919248    12.000000000000
         C           -1.430873340865    -0.479494019422     0.003450919248    12.000000000000
         C            1.441243659135    -0.554922019422    -0.002852080752    12.000000000000
         C           -0.750067340865    -1.664505019422     0.008310919248    12.000000000000
         C           -1.417996340865     2.043991980578    -0.003238080752    12.000000000000
         C            1.572616659135     1.945642980578     0.013315919248    12.000000000000
         C           -2.934853340865    -0.473645019422    -0.000794080752    12.000000000000
         H           -1.240337340865    -2.633947019422     0.017505919248     1.007825032230
         H           -2.197075340865     2.049999980578    -0.771678080752     1.007825032230
         H           -0.758659340865     2.892304980578    -0.187225080752     1.007825032230
         H           -1.914264340865     2.205184980578     0.961019919248     1.007825032230
         H            1.121866659135    -2.559774019422     0.007131919248     1.007825032230
         H            1.455343659135     2.523210980578    -0.909757080752     1.007825032230
         H            2.617462659135     1.644931980578     0.098384919248     1.007825032230
         H            1.325381659135     2.602191980578     0.852857919248     1.007825032230
         H           -3.320381340865    -1.495269019422     0.064027919248     1.007825032230
         H           -3.411766440865     0.058080880578    -1.081283680752     1.007825032230
         H           -3.339686340865     0.089627980578     0.846225919248     1.007825032230

  Basis Set: AUG-CC-PVTZ
    Blend: AUG-CC-PVTZ
  Basis Set: (AUG-CC-PVTZ AUX)
    Blend: AUG-CC-PVTZ-JKFIT
	 Reference Energy          =    -438.8079739116351448 [Eh]
	 Singles Energy            =      -0.0000000000000000 [Eh]
	 Same-Spin Energy          =      -0.4701792179049318 [Eh]
	 Opposite-Spin Energy      =      -1.5006867366246364 [Eh]
	 Correlation Energy        =      -1.9708659545295681 [Eh]
	 Total Energy              =    -440.7788398661647307 [Eh]

	 ================> DF-SCS-MP2 Energies <==================
	-----------------------------------------------------------
	 SCS Same-Spin Scale       =       0.3333333333333333 [-]
	 SCS Opposite-Spin Scale   =       1.2000000000000000 [-]
	 SCS Same-Spin Energy      =      -0.1567264059683106 [Eh]
	 SCS Opposite-Spin Energy  =      -1.8008240839495635 [Eh]
	 SCS Correlation Energy    =      -1.9575504899178742 [Eh]
	 SCS Total Energy          =    -440.7655244015530229 [Eh]
	-----------------------------------------------------------

  Dipole Moment: [D]
     X:    -4.3197      Y:    -0.3474      Z:     0.1319     Total:     4.3356

*** Psi4 exiting successfully. Buy a developer a beer!
