                               Psi4 1.4a3.dev225

  ==> Input File <==

--------------------------------------------------------------------------
#psi4
#
memory 32 gb

molecule  {
0 1
  O        2.7382740    -0.7425350    -0.0126020
  N        0.6793120    -1.7266560     0.0061990
  C       -0.6027900     0.6893070    -0.0105920
  C        0.7782570     0.6611280     0.0035530
  C       -1.3671740    -0.5278470     0.0018860
  C        1.5049430    -0.6032750    -0.0044170
  C       -0.6863680    -1.7128580     0.0067460
  C       -1.3542970     1.9956390    -0.0048030
  C        1.6363160     1.8972900     0.0117510
  C       -2.8711540    -0.5219980    -0.0023590
  H       -1.1766380    -2.6823000     0.0159410
  H       -2.1333760     2.0016470    -0.7732430
  H       -0.6949600     2.8439520    -0.1887900
  H       -1.8505650     2.1568320     0.9594550
  H        1.1855660    -2.6081270     0.0055670
  H        1.5190430     2.4748580    -0.9113220
  H        2.6811620     1.5965790     0.0968200
  H        1.3890810     2.5538390     0.8512930
  H       -3.2566820    -1.5436220     0.0624630
  H       -3.2928363    -0.0518508    -0.9577181
  H       -3.2759870     0.0412750     0.8446610
units angstrom
no_reorient  #important for SAPT in psi4, default
symmetry c1  #important for SAPT in psi4, default
}

set PROPERTIES_ORIGIN ["COM"]
properties('MP2/aug-cc-pvtz', properties = ['dipole'])
--------------------------------------------------------------------------

    Molecular point group: c1
  Charge       = 0
  Multiplicity = 1
  Basis Set: AUG-CC-PVTZ
    Blend: AUG-CC-PVTZ
  Basis Set: (AUG-CC-PVTZ AUX)
    Blend: AUG-CC-PVTZ-JKFIT

    Orbital Energies [Eh]
    ---------------------

    Doubly Occupied:

       1A    -20.500459     2A    -15.616065     3A    -11.344359
       4A    -11.297261     5A    -11.269410     6A    -11.243724
       7A    -11.243022     8A    -11.238636     9A    -11.236839
      10A    -11.212907    11A     -1.361995    12A     -1.263450
      13A     -1.131495    14A     -1.061608    15A     -0.991145
      16A     -0.945735    17A     -0.934111    18A     -0.830438
      19A     -0.809149    20A     -0.726024    21A     -0.705605
      22A     -0.645637    23A     -0.619691    24A     -0.598395
      25A     -0.586247    26A     -0.580721    27A     -0.571070
      28A     -0.566548    29A     -0.561659    30A     -0.548913
      31A     -0.532238    32A     -0.505847    33A     -0.499680
      34A     -0.468459    35A     -0.415902    36A     -0.387855
      37A     -0.295719

  @DF-RHF Final Energy:  -438.82560984545159

   => Energetics <=

    Nuclear Repulsion Energy =            522.6052096104720022
    One-Electron Energy =               -1632.1656025780630443
    Two-Electron Energy =                 670.7347831221394472
    Total Energy =                       -438.8256098454515950
  Basis Set: (AUG-CC-PVTZ AUX)
    Blend: AUG-CC-PVTZ-RI
    Molecular point group: c1

    Geometry (in Angstrom), charge = 0, multiplicity = 1:

       Center              X                  Y                   Z               Mass
    ------------   -----------------  -----------------  -----------------  -----------------
         O            2.674168609145    -0.693729300459    -0.011957024665    15.994914619570
         N            0.615206609145    -1.677850300459     0.006843975335    14.003074004430
         C           -0.666895390855     0.738112699541    -0.009947024665    12.000000000000
         C            0.714151609145     0.709933699541     0.004197975335    12.000000000000
         C           -1.431279390855    -0.479041300459     0.002530975335    12.000000000000
         C            1.440837609145    -0.554469300459    -0.003772024665    12.000000000000
         C           -0.750473390855    -1.664052300459     0.007390975335    12.000000000000
         C           -1.418402390855     2.044444699541    -0.004158024665    12.000000000000
         C            1.572210609145     1.946095699541     0.012395975335    12.000000000000
         C           -2.935259390855    -0.473192300459    -0.001714024665    12.000000000000
         H           -1.240743390855    -2.633494300459     0.016585975335     1.007825032230
         H           -2.197481390855     2.050452699541    -0.772598024665     1.007825032230
         H           -0.759065390855     2.892757699541    -0.188145024665     1.007825032230
         H           -1.914670390855     2.205637699541     0.960099975335     1.007825032230
         H            1.121460609145    -2.559321300459     0.006211975335     1.007825032230
         H            1.454937609145     2.523663699541    -0.910677024665     1.007825032230
         H            2.617056609145     1.645384699541     0.097464975335     1.007825032230
         H            1.324975609145     2.602644699541     0.851937975335     1.007825032230
         H           -3.320787390855    -1.494816300459     0.063107975335     1.007825032230
         H           -3.356941690855    -0.003045100459    -0.957073124665     1.007825032230
         H           -3.340092390855     0.090080699541     0.845305975335     1.007825032230

  Basis Set: AUG-CC-PVTZ
    Blend: AUG-CC-PVTZ
  Basis Set: (AUG-CC-PVTZ AUX)
    Blend: AUG-CC-PVTZ-JKFIT
	 Reference Energy          =    -438.8256098454515950 [Eh]
	 Singles Energy            =      -0.0000000000000000 [Eh]
	 Same-Spin Energy          =      -0.4701574114095090 [Eh]
	 Opposite-Spin Energy      =      -1.4994904200054977 [Eh]
	 Correlation Energy        =      -1.9696478314150068 [Eh]
	 Total Energy              =    -440.7952576768665836 [Eh]

	 ================> DF-SCS-MP2 Energies <==================
	-----------------------------------------------------------
	 SCS Same-Spin Scale       =       0.3333333333333333 [-]
	 SCS Opposite-Spin Scale   =       1.2000000000000000 [-]
	 SCS Same-Spin Energy      =      -0.1567191371365030 [Eh]
	 SCS Opposite-Spin Energy  =      -1.7993885040065971 [Eh]
	 SCS Correlation Energy    =      -1.9561076411431000 [Eh]
	 SCS Total Energy          =    -440.7817174865946868 [Eh]
	-----------------------------------------------------------

  Dipole Moment: [D]
     X:    -4.4346      Y:    -0.3043      Z:     0.0596     Total:     4.4454

*** Psi4 exiting successfully. Buy a developer a beer!
