                               Psi4 1.4a3.dev225

  ==> Input File <==

--------------------------------------------------------------------------
#psi4
#
memory 32 gb

molecule  {
0 1
  O        2.7382740    -0.7425350    -0.0126020
  N        0.6793120    -1.7266560     0.0061990
  C       -0.6027900     0.6893070    -0.0105920
  C        0.7782570     0.6611280     0.0035530
  C       -1.3671740    -0.5278470     0.0018860
  C        1.5049430    -0.6032750    -0.0044170
  C       -0.8139653    -1.7775309     0.0065478
  C       -1.3542970     1.9956390    -0.0048030
  C        1.6363160     1.8972900     0.0117510
  C       -2.8711540    -0.5219980    -0.0023590
  H       -1.1766380    -2.6823000     0.0159410
  H       -2.1333760     2.0016470    -0.7732430
  H       -0.6949600     2.8439520    -0.1887900
  H       -1.8505650     2.1568320     0.9594550
  H        1.1855660    -2.6081270     0.0055670
  H        1.5190430     2.4748580    -0.9113220
  H        2.6811620     1.5965790     0.0968200
  H        1.3890810     2.5538390     0.8512930
  H       -3.2566820    -1.5436220     0.0624630
  H       -3.2744260    -0.0723770    -0.9160080
  H       -3.2759870     0.0412750     0.8446610
units angstrom
no_reorient  #important for SAPT in psi4, default
symmetry c1  #important for SAPT in psi4, default
}

set PROPERTIES_ORIGIN ["COM"]
properties('MP2/aug-cc-pvtz', properties = ['dipole'])
--------------------------------------------------------------------------

    Molecular point group: c1
  Charge       = 0
  Multiplicity = 1
  Basis Set: AUG-CC-PVTZ
    Blend: AUG-CC-PVTZ
  Basis Set: (AUG-CC-PVTZ AUX)
    Blend: AUG-CC-PVTZ-JKFIT

    Orbital Energies [Eh]
    ---------------------

    Doubly Occupied:

       1A    -20.499452     2A    -15.602563     3A    -11.343470
       4A    -11.293668     5A    -11.271605     6A    -11.254553
       7A    -11.246855     8A    -11.239873     9A    -11.237333
      10A    -11.216024    11A     -1.355213    12A     -1.228875
      13A     -1.129676    14A     -1.069308    15A     -0.994591
      16A     -0.946744    17A     -0.934524    18A     -0.836432
      19A     -0.805750    20A     -0.706232    21A     -0.697715
      22A     -0.673146    23A     -0.617638    24A     -0.600358
      25A     -0.583788    26A     -0.579144    27A     -0.572824
      28A     -0.569063    29A     -0.563302    30A     -0.548182
      31A     -0.529828    32A     -0.509271    33A     -0.500413
      34A     -0.457129    35A     -0.414974    36A     -0.384766
      37A     -0.304761

  @DF-RHF Final Energy:  -438.79985835544062

   => Energetics <=

    Nuclear Repulsion Energy =            520.5742975115505260
    One-Electron Energy =               -1628.1102226921334477
    Two-Electron Energy =                 668.7360668251424158
    Total Energy =                       -438.7998583554406196
  Basis Set: (AUG-CC-PVTZ AUX)
    Blend: AUG-CC-PVTZ-RI
    Molecular point group: c1

    Geometry (in Angstrom), charge = 0, multiplicity = 1:

       Center              X                  Y                   Z               Mass
    ------------   -----------------  -----------------  -----------------  -----------------
         O            2.685202811042    -0.687917088630    -0.012246322208    15.994914619570
         N            0.626240811042    -1.672038088630     0.006554677792    14.003074004430
         C           -0.655861188958     0.743924911370    -0.010236322208    12.000000000000
         C            0.725185811042     0.715745911370     0.003908677792    12.000000000000
         C           -1.420245188958    -0.473229088630     0.002241677792    12.000000000000
         C            1.451871811042    -0.548657088630    -0.004061322208    12.000000000000
         C           -0.867036488958    -1.722912988630     0.006903477792    12.000000000000
         C           -1.407368188958     2.050256911370    -0.004447322208    12.000000000000
         C            1.583244811042     1.951907911370     0.012106677792    12.000000000000
         C           -2.924225188958    -0.467380088630    -0.002003322208    12.000000000000
         H           -1.229709188958    -2.627682088630     0.016296677792     1.007825032230
         H           -2.186447188958     2.056264911370    -0.772887322208     1.007825032230
         H           -0.748031188958     2.898569911370    -0.188434322208     1.007825032230
         H           -1.903636188958     2.211449911370     0.959810677792     1.007825032230
         H            1.132494811042    -2.553509088630     0.005922677792     1.007825032230
         H            1.465971811042     2.529475911370    -0.910966322208     1.007825032230
         H            2.628090811042     1.651196911370     0.097175677792     1.007825032230
         H            1.336009811042     2.608456911370     0.851648677792     1.007825032230
         H           -3.309753188958    -1.489004088630     0.062818677792     1.007825032230
         H           -3.327497188958    -0.017759088630    -0.915652322208     1.007825032230
         H           -3.329058188958     0.095892911370     0.845016677792     1.007825032230

  Basis Set: AUG-CC-PVTZ
    Blend: AUG-CC-PVTZ
  Basis Set: (AUG-CC-PVTZ AUX)
    Blend: AUG-CC-PVTZ-JKFIT
	 Reference Energy          =    -438.7998583554406196 [Eh]
	 Singles Energy            =      -0.0000000000000000 [Eh]
	 Same-Spin Energy          =      -0.4697453673293884 [Eh]
	 Opposite-Spin Energy      =      -1.5019363583163137 [Eh]
	 Correlation Energy        =      -1.9716817256457020 [Eh]
	 Total Energy              =    -440.7715400810863002 [Eh]

	 ================> DF-SCS-MP2 Energies <==================
	-----------------------------------------------------------
	 SCS Same-Spin Scale       =       0.3333333333333333 [-]
	 SCS Opposite-Spin Scale   =       1.2000000000000000 [-]
	 SCS Same-Spin Energy      =      -0.1565817891097961 [Eh]
	 SCS Opposite-Spin Energy  =      -1.8023236299795764 [Eh]
	 SCS Correlation Energy    =      -1.9589054190893724 [Eh]
	 SCS Total Energy          =    -440.7587637745299958 [Eh]
	-----------------------------------------------------------

  Dipole Moment: [D]
     X:    -4.6593      Y:    -0.0462      Z:     0.0402     Total:     4.6597

*** Psi4 exiting successfully. Buy a developer a beer!
