                               Psi4 1.4a3.dev225

  ==> Input File <==

--------------------------------------------------------------------------
#psi4
#
memory 32 gb

molecule  {
0 1
  O        2.7382740    -0.7425350    -0.0126020
  N        0.6793120    -1.7266560     0.0061990
  C       -0.6027900     0.6893070    -0.0105920
  C        0.7782570     0.6611280     0.0035530
  C       -1.3671740    -0.5278470     0.0018860
  C        1.4930991    -0.6193902    -0.0042647
  C       -0.6863680    -1.7128580     0.0067460
  C       -1.3542970     1.9956390    -0.0048030
  C        1.6363160     1.8972900     0.0117510
  C       -2.8711540    -0.5219980    -0.0023590
  H       -1.1766380    -2.6823000     0.0159410
  H       -2.1333760     2.0016470    -0.7732430
  H       -0.6949600     2.8439520    -0.1887900
  H       -1.8505650     2.1568320     0.9594550
  H        1.1855660    -2.6081270     0.0055670
  H        1.5190430     2.4748580    -0.9113220
  H        2.6811620     1.5965790     0.0968200
  H        1.3890810     2.5538390     0.8512930
  H       -3.2566820    -1.5436220     0.0624630
  H       -3.2744260    -0.0723770    -0.9160080
  H       -3.2759870     0.0412750     0.8446610
units angstrom
no_reorient  #important for SAPT in psi4, default
symmetry c1  #important for SAPT in psi4, default
}

set PROPERTIES_ORIGIN ["COM"]
properties('MP2/aug-cc-pvtz', properties = ['dipole'])
--------------------------------------------------------------------------

    Molecular point group: c1
  Charge       = 0
  Multiplicity = 1
  Basis Set: AUG-CC-PVTZ
    Blend: AUG-CC-PVTZ
  Basis Set: (AUG-CC-PVTZ AUX)
    Blend: AUG-CC-PVTZ-JKFIT

    Orbital Energies [Eh]
    ---------------------

    Doubly Occupied:

       1A    -20.497333     2A    -15.618069     3A    -11.343382
       4A    -11.296934     5A    -11.268341     6A    -11.244809
       7A    -11.240057     8A    -11.238047     9A    -11.236802
      10A    -11.213024    11A     -1.358108    12A     -1.264811
      13A     -1.132402    14A     -1.062134    15A     -0.990821
      16A     -0.951119    17A     -0.935017    18A     -0.830068
      19A     -0.812648    20A     -0.728265    21A     -0.705259
      22A     -0.645593    23A     -0.621669    24A     -0.594816
      25A     -0.587042    26A     -0.583387    27A     -0.571971
      28A     -0.569440    29A     -0.561849    30A     -0.550811
      31A     -0.533996    32A     -0.504463    33A     -0.499804
      34A     -0.464976    35A     -0.413653    36A     -0.388736
      37A     -0.296311

  @DF-RHF Final Energy:  -438.82724909495397

   => Energetics <=

    Nuclear Repulsion Energy =            522.8613522579820483
    One-Electron Energy =               -1632.6652757065251080
    Two-Electron Energy =                 670.9766743535891464
    Total Energy =                       -438.8272490949540270
  Basis Set: (AUG-CC-PVTZ AUX)
    Blend: AUG-CC-PVTZ-RI
    Molecular point group: c1

    Geometry (in Angstrom), charge = 0, multiplicity = 1:

       Center              X                  Y                   Z               Mass
    ------------   -----------------  -----------------  -----------------  -----------------
         O            2.675070044624    -0.692167709622    -0.012277004111    15.994914619570
         N            0.616108044624    -1.676288709622     0.006523995889    14.003074004430
         C           -0.665993955376     0.739674290378    -0.010267004111    12.000000000000
         C            0.715053044624     0.711495290378     0.003877995889    12.000000000000
         C           -1.430377955376    -0.477479709622     0.002210995889    12.000000000000
         C            1.429895144624    -0.569022909622    -0.003939704111    12.000000000000
         C           -0.749571955376    -1.662490709622     0.007070995889    12.000000000000
         C           -1.417500955376     2.046006290378    -0.004478004111    12.000000000000
         C            1.573112044624     1.947657290378     0.012075995889    12.000000000000
         C           -2.934357955376    -0.471630709622    -0.002034004111    12.000000000000
         H           -1.239841955376    -2.631932709622     0.016265995889     1.007825032230
         H           -2.196579955376     2.052014290378    -0.772918004111     1.007825032230
         H           -0.758163955376     2.894319290378    -0.188465004111     1.007825032230
         H           -1.913768955376     2.207199290378     0.959779995889     1.007825032230
         H            1.122362044624    -2.557759709622     0.005891995889     1.007825032230
         H            1.455839044624     2.525225290378    -0.910997004111     1.007825032230
         H            2.617958044624     1.646946290378     0.097144995889     1.007825032230
         H            1.325877044624     2.604206290378     0.851617995889     1.007825032230
         H           -3.319885955376    -1.493254709622     0.062787995889     1.007825032230
         H           -3.337629955376    -0.022009709622    -0.915683004111     1.007825032230
         H           -3.339190955376     0.091642290378     0.844985995889     1.007825032230

  Basis Set: AUG-CC-PVTZ
    Blend: AUG-CC-PVTZ
  Basis Set: (AUG-CC-PVTZ AUX)
    Blend: AUG-CC-PVTZ-JKFIT
	 Reference Energy          =    -438.8272490949539701 [Eh]
	 Singles Energy            =      -0.0000000000000000 [Eh]
	 Same-Spin Energy          =      -0.4701225482376929 [Eh]
	 Opposite-Spin Energy      =      -1.4992174536104592 [Eh]
	 Correlation Energy        =      -1.9693400018481522 [Eh]
	 Total Energy              =    -440.7965890968021085 [Eh]

	 ================> DF-SCS-MP2 Energies <==================
	-----------------------------------------------------------
	 SCS Same-Spin Scale       =       0.3333333333333333 [-]
	 SCS Opposite-Spin Scale   =       1.2000000000000000 [-]
	 SCS Same-Spin Energy      =      -0.1567075160792309 [Eh]
	 SCS Opposite-Spin Energy  =      -1.7990609443325509 [Eh]
	 SCS Correlation Energy    =      -1.9557684604117820 [Eh]
	 SCS Total Energy          =    -440.7830175553657455 [Eh]
	-----------------------------------------------------------

  Dipole Moment: [D]
     X:    -4.5702      Y:    -0.3248      Z:     0.0428     Total:     4.5819

*** Psi4 exiting successfully. Buy a developer a beer!
