                               Psi4 1.4a3.dev225

  ==> Input File <==

--------------------------------------------------------------------------
#psi4
#
memory 32 gb

molecule  {
0 1
  O        2.7382740    -0.7425350    -0.0126020
  N        0.6793120    -1.7266560     0.0061990
  C       -0.6027900     0.6893070    -0.0105920
  C        0.7782570     0.6611280     0.0035530
  C       -1.3671740    -0.5278470     0.0018860
  C        1.5049430    -0.6032750    -0.0044170
  C       -0.6863680    -1.7128580     0.0067460
  C       -1.3542970     1.9956390    -0.0048030
  C        1.6363160     1.8972900     0.0117510
  C       -2.8711540    -0.5219980    -0.0023590
  H       -1.1766380    -2.6823000     0.0159410
  H       -2.1333760     2.0016470    -0.7732430
  H       -0.6949600     2.8439520    -0.1887900
  H       -1.8505650     2.1568320     0.9594550
  H        1.1855660    -2.6081270     0.0055670
  H        1.5190430     2.4748580    -0.9113220
  H        2.7769684     1.5690055     0.1046203
  H        1.3890810     2.5538390     0.8512930
  H       -3.2566820    -1.5436220     0.0624630
  H       -3.2744260    -0.0723770    -0.9160080
  H       -3.2759870     0.0412750     0.8446610
units angstrom
no_reorient  #important for SAPT in psi4, default
symmetry c1  #important for SAPT in psi4, default
}

set PROPERTIES_ORIGIN ["COM"]
properties('MP2/aug-cc-pvtz', properties = ['dipole'])
--------------------------------------------------------------------------

    Molecular point group: c1
  Charge       = 0
  Multiplicity = 1
  Basis Set: AUG-CC-PVTZ
    Blend: AUG-CC-PVTZ
  Basis Set: (AUG-CC-PVTZ AUX)
    Blend: AUG-CC-PVTZ-JKFIT

    Orbital Energies [Eh]
    ---------------------

    Doubly Occupied:

       1A    -20.500220     2A    -15.615950     3A    -11.344269
       4A    -11.297006     5A    -11.269754     6A    -11.243261
       7A    -11.239214     8A    -11.237466     9A    -11.237355
      10A    -11.222757    11A     -1.361850    12A     -1.263331
      13A     -1.131684    14A     -1.061404    15A     -0.989765
      16A     -0.948947    17A     -0.929668    18A     -0.830315
      19A     -0.807705    20A     -0.725756    21A     -0.705176
      22A     -0.645541    23A     -0.620966    24A     -0.597753
      25A     -0.586166    26A     -0.582603    27A     -0.571498
      28A     -0.566509    29A     -0.561446    30A     -0.550572
      31A     -0.530447    32A     -0.499974    33A     -0.491503
      34A     -0.468656    35A     -0.415059    36A     -0.388234
      37A     -0.295860

  @DF-RHF Final Energy:  -438.82061187203965

   => Energetics <=

    Nuclear Repulsion Energy =            522.4204354967242807
    One-Electron Energy =               -1631.8108108574670041
    Two-Electron Energy =                 670.5697634887031882
    Total Energy =                       -438.8206118720396489
  Basis Set: (AUG-CC-PVTZ AUX)
    Blend: AUG-CC-PVTZ-RI
    Molecular point group: c1

    Geometry (in Angstrom), charge = 0, multiplicity = 1:

       Center              X                  Y                   Z               Mass
    ------------   -----------------  -----------------  -----------------  -----------------
         O            2.673328902136    -0.693375677432    -0.012321018983    15.994914619570
         N            0.614366902136    -1.677496677432     0.006479981017    14.003074004430
         C           -0.667735097864     0.738466322568    -0.010311018983    12.000000000000
         C            0.713311902136     0.710287322568     0.003833981017    12.000000000000
         C           -1.432119097864    -0.478687677432     0.002166981017    12.000000000000
         C            1.439997902136    -0.554115677432    -0.004136018983    12.000000000000
         C           -0.751313097864    -1.663698677432     0.007026981017    12.000000000000
         C           -1.419242097864     2.044798322568    -0.004522018983    12.000000000000
         C            1.571370902136     1.946449322568     0.012031981017    12.000000000000
         C           -2.936099097864    -0.472838677432    -0.002078018983    12.000000000000
         H           -1.241583097864    -2.633140677432     0.016221981017     1.007825032230
         H           -2.198321097864     2.050806322568    -0.772962018983     1.007825032230
         H           -0.759905097864     2.893111322568    -0.188509018983     1.007825032230
         H           -1.915510097864     2.205991322568     0.959735981017     1.007825032230
         H            1.120620902136    -2.558967677432     0.005847981017     1.007825032230
         H            1.454097902136     2.524017322568    -0.911041018983     1.007825032230
         H            2.712023302136     1.618164822568     0.104901281017     1.007825032230
         H            1.324135902136     2.602998322568     0.851573981017     1.007825032230
         H           -3.321627097864    -1.494462677432     0.062743981017     1.007825032230
         H           -3.339371097864    -0.023217677432    -0.915727018983     1.007825032230
         H           -3.340932097864     0.090434322568     0.844941981017     1.007825032230

  Basis Set: AUG-CC-PVTZ
    Blend: AUG-CC-PVTZ
  Basis Set: (AUG-CC-PVTZ AUX)
    Blend: AUG-CC-PVTZ-JKFIT
	 Reference Energy          =    -438.8206118720396489 [Eh]
	 Singles Energy            =      -0.0000000000000000 [Eh]
	 Same-Spin Energy          =      -0.4703936108383664 [Eh]
	 Opposite-Spin Energy      =      -1.5001819754586396 [Eh]
	 Correlation Energy        =      -1.9705755862970060 [Eh]
	 Total Energy              =    -440.7911874583366512 [Eh]

	 ================> DF-SCS-MP2 Energies <==================
	-----------------------------------------------------------
	 SCS Same-Spin Scale       =       0.3333333333333333 [-]
	 SCS Opposite-Spin Scale   =       1.2000000000000000 [-]
	 SCS Same-Spin Energy      =      -0.1567978702794555 [Eh]
	 SCS Opposite-Spin Energy  =      -1.8002183705503674 [Eh]
	 SCS Correlation Energy    =      -1.9570162408298231 [Eh]
	 SCS Total Energy          =    -440.7776281128694791 [Eh]
	-----------------------------------------------------------

  Dipole Moment: [D]
     X:    -4.4815      Y:    -0.3311      Z:     0.0393     Total:     4.4939

*** Psi4 exiting successfully. Buy a developer a beer!
