                               Psi4 1.4a3.dev225

  ==> Input File <==

--------------------------------------------------------------------------
#psi4
#
memory 32 gb

molecule  {
0 1
  O        2.7382740    -0.7425350    -0.0126020
  N        0.6793120    -1.7266560     0.0061990
  C       -0.6027900     0.6893070    -0.0105920
  C        0.7782570     0.6611280     0.0035530
  C       -1.3671740    -0.5278470     0.0018860
  C        1.5049430    -0.6032750    -0.0044170
  C       -0.6863680    -1.7128580     0.0067460
  C       -1.3542970     1.9956390    -0.0048030
  C        1.5222732     1.7329944     0.0106614
  C       -2.8711540    -0.5219980    -0.0023590
  H       -1.1766380    -2.6823000     0.0159410
  H       -2.1333760     2.0016470    -0.7732430
  H       -0.6949600     2.8439520    -0.1887900
  H       -1.8505650     2.1568320     0.9594550
  H        1.1855660    -2.6081270     0.0055670
  H        1.5190430     2.4748580    -0.9113220
  H        2.6811620     1.5965790     0.0968200
  H        1.3890810     2.5538390     0.8512930
  H       -3.2566820    -1.5436220     0.0624630
  H       -3.2744260    -0.0723770    -0.9160080
  H       -3.2759870     0.0412750     0.8446610
units angstrom
no_reorient  #important for SAPT in psi4, default
symmetry c1  #important for SAPT in psi4, default
}

set PROPERTIES_ORIGIN ["COM"]
properties('MP2/aug-cc-pvtz', properties = ['dipole'])
--------------------------------------------------------------------------

    Molecular point group: c1
  Charge       = 0
  Multiplicity = 1
  Basis Set: AUG-CC-PVTZ
    Blend: AUG-CC-PVTZ
  Basis Set: (AUG-CC-PVTZ AUX)
    Blend: AUG-CC-PVTZ-JKFIT

    Orbital Energies [Eh]
    ---------------------

    Doubly Occupied:

       1A    -20.501753     2A    -15.616902     3A    -11.344887
       4A    -11.298133     5A    -11.270492     6A    -11.243938
       7A    -11.237809     8A    -11.236924     9A    -11.226893
      10A    -11.220876    11A     -1.363690    12A     -1.264332
      13A     -1.145480    14A     -1.080720    15A     -1.000693
      16A     -0.949822    17A     -0.931714    18A     -0.831519
      19A     -0.802621    20A     -0.728533    21A     -0.713164
      22A     -0.651718    23A     -0.623178    24A     -0.617359
      25A     -0.598054    26A     -0.583439    27A     -0.577341
      28A     -0.570057    29A     -0.562750    30A     -0.530256
      31A     -0.528958    32A     -0.515316    33A     -0.468912
      34A     -0.465149    35A     -0.418715    36A     -0.380227
      37A     -0.291257

  @DF-RHF Final Energy:  -438.77503458470096

   => Energetics <=

    Nuclear Repulsion Energy =            526.8802957501595756
    One-Electron Energy =               -1640.5235038696243919
    Two-Electron Energy =                 674.8681735347638551
    Total Energy =                       -438.7750345847009612
  Basis Set: (AUG-CC-PVTZ AUX)
    Blend: AUG-CC-PVTZ-RI
    Molecular point group: c1

    Geometry (in Angstrom), charge = 0, multiplicity = 1:

       Center              X                  Y                   Z               Mass
    ------------   -----------------  -----------------  -----------------  -----------------
         O            2.684016283628    -0.679196363804    -0.012168291256    15.994914619570
         N            0.625054283628    -1.663317363804     0.006632708744    14.003074004430
         C           -0.657047716372     0.752645636196    -0.010158291256    12.000000000000
         C            0.723999283628     0.724466636196     0.003986708744    12.000000000000
         C           -1.421431716372    -0.464508363804     0.002319708744    12.000000000000
         C            1.450685283628    -0.539936363804    -0.003983291256    12.000000000000
         C           -0.740625716372    -1.649519363804     0.007179708744    12.000000000000
         C           -1.408554716372     2.058977636196    -0.004369291256    12.000000000000
         C            1.468015483628     1.796333036196     0.011095108744    12.000000000000
         C           -2.925411716372    -0.458659363804    -0.001925291256    12.000000000000
         H           -1.230895716372    -2.618961363804     0.016374708744     1.007825032230
         H           -2.187633716372     2.064985636196    -0.772809291256     1.007825032230
         H           -0.749217716372     2.907290636196    -0.188356291256     1.007825032230
         H           -1.904822716372     2.220170636196     0.959888708744     1.007825032230
         H            1.131308283628    -2.544788363804     0.006000708744     1.007825032230
         H            1.464785283628     2.538196636196    -0.910888291256     1.007825032230
         H            2.626904283628     1.659917636196     0.097253708744     1.007825032230
         H            1.334823283628     2.617177636196     0.851726708744     1.007825032230
         H           -3.310939716372    -1.480283363804     0.062896708744     1.007825032230
         H           -3.328683716372    -0.009038363804    -0.915574291256     1.007825032230
         H           -3.330244716372     0.104613636196     0.845094708744     1.007825032230

  Basis Set: AUG-CC-PVTZ
    Blend: AUG-CC-PVTZ
  Basis Set: (AUG-CC-PVTZ AUX)
    Blend: AUG-CC-PVTZ-JKFIT
	 Reference Energy          =    -438.7750345847009612 [Eh]
	 Singles Energy            =      -0.0000000000000000 [Eh]
	 Same-Spin Energy          =      -0.4743134355895797 [Eh]
	 Opposite-Spin Energy      =      -1.5040395869765615 [Eh]
	 Correlation Energy        =      -1.9783530225661412 [Eh]
	 Total Energy              =    -440.7533876072670864 [Eh]

	 ================> DF-SCS-MP2 Energies <==================
	-----------------------------------------------------------
	 SCS Same-Spin Scale       =       0.3333333333333333 [-]
	 SCS Opposite-Spin Scale   =       1.2000000000000000 [-]
	 SCS Same-Spin Energy      =      -0.1581044785298599 [Eh]
	 SCS Opposite-Spin Energy  =      -1.8048475043718737 [Eh]
	 SCS Correlation Energy    =      -1.9629519829017337 [Eh]
	 SCS Total Energy          =    -440.7379865676027180 [Eh]
	-----------------------------------------------------------

  Dipole Moment: [D]
     X:    -4.3864      Y:    -0.3000      Z:     0.0399     Total:     4.3968

*** Psi4 exiting successfully. Buy a developer a beer!
