                               Psi4 1.4a3.dev225

  ==> Input File <==

--------------------------------------------------------------------------
#psi4
#
memory 32 gb

molecule  {
0 1
  O        2.7382740    -0.7425350    -0.0126020
  N        0.6793120    -1.7266560     0.0061990
  C       -0.6027900     0.6893070    -0.0105920
  C        0.7782570     0.6611280     0.0035530
  C       -1.3671740    -0.5278470     0.0018860
  C        1.5049430    -0.6032750    -0.0044170
  C       -0.6863680    -1.7128580     0.0067460
  C       -1.3542970     1.9956390    -0.0048030
  C        1.6363160     1.8972900     0.0117510
  C       -2.8711540    -0.5219980    -0.0023590
  H       -1.1766380    -2.6823000     0.0159410
  H       -2.1333760     2.0016470    -0.7732430
  H       -0.6949600     2.8439520    -0.1887900
  H       -1.9410931     2.1862365     1.1353528
  H        1.1855660    -2.6081270     0.0055670
  H        1.5190430     2.4748580    -0.9113220
  H        2.6811620     1.5965790     0.0968200
  H        1.3890810     2.5538390     0.8512930
  H       -3.2566820    -1.5436220     0.0624630
  H       -3.2744260    -0.0723770    -0.9160080
  H       -3.2759870     0.0412750     0.8446610
units angstrom
no_reorient  #important for SAPT in psi4, default
symmetry c1  #important for SAPT in psi4, default
}

set PROPERTIES_ORIGIN ["COM"]
properties('MP2/aug-cc-pvtz', properties = ['dipole'])
--------------------------------------------------------------------------

    Molecular point group: c1
  Charge       = 0
  Multiplicity = 1
  Basis Set: AUG-CC-PVTZ
    Blend: AUG-CC-PVTZ
  Basis Set: (AUG-CC-PVTZ AUX)
    Blend: AUG-CC-PVTZ-JKFIT

    Orbital Energies [Eh]
    ---------------------

    Doubly Occupied:

       1A    -20.501130     2A    -15.616402     3A    -11.345125
       4A    -11.297097     5A    -11.271068     6A    -11.259307
       7A    -11.243541     8A    -11.240265     9A    -11.236796
      10A    -11.213813    11A     -1.362597    12A     -1.263828
      13A     -1.131456    14A     -1.062622    15A     -0.984178
      16A     -0.948808    17A     -0.932709    18A     -0.826779
      19A     -0.809618    20A     -0.726741    21A     -0.706245
      22A     -0.645816    23A     -0.617037    24A     -0.598834
      25A     -0.586934    26A     -0.579589    27A     -0.570409
      28A     -0.564208    29A     -0.559046    30A     -0.541490
      31A     -0.524087    32A     -0.505688    33A     -0.500783
      34A     -0.469023    35A     -0.416598    36A     -0.386349
      37A     -0.296124

  @DF-RHF Final Energy:  -438.80780582079217

   => Energetics <=

    Nuclear Repulsion Energy =            521.9935472626076489
    One-Electron Energy =               -1630.9184293342032106
    Two-Electron Energy =                 670.1170762508035068
    Total Energy =                       -438.8078058207921686
  Basis Set: (AUG-CC-PVTZ AUX)
    Blend: AUG-CC-PVTZ-RI
    Molecular point group: c1

    Geometry (in Angstrom), charge = 0, multiplicity = 1:

       Center              X                  Y                   Z               Mass
    ------------   -----------------  -----------------  -----------------  -----------------
         O            2.674698810264    -0.693794572619    -0.013556850950    15.994914619570
         N            0.615736810264    -1.677915572619     0.005244149050    14.003074004430
         C           -0.666365189736     0.738047427381    -0.011546850950    12.000000000000
         C            0.714681810264     0.709868427381     0.002598149050    12.000000000000
         C           -1.430749189736    -0.479106572619     0.000931149050    12.000000000000
         C            1.441367810264    -0.554534572619    -0.005371850950    12.000000000000
         C           -0.749943189736    -1.664117572619     0.005791149050    12.000000000000
         C           -1.417872189736     2.044379427381    -0.005757850950    12.000000000000
         C            1.572740810264     1.946030427381     0.010796149050    12.000000000000
         C           -2.934729189736    -0.473257572619    -0.003313850950    12.000000000000
         H           -1.240213189736    -2.633559572619     0.014986149050     1.007825032230
         H           -2.196951189736     2.050387427381    -0.774197850950     1.007825032230
         H           -0.758535189736     2.892692427381    -0.189744850950     1.007825032230
         H           -2.004668289736     2.234976927381     1.134397949050     1.007825032230
         H            1.121990810264    -2.559386572619     0.004612149050     1.007825032230
         H            1.455467810264     2.523598427381    -0.912276850950     1.007825032230
         H            2.617586810264     1.645319427381     0.095865149050     1.007825032230
         H            1.325505810264     2.602579427381     0.850338149050     1.007825032230
         H           -3.320257189736    -1.494881572619     0.061508149050     1.007825032230
         H           -3.338001189736    -0.023636572619    -0.916962850950     1.007825032230
         H           -3.339562189736     0.090015427381     0.843706149050     1.007825032230

  Basis Set: AUG-CC-PVTZ
    Blend: AUG-CC-PVTZ
  Basis Set: (AUG-CC-PVTZ AUX)
    Blend: AUG-CC-PVTZ-JKFIT
	 Reference Energy          =    -438.8078058207921686 [Eh]
	 Singles Energy            =      -0.0000000000000000 [Eh]
	 Same-Spin Energy          =      -0.4702754343672598 [Eh]
	 Opposite-Spin Energy      =      -1.5008433857217480 [Eh]
	 Correlation Energy        =      -1.9711188200890080 [Eh]
	 Total Energy              =    -440.7789246408812005 [Eh]

	 ================> DF-SCS-MP2 Energies <==================
	-----------------------------------------------------------
	 SCS Same-Spin Scale       =       0.3333333333333333 [-]
	 SCS Opposite-Spin Scale   =       1.2000000000000000 [-]
	 SCS Same-Spin Energy      =      -0.1567584781224199 [Eh]
	 SCS Opposite-Spin Energy  =      -1.8010120628660975 [Eh]
	 SCS Correlation Energy    =      -1.9577705409885173 [Eh]
	 SCS Total Energy          =    -440.7655763617806883 [Eh]
	-----------------------------------------------------------

  Dipole Moment: [D]
     X:    -4.3797      Y:    -0.3495      Z:    -0.0371     Total:     4.3938

*** Psi4 exiting successfully. Buy a developer a beer!
