                               Psi4 1.4a3.dev225

  ==> Input File <==

--------------------------------------------------------------------------
#psi4
#
memory 32 gb

molecule  {
0 1
  O        2.7382740    -0.7425350    -0.0126020
  N        0.6793120    -1.7266560     0.0061990
  C       -0.6027900     0.6893070    -0.0105920
  C        0.7782570     0.6611280     0.0035530
  C       -1.3671740    -0.5278470     0.0018860
  C        1.5049430    -0.6032750    -0.0044170
  C       -0.4863782    -1.7148786     0.0066659
  C       -1.3542970     1.9956390    -0.0048030
  C        1.6363160     1.8972900     0.0117510
  C       -2.8711540    -0.5219980    -0.0023590
  H       -1.1766380    -2.6823000     0.0159410
  H       -2.1333760     2.0016470    -0.7732430
  H       -0.6949600     2.8439520    -0.1887900
  H       -1.8505650     2.1568320     0.9594550
  H        1.1855660    -2.6081270     0.0055670
  H        1.5190430     2.4748580    -0.9113220
  H        2.6811620     1.5965790     0.0968200
  H        1.3890810     2.5538390     0.8512930
  H       -3.2566820    -1.5436220     0.0624630
  H       -3.2744260    -0.0723770    -0.9160080
  H       -3.2759870     0.0412750     0.8446610
units angstrom
no_reorient  #important for SAPT in psi4, default
symmetry c1  #important for SAPT in psi4, default
}

set PROPERTIES_ORIGIN ["COM"]
properties('MP2/aug-cc-pvtz', properties = ['dipole'])
--------------------------------------------------------------------------

    Molecular point group: c1
  Charge       = 0
  Multiplicity = 1
  Basis Set: AUG-CC-PVTZ
    Blend: AUG-CC-PVTZ
  Basis Set: (AUG-CC-PVTZ AUX)
    Blend: AUG-CC-PVTZ-JKFIT

    Orbital Energies [Eh]
    ---------------------

    Doubly Occupied:

       1A    -20.501010     2A    -15.640811     3A    -11.345314
       4A    -11.313581     5A    -11.264216     6A    -11.238257
       7A    -11.236179     8A    -11.231362     9A    -11.223840
      10A    -11.207014    11A     -1.401395    12A     -1.322916
      13A     -1.126977    14A     -1.045240    15A     -0.983428
      16A     -0.959955    17A     -0.938499    18A     -0.838127
      19A     -0.823690    20A     -0.759530    21A     -0.708593
      22A     -0.647587    23A     -0.624219    24A     -0.593572
      25A     -0.592940    26A     -0.583942    27A     -0.567724
      28A     -0.564816    29A     -0.549277    30A     -0.548293
      31A     -0.531786    32A     -0.502662    33A     -0.486808
      34A     -0.478514    35A     -0.414229    36A     -0.386893
      37A     -0.269750

  @DF-RHF Final Energy:  -438.76197579670804

   => Energetics <=

    Nuclear Repulsion Energy =            525.0660085964581185
    One-Electron Energy =               -1636.7500805394051895
    Two-Electron Energy =                 672.9220961462389141
    Total Energy =                       -438.7619757967080432
  Basis Set: (AUG-CC-PVTZ AUX)
    Blend: AUG-CC-PVTZ-RI
    Molecular point group: c1

    Geometry (in Angstrom), charge = 0, multiplicity = 1:

       Center              X                  Y                   Z               Mass
    ------------   -----------------  -----------------  -----------------  -----------------
         O            2.656526646316    -0.693401516055    -0.012256660390    15.994914619570
         N            0.597564646316    -1.677522516055     0.006544339610    14.003074004430
         C           -0.684537353684     0.738440483945    -0.010246660390    12.000000000000
         C            0.696509646316     0.710261483945     0.003898339610    12.000000000000
         C           -1.448921353684    -0.478713516055     0.002231339610    12.000000000000
         C            1.423195646316    -0.554141516055    -0.004071660390    12.000000000000
         C           -0.568125553684    -1.665745116055     0.007011239610    12.000000000000
         C           -1.436044353684     2.044772483945    -0.004457660390    12.000000000000
         C            1.554568646316     1.946423483945     0.012096339610    12.000000000000
         C           -2.952901353684    -0.472864516055    -0.002013660390    12.000000000000
         H           -1.258385353684    -2.633166516055     0.016286339610     1.007825032230
         H           -2.215123353684     2.050780483945    -0.772897660390     1.007825032230
         H           -0.776707353684     2.893085483945    -0.188444660390     1.007825032230
         H           -1.932312353684     2.205965483945     0.959800339610     1.007825032230
         H            1.103818646316    -2.558993516055     0.005912339610     1.007825032230
         H            1.437295646316     2.523991483945    -0.910976660390     1.007825032230
         H            2.599414646316     1.645712483945     0.097165339610     1.007825032230
         H            1.307333646316     2.602972483945     0.851638339610     1.007825032230
         H           -3.338429353684    -1.494488516055     0.062808339610     1.007825032230
         H           -3.356173353684    -0.023243516055    -0.915662660390     1.007825032230
         H           -3.357734353684     0.090408483945     0.845006339610     1.007825032230

  Basis Set: AUG-CC-PVTZ
    Blend: AUG-CC-PVTZ
  Basis Set: (AUG-CC-PVTZ AUX)
    Blend: AUG-CC-PVTZ-JKFIT
	 Reference Energy          =    -438.7619757967080432 [Eh]
	 Singles Energy            =      -0.0000000000000000 [Eh]
	 Same-Spin Energy          =      -0.4732247363701279 [Eh]
	 Opposite-Spin Energy      =      -1.5002343200229384 [Eh]
	 Correlation Energy        =      -1.9734590563930663 [Eh]
	 Total Energy              =    -440.7354348531010828 [Eh]

	 ================> DF-SCS-MP2 Energies <==================
	-----------------------------------------------------------
	 SCS Same-Spin Scale       =       0.3333333333333333 [-]
	 SCS Opposite-Spin Scale   =       1.2000000000000000 [-]
	 SCS Same-Spin Energy      =      -0.1577415787900426 [Eh]
	 SCS Opposite-Spin Energy  =      -1.8002811840275261 [Eh]
	 SCS Correlation Energy    =      -1.9580227628175688 [Eh]
	 SCS Total Energy          =    -440.7199985595256067 [Eh]
	-----------------------------------------------------------

  Dipole Moment: [D]
     X:    -4.2502      Y:    -0.8666      Z:     0.0458     Total:     4.3379

*** Psi4 exiting successfully. Buy a developer a beer!
