                               Psi4 1.4a3.dev225

  ==> Input File <==

--------------------------------------------------------------------------
#psi4
#
memory 32 gb

molecule  {
0 1
  O        2.7382740    -0.7425350    -0.0126020
  N        0.6793120    -1.7266560     0.0061990
  C       -0.6027900     0.6893070    -0.0105920
  C        0.7782570     0.6611280     0.0035530
  C       -1.2608120    -0.3584832     0.0001497
  C        1.5049430    -0.6032750    -0.0044170
  C       -0.6863680    -1.7128580     0.0067460
  C       -1.3542970     1.9956390    -0.0048030
  C        1.6363160     1.8972900     0.0117510
  C       -2.8711540    -0.5219980    -0.0023590
  H       -1.1766380    -2.6823000     0.0159410
  H       -2.1333760     2.0016470    -0.7732430
  H       -0.6949600     2.8439520    -0.1887900
  H       -1.8505650     2.1568320     0.9594550
  H        1.1855660    -2.6081270     0.0055670
  H        1.5190430     2.4748580    -0.9113220
  H        2.6811620     1.5965790     0.0968200
  H        1.3890810     2.5538390     0.8512930
  H       -3.2566820    -1.5436220     0.0624630
  H       -3.2744260    -0.0723770    -0.9160080
  H       -3.2759870     0.0412750     0.8446610
units angstrom
no_reorient  #important for SAPT in psi4, default
symmetry c1  #important for SAPT in psi4, default
}

set PROPERTIES_ORIGIN ["COM"]
properties('MP2/aug-cc-pvtz', properties = ['dipole'])
--------------------------------------------------------------------------

    Molecular point group: c1
  Charge       = 0
  Multiplicity = 1
  Basis Set: AUG-CC-PVTZ
    Blend: AUG-CC-PVTZ
  Basis Set: (AUG-CC-PVTZ AUX)
    Blend: AUG-CC-PVTZ-JKFIT

    Orbital Energies [Eh]
    ---------------------

    Doubly Occupied:

       1A    -20.487829     2A    -15.633647     3A    -11.336444
       4A    -11.323551     5A    -11.245674     6A    -11.242684
       7A    -11.242275     8A    -11.234386     9A    -11.231991
      10A    -11.208803    11A     -1.357935    12A     -1.268698
      13A     -1.158244    14A     -1.045012    15A     -0.985573
      16A     -0.947665    17A     -0.938454    18A     -0.854103
      19A     -0.806224    20A     -0.723063    21A     -0.712984
      22A     -0.655078    23A     -0.623790    24A     -0.600532
      25A     -0.589749    26A     -0.581541    27A     -0.568042
      28A     -0.564487    29A     -0.550149    30A     -0.547248
      31A     -0.525804    32A     -0.512391    33A     -0.469522
      34A     -0.467456    35A     -0.414365    36A     -0.408783
      37A     -0.274113

  @DF-RHF Final Energy:  -438.76235037089384

   => Energetics <=

    Nuclear Repulsion Energy =            524.7710557842212893
    One-Electron Energy =               -1636.3902359306782728
    Two-Electron Energy =                 672.8568297755631420
    Total Energy =                       -438.7623503708938415
  Basis Set: (AUG-CC-PVTZ AUX)
    Blend: AUG-CC-PVTZ-RI
    Molecular point group: c1

    Geometry (in Angstrom), charge = 0, multiplicity = 1:

       Center              X                  Y                   Z               Mass
    ------------   -----------------  -----------------  -----------------  -----------------
         O            2.664722592419    -0.708404082658    -0.012111680737    15.994914619570
         N            0.605760592419    -1.692525082658     0.006689319263    14.003074004430
         C           -0.676341407581     0.723437917342    -0.010101680737    12.000000000000
         C            0.704705592419     0.695258917342     0.004043319263    12.000000000000
         C           -1.334363407581    -0.324352282658     0.000640019263    12.000000000000
         C            1.431391592419    -0.569144082658    -0.003926680737    12.000000000000
         C           -0.759919407581    -1.678727082658     0.007236319263    12.000000000000
         C           -1.427848407581     2.029769917342    -0.004312680737    12.000000000000
         C            1.562764592419     1.931420917342     0.012241319263    12.000000000000
         C           -2.944705407581    -0.487867082658    -0.001868680737    12.000000000000
         H           -1.250189407581    -2.648169082658     0.016431319263     1.007825032230
         H           -2.206927407581     2.035777917342    -0.772752680737     1.007825032230
         H           -0.768511407581     2.878082917342    -0.188299680737     1.007825032230
         H           -1.924116407581     2.190962917342     0.959945319263     1.007825032230
         H            1.112014592419    -2.573996082658     0.006057319263     1.007825032230
         H            1.445491592419     2.508988917342    -0.910831680737     1.007825032230
         H            2.607610592419     1.630709917342     0.097310319263     1.007825032230
         H            1.315529592419     2.587969917342     0.851783319263     1.007825032230
         H           -3.330233407581    -1.509491082658     0.062953319263     1.007825032230
         H           -3.347977407581    -0.038246082658    -0.915517680737     1.007825032230
         H           -3.349538407581     0.075405917342     0.845151319263     1.007825032230

  Basis Set: AUG-CC-PVTZ
    Blend: AUG-CC-PVTZ
  Basis Set: (AUG-CC-PVTZ AUX)
    Blend: AUG-CC-PVTZ-JKFIT
	 Reference Energy          =    -438.7623503708938415 [Eh]
	 Singles Energy            =      -0.0000000000000000 [Eh]
	 Same-Spin Energy          =      -0.4759548987764081 [Eh]
	 Opposite-Spin Energy      =      -1.5066084083806537 [Eh]
	 Correlation Energy        =      -1.9825633071570619 [Eh]
	 Total Energy              =    -440.7449136780509207 [Eh]

	 ================> DF-SCS-MP2 Energies <==================
	-----------------------------------------------------------
	 SCS Same-Spin Scale       =       0.3333333333333333 [-]
	 SCS Opposite-Spin Scale   =       1.2000000000000000 [-]
	 SCS Same-Spin Energy      =      -0.1586516329254694 [Eh]
	 SCS Opposite-Spin Energy  =      -1.8079300900567843 [Eh]
	 SCS Correlation Energy    =      -1.9665817229822535 [Eh]
	 SCS Total Energy          =    -440.7289320938760966 [Eh]
	-----------------------------------------------------------

  Dipole Moment: [D]
     X:    -4.6174      Y:    -0.4494      Z:     0.0441     Total:     4.6394

*** Psi4 exiting successfully. Buy a developer a beer!
