                               Psi4 1.4a3.dev225

  ==> Input File <==

--------------------------------------------------------------------------
#psi4
#
memory 32 gb

molecule  {
0 1
  O        2.7382740    -0.7425350    -0.0126020
  N        0.6793120    -1.7266560     0.0061990
  C       -0.6027900     0.6893070    -0.0105920
  C        0.7782570     0.6611280     0.0035530
  C       -1.3671740    -0.5278470     0.0018860
  C        1.5049430    -0.6032750    -0.0044170
  C       -0.6863680    -1.7128580     0.0067460
  C       -1.3542970     1.9956390    -0.0048030
  C        1.6363160     1.8972900     0.0117510
  C       -2.8711540    -0.5219980    -0.0023590
  H       -1.1766380    -2.6823000     0.0159410
  H       -2.1333760     2.0016470    -0.7732430
  H       -0.6949600     2.8439520    -0.1887900
  H       -1.8505650     2.1568320     0.9594550
  H        1.1855660    -2.6081270     0.0055670
  H        1.5297512     2.4221203    -0.8270363
  H        2.6811620     1.5965790     0.0968200
  H        1.3890810     2.5538390     0.8512930
  H       -3.2566820    -1.5436220     0.0624630
  H       -3.2744260    -0.0723770    -0.9160080
  H       -3.2759870     0.0412750     0.8446610
units angstrom
no_reorient  #important for SAPT in psi4, default
symmetry c1  #important for SAPT in psi4, default
}

set PROPERTIES_ORIGIN ["COM"]
properties('MP2/aug-cc-pvtz', properties = ['dipole'])
--------------------------------------------------------------------------

    Molecular point group: c1
  Charge       = 0
  Multiplicity = 1
  Basis Set: AUG-CC-PVTZ
    Blend: AUG-CC-PVTZ
  Basis Set: (AUG-CC-PVTZ AUX)
    Blend: AUG-CC-PVTZ-JKFIT

    Orbital Energies [Eh]
    ---------------------

    Doubly Occupied:

       1A    -20.499874     2A    -15.615371     3A    -11.343654
       4A    -11.296394     5A    -11.268861     6A    -11.242723
       7A    -11.237870     8A    -11.237179     9A    -11.237104
      10A    -11.200279    11A     -1.361385    12A     -1.262786
      13A     -1.131587    14A     -1.062990    15A     -0.992970
      16A     -0.948759    17A     -0.939997    18A     -0.831214
      19A     -0.811577    20A     -0.726090    21A     -0.705935
      22A     -0.645795    23A     -0.621963    24A     -0.597869
      25A     -0.588279    26A     -0.583709    27A     -0.575132
      28A     -0.569012    29A     -0.562286    30A     -0.557497
      31A     -0.534243    32A     -0.506070    33A     -0.499672
      34A     -0.468411    35A     -0.415331    36A     -0.388295
      37A     -0.295563

  @DF-RHF Final Energy:  -438.82168859954493

   => Energetics <=

    Nuclear Repulsion Energy =            523.3023267396021083
    One-Electron Energy =               -1633.5205767093698341
    Two-Electron Energy =                 671.3965613702229120
    Total Energy =                       -438.8216885995449275
  Basis Set: (AUG-CC-PVTZ AUX)
    Blend: AUG-CC-PVTZ-RI
    Molecular point group: c1

    Geometry (in Angstrom), charge = 0, multiplicity = 1:

       Center              X                  Y                   Z               Mass
    ------------   -----------------  -----------------  -----------------  -----------------
         O            2.673954533546    -0.693190673355    -0.012883330156    15.994914619570
         N            0.614992533546    -1.677311673355     0.005917669844    14.003074004430
         C           -0.667109466454     0.738651326645    -0.010873330156    12.000000000000
         C            0.713937533546     0.710472326645     0.003271669844    12.000000000000
         C           -1.431493466454    -0.478502673355     0.001604669844    12.000000000000
         C            1.440623533546    -0.553930673355    -0.004698330156    12.000000000000
         C           -0.750687466454    -1.663513673355     0.006464669844    12.000000000000
         C           -1.418616466454     2.044983326645    -0.005084330156    12.000000000000
         C            1.571996533546     1.946634326645     0.011469669844    12.000000000000
         C           -2.935473466454    -0.472653673355    -0.002640330156    12.000000000000
         H           -1.240957466454    -2.632955673355     0.015659669844     1.007825032230
         H           -2.197695466454     2.050991326645    -0.773524330156     1.007825032230
         H           -0.759279466454     2.893296326645    -0.189071330156     1.007825032230
         H           -1.914884466454     2.206176326645     0.959173669844     1.007825032230
         H            1.121246533546    -2.558782673355     0.005285669844     1.007825032230
         H            1.465431733546     2.471464626645    -0.827317630156     1.007825032230
         H            2.616842533546     1.645923326645     0.096538669844     1.007825032230
         H            1.324761533546     2.603183326645     0.851011669844     1.007825032230
         H           -3.321001466454    -1.494277673355     0.062181669844     1.007825032230
         H           -3.338745466454    -0.023032673355    -0.916289330156     1.007825032230
         H           -3.340306466454     0.090619326645     0.844379669844     1.007825032230

  Basis Set: AUG-CC-PVTZ
    Blend: AUG-CC-PVTZ
  Basis Set: (AUG-CC-PVTZ AUX)
    Blend: AUG-CC-PVTZ-JKFIT
	 Reference Energy          =    -438.8216885995449275 [Eh]
	 Singles Energy            =      -0.0000000000000000 [Eh]
	 Same-Spin Energy          =      -0.4701537075806992 [Eh]
	 Opposite-Spin Energy      =      -1.4987271831736657 [Eh]
	 Correlation Energy        =      -1.9688808907543649 [Eh]
	 Total Energy              =    -440.7905694902992764 [Eh]

	 ================> DF-SCS-MP2 Energies <==================
	-----------------------------------------------------------
	 SCS Same-Spin Scale       =       0.3333333333333333 [-]
	 SCS Opposite-Spin Scale   =       1.2000000000000000 [-]
	 SCS Same-Spin Energy      =      -0.1567179025268997 [Eh]
	 SCS Opposite-Spin Energy  =      -1.7984726198083989 [Eh]
	 SCS Correlation Energy    =      -1.9551905223352986 [Eh]
	 SCS Total Energy          =    -440.7768791218801994 [Eh]
	-----------------------------------------------------------

  Dipole Moment: [D]
     X:    -4.4579      Y:    -0.2587      Z:     0.0148     Total:     4.4654

*** Psi4 exiting successfully. Buy a developer a beer!
