                               Psi4 1.4a3.dev225

  ==> Input File <==

--------------------------------------------------------------------------
#psi4
#
memory 32 gb

molecule  {
0 1
  O        2.7382740    -0.7425350    -0.0126020
  N        0.6793120    -1.7266560     0.0061990
  C       -0.6027900     0.6893070    -0.0105920
  C        0.7782570     0.6611280     0.0035530
  C       -1.3671740    -0.5278470     0.0018860
  C        1.5049430    -0.6032750    -0.0044170
  C       -0.6863680    -1.7128580     0.0067460
  C       -1.3542970     1.9956390    -0.0048030
  C        1.7503588     2.0615856     0.0128406
  C       -2.8711540    -0.5219980    -0.0023590
  H       -1.1766380    -2.6823000     0.0159410
  H       -2.1333760     2.0016470    -0.7732430
  H       -0.6949600     2.8439520    -0.1887900
  H       -1.8505650     2.1568320     0.9594550
  H        1.1855660    -2.6081270     0.0055670
  H        1.5190430     2.4748580    -0.9113220
  H        2.6811620     1.5965790     0.0968200
  H        1.3890810     2.5538390     0.8512930
  H       -3.2566820    -1.5436220     0.0624630
  H       -3.2744260    -0.0723770    -0.9160080
  H       -3.2759870     0.0412750     0.8446610
units angstrom
no_reorient  #important for SAPT in psi4, default
symmetry c1  #important for SAPT in psi4, default
}

set PROPERTIES_ORIGIN ["COM"]
properties('MP2/aug-cc-pvtz', properties = ['dipole'])
--------------------------------------------------------------------------

    Molecular point group: c1
  Charge       = 0
  Multiplicity = 1
  Basis Set: AUG-CC-PVTZ
    Blend: AUG-CC-PVTZ
  Basis Set: (AUG-CC-PVTZ AUX)
    Blend: AUG-CC-PVTZ-JKFIT

    Orbital Energies [Eh]
    ---------------------

    Doubly Occupied:

       1A    -20.499498     2A    -15.615040     3A    -11.343933
       4A    -11.295902     5A    -11.268493     6A    -11.243514
       7A    -11.242290     8A    -11.236837     9A    -11.236786
      10A    -11.215470    11A     -1.360666    12A     -1.262385
      13A     -1.126355    14A     -1.051691    15A     -0.984324
      16A     -0.948160    17A     -0.939238    18A     -0.830585
      19A     -0.811409    20A     -0.724576    21A     -0.700555
      22A     -0.643459    23A     -0.620665    24A     -0.598622
      25A     -0.590366    26A     -0.581074    27A     -0.578820
      28A     -0.578085    29A     -0.563012    30A     -0.548144
      31A     -0.541623    32A     -0.517839    33A     -0.468438
      34A     -0.459275    35A     -0.410811    36A     -0.390209
      37A     -0.296457

  @DF-RHF Final Energy:  -438.80153706061321

   => Energetics <=

    Nuclear Repulsion Energy =            519.2161927261880692
    One-Electron Energy =               -1625.3862490970489034
    Two-Electron Energy =                 667.3685193102477342
    Total Energy =                       -438.8015370606132137
  Basis Set: (AUG-CC-PVTZ AUX)
    Blend: AUG-CC-PVTZ-RI
    Molecular point group: c1

    Geometry (in Angstrom), charge = 0, multiplicity = 1:

       Center              X                  Y                   Z               Mass
    ------------   -----------------  -----------------  -----------------  -----------------
         O            2.664050234179    -0.707960424962    -0.012359053035    15.994914619570
         N            0.605088234179    -1.692081424962     0.006441946965    14.003074004430
         C           -0.677013765821     0.723881575038    -0.010349053035    12.000000000000
         C            0.704033234179     0.695702575038     0.003795946965    12.000000000000
         C           -1.441397765821    -0.493272424962     0.002128946965    12.000000000000
         C            1.430719234179    -0.568700424962    -0.004174053035    12.000000000000
         C           -0.760591765821    -1.678283424962     0.006988946965    12.000000000000
         C           -1.428520765821     2.030213575038    -0.004560053035    12.000000000000
         C            1.676135034179     2.096160175038     0.013083546965    12.000000000000
         C           -2.945377765821    -0.487423424962    -0.002116053035    12.000000000000
         H           -1.250861765821    -2.647725424962     0.016183946965     1.007825032230
         H           -2.207599765821     2.036221575038    -0.773000053035     1.007825032230
         H           -0.769183765821     2.878526575038    -0.188547053035     1.007825032230
         H           -1.924788765821     2.191406575038     0.959697946965     1.007825032230
         H            1.111342234179    -2.573552424962     0.005809946965     1.007825032230
         H            1.444819234179     2.509432575038    -0.911079053035     1.007825032230
         H            2.606938234179     1.631153575038     0.097062946965     1.007825032230
         H            1.314857234179     2.588413575038     0.851535946965     1.007825032230
         H           -3.330905765821    -1.509047424962     0.062705946965     1.007825032230
         H           -3.348649765821    -0.037802424962    -0.915765053035     1.007825032230
         H           -3.350210765821     0.075849575038     0.844903946965     1.007825032230

  Basis Set: AUG-CC-PVTZ
    Blend: AUG-CC-PVTZ
  Basis Set: (AUG-CC-PVTZ AUX)
    Blend: AUG-CC-PVTZ-JKFIT
	 Reference Energy          =    -438.8015370606132137 [Eh]
	 Singles Energy            =      -0.0000000000000000 [Eh]
	 Same-Spin Energy          =      -0.4695752417951580 [Eh]
	 Opposite-Spin Energy      =      -1.4998227675184168 [Eh]
	 Correlation Energy        =      -1.9693980093135748 [Eh]
	 Total Energy              =    -440.7709350699267929 [Eh]

	 ================> DF-SCS-MP2 Energies <==================
	-----------------------------------------------------------
	 SCS Same-Spin Scale       =       0.3333333333333333 [-]
	 SCS Opposite-Spin Scale   =       1.2000000000000000 [-]
	 SCS Same-Spin Energy      =      -0.1565250805983860 [Eh]
	 SCS Opposite-Spin Energy  =      -1.7997873210221000 [Eh]
	 SCS Correlation Energy    =      -1.9563124016204860 [Eh]
	 SCS Total Energy          =    -440.7578494622337075 [Eh]
	-----------------------------------------------------------

  Dipole Moment: [D]
     X:    -4.5227      Y:    -0.3288      Z:     0.0424     Total:     4.5348

*** Psi4 exiting successfully. Buy a developer a beer!
