                               Psi4 1.4a3.dev225

  ==> Input File <==

--------------------------------------------------------------------------
#psi4
#
memory 32 gb

molecule  {
0 1
  O        2.7382740    -0.7425350    -0.0126020
  N        0.6793120    -1.7266560     0.0061990
  C       -0.6027900     0.6893070    -0.0105920
  C        0.7782570     0.6611280     0.0035530
  C       -1.3671740    -0.5278470     0.0018860
  C        1.5049430    -0.6032750    -0.0044170
  C       -0.6863680    -1.7128580     0.0067460
  C       -1.4041620     2.0823185    -0.0044189
  C        1.6363160     1.8972900     0.0117510
  C       -2.8711540    -0.5219980    -0.0023590
  H       -1.1766380    -2.6823000     0.0159410
  H       -2.1333760     2.0016470    -0.7732430
  H       -0.6949600     2.8439520    -0.1887900
  H       -1.8505650     2.1568320     0.9594550
  H        1.1855660    -2.6081270     0.0055670
  H        1.5190430     2.4748580    -0.9113220
  H        2.6811620     1.5965790     0.0968200
  H        1.3890810     2.5538390     0.8512930
  H       -3.2566820    -1.5436220     0.0624630
  H       -3.2744260    -0.0723770    -0.9160080
  H       -3.2759870     0.0412750     0.8446610
units angstrom
no_reorient  #important for SAPT in psi4, default
symmetry c1  #important for SAPT in psi4, default
}

set PROPERTIES_ORIGIN ["COM"]
properties('MP2/aug-cc-pvtz', properties = ['dipole'])
--------------------------------------------------------------------------

    Molecular point group: c1
  Charge       = 0
  Multiplicity = 1
  Basis Set: AUG-CC-PVTZ
    Blend: AUG-CC-PVTZ
  Basis Set: (AUG-CC-PVTZ AUX)
    Blend: AUG-CC-PVTZ-JKFIT

    Orbital Energies [Eh]
    ---------------------

    Doubly Occupied:

       1A    -20.500070     2A    -15.615666     3A    -11.344048
       4A    -11.296607     5A    -11.272620     6A    -11.243128
       7A    -11.238352     8A    -11.237406     9A    -11.235490
      10A    -11.212890    11A     -1.361612    12A     -1.262890
      13A     -1.124435    14A     -1.061090    15A     -0.986845
      16A     -0.948783    17A     -0.935459    18A     -0.832729
      19A     -0.809039    20A     -0.725578    21A     -0.703888
      22A     -0.639669    23A     -0.622304    24A     -0.600083
      25A     -0.588255    26A     -0.582747    27A     -0.575624
      28A     -0.573497    29A     -0.560675    30A     -0.552463
      31A     -0.534371    32A     -0.504050    33A     -0.491729
      34A     -0.468644    35A     -0.413788    36A     -0.390033
      37A     -0.295458

  @DF-RHF Final Energy:  -438.82071721184485

   => Energetics <=

    Nuclear Repulsion Energy =            521.0199725952688823
    One-Electron Energy =               -1628.9973546274904947
    Two-Electron Energy =                 669.1566648203767045
    Total Energy =                       -438.8207172118449080
  Basis Set: (AUG-CC-PVTZ AUX)
    Blend: AUG-CC-PVTZ-RI
    Molecular point group: c1

    Geometry (in Angstrom), charge = 0, multiplicity = 1:

       Center              X                  Y                   Z               Mass
    ------------   -----------------  -----------------  -----------------  -----------------
         O            2.678398317705    -0.701166103485    -0.012297295310    15.994914619570
         N            0.619436317705    -1.685287103485     0.006503704690    14.003074004430
         C           -0.662665682295     0.730675896515    -0.010287295310    12.000000000000
         C            0.718381317705     0.702496896515     0.003857704690    12.000000000000
         C           -1.427049682295    -0.486478103485     0.002190704690    12.000000000000
         C            1.445067317705    -0.561906103485    -0.004112295310    12.000000000000
         C           -0.746243682295    -1.671489103485     0.007050704690    12.000000000000
         C           -1.464037682295     2.123687396515    -0.004114195310    12.000000000000
         C            1.576440317705     1.938658896515     0.012055704690    12.000000000000
         C           -2.931029682295    -0.480629103485    -0.002054295310    12.000000000000
         H           -1.236513682295    -2.640931103485     0.016245704690     1.007825032230
         H           -2.193251682295     2.043015896515    -0.772938295310     1.007825032230
         H           -0.754835682295     2.885320896515    -0.188485295310     1.007825032230
         H           -1.910440682295     2.198200896515     0.959759704690     1.007825032230
         H            1.125690317705    -2.566758103485     0.005871704690     1.007825032230
         H            1.459167317705     2.516226896515    -0.911017295310     1.007825032230
         H            2.621286317705     1.637947896515     0.097124704690     1.007825032230
         H            1.329205317705     2.595207896515     0.851597704690     1.007825032230
         H           -3.316557682295    -1.502253103485     0.062767704690     1.007825032230
         H           -3.334301682295    -0.031008103485    -0.915703295310     1.007825032230
         H           -3.335862682295     0.082643896515     0.844965704690     1.007825032230

  Basis Set: AUG-CC-PVTZ
    Blend: AUG-CC-PVTZ
  Basis Set: (AUG-CC-PVTZ AUX)
    Blend: AUG-CC-PVTZ-JKFIT
	 Reference Energy          =    -438.8207172118448511 [Eh]
	 Singles Energy            =      -0.0000000000000000 [Eh]
	 Same-Spin Energy          =      -0.4695584679926430 [Eh]
	 Opposite-Spin Energy      =      -1.4988974376602378 [Eh]
	 Correlation Energy        =      -1.9684559056528808 [Eh]
	 Total Energy              =    -440.7891731174977394 [Eh]

	 ================> DF-SCS-MP2 Energies <==================
	-----------------------------------------------------------
	 SCS Same-Spin Scale       =       0.3333333333333333 [-]
	 SCS Opposite-Spin Scale   =       1.2000000000000000 [-]
	 SCS Same-Spin Energy      =      -0.1565194893308810 [Eh]
	 SCS Opposite-Spin Energy  =      -1.7986769251922852 [Eh]
	 SCS Correlation Energy    =      -1.9551964145231662 [Eh]
	 SCS Total Energy          =    -440.7759136263680375 [Eh]
	-----------------------------------------------------------

  Dipole Moment: [D]
     X:    -4.4309      Y:    -0.3357      Z:     0.0411     Total:     4.4438

*** Psi4 exiting successfully. Buy a developer a beer!
