                               Psi4 1.4a3.dev225

  ==> Input File <==

--------------------------------------------------------------------------
#psi4
#
memory 32 gb

molecule  {
0 1
  O        2.7382740    -0.7425350    -0.0126020
  N        0.6793120    -1.7266560     0.0061990
  C       -0.6027900     0.6893070    -0.0105920
  C        0.7782570     0.6611280     0.0035530
  C       -1.3671740    -0.5278470     0.0018860
  C        1.5049430    -0.6032750    -0.0044170
  C       -0.6863680    -1.7128580     0.0067460
  C       -1.3542970     1.9956390    -0.0048030
  C        1.6363160     1.8972900     0.0117510
  C       -2.8711540    -0.5219980    -0.0023590
  H       -1.1766380    -2.6823000     0.0159410
  H       -2.1333760     2.0016470    -0.7732430
  H       -0.5739864     2.9995985    -0.2225475
  H       -1.8505650     2.1568320     0.9594550
  H        1.1855660    -2.6081270     0.0055670
  H        1.5190430     2.4748580    -0.9113220
  H        2.6811620     1.5965790     0.0968200
  H        1.3890810     2.5538390     0.8512930
  H       -3.2566820    -1.5436220     0.0624630
  H       -3.2744260    -0.0723770    -0.9160080
  H       -3.2759870     0.0412750     0.8446610
units angstrom
no_reorient  #important for SAPT in psi4, default
symmetry c1  #important for SAPT in psi4, default
}

set PROPERTIES_ORIGIN ["COM"]
properties('MP2/aug-cc-pvtz', properties = ['dipole'])
--------------------------------------------------------------------------

    Molecular point group: c1
  Charge       = 0
  Multiplicity = 1
  Basis Set: AUG-CC-PVTZ
    Blend: AUG-CC-PVTZ
  Basis Set: (AUG-CC-PVTZ AUX)
    Blend: AUG-CC-PVTZ-JKFIT

    Orbital Energies [Eh]
    ---------------------

    Doubly Occupied:

       1A    -20.500714     2A    -15.616494     3A    -11.344701
       4A    -11.297817     5A    -11.271021     6A    -11.258067
       7A    -11.244541     8A    -11.239325     9A    -11.238449
      10A    -11.212199    11A     -1.362282    12A     -1.263877
      13A     -1.131495    14A     -1.062395    15A     -0.984494
      16A     -0.949902    17A     -0.931378    18A     -0.825856
      19A     -0.810302    20A     -0.726350    21A     -0.704672
      22A     -0.642743    23A     -0.621752    24A     -0.597236
      25A     -0.587494    26A     -0.583437    27A     -0.572451
      28A     -0.570325    29A     -0.551142    30A     -0.548840
      31A     -0.522752    32A     -0.505963    33A     -0.485575
      34A     -0.469141    35A     -0.416258    36A     -0.388847
      37A     -0.296237

  @DF-RHF Final Energy:  -438.80620961274076

   => Energetics <=

    Nuclear Repulsion Energy =            522.0600263868675484
    One-Electron Energy =               -1631.0594263289121955
    Two-Electron Energy =                 670.1931903293038886
    Total Energy =                       -438.8062096127407585
  Basis Set: (AUG-CC-PVTZ AUX)
    Blend: AUG-CC-PVTZ-RI
    Molecular point group: c1

    Geometry (in Angstrom), charge = 0, multiplicity = 1:

       Center              X                  Y                   Z               Mass
    ------------   -----------------  -----------------  -----------------  -----------------
         O            2.673143876004    -0.694722688142    -0.012015491193    15.994914619570
         N            0.614181876004    -1.678843688142     0.006785508807    14.003074004430
         C           -0.667920123996     0.737119311858    -0.010005491193    12.000000000000
         C            0.713126876004     0.708940311858     0.004139508807    12.000000000000
         C           -1.432304123996    -0.480034688142     0.002472508807    12.000000000000
         C            1.439812876004    -0.555462688142    -0.003830491193    12.000000000000
         C           -0.751498123996    -1.665045688142     0.007332508807    12.000000000000
         C           -1.419427123996     2.043451311858    -0.004216491193    12.000000000000
         C            1.571185876004     1.945102311858     0.012337508807    12.000000000000
         C           -2.936284123996    -0.474185688142    -0.001772491193    12.000000000000
         H           -1.241768123996    -2.634487688142     0.016527508807     1.007825032230
         H           -2.198506123996     2.049459311858    -0.772656491193     1.007825032230
         H           -0.639116523996     3.047410811858    -0.221960991193     1.007825032230
         H           -1.915695123996     2.204644311858     0.960041508807     1.007825032230
         H            1.120435876004    -2.560314688142     0.006153508807     1.007825032230
         H            1.453912876004     2.522670311858    -0.910735491193     1.007825032230
         H            2.616031876004     1.644391311858     0.097406508807     1.007825032230
         H            1.323950876004     2.601651311858     0.851879508807     1.007825032230
         H           -3.321812123996    -1.495809688142     0.063049508807     1.007825032230
         H           -3.339556123996    -0.024564688142    -0.915421491193     1.007825032230
         H           -3.341117123996     0.089087311858     0.845247508807     1.007825032230

  Basis Set: AUG-CC-PVTZ
    Blend: AUG-CC-PVTZ
  Basis Set: (AUG-CC-PVTZ AUX)
    Blend: AUG-CC-PVTZ-JKFIT
	 Reference Energy          =    -438.8062096127407585 [Eh]
	 Singles Energy            =      -0.0000000000000000 [Eh]
	 Same-Spin Energy          =      -0.4705955823655560 [Eh]
	 Opposite-Spin Energy      =      -1.5013928364960072 [Eh]
	 Correlation Energy        =      -1.9719884188615633 [Eh]
	 Total Energy              =    -440.7781980316023009 [Eh]

	 ================> DF-SCS-MP2 Energies <==================
	-----------------------------------------------------------
	 SCS Same-Spin Scale       =       0.3333333333333333 [-]
	 SCS Opposite-Spin Scale   =       1.2000000000000000 [-]
	 SCS Same-Spin Energy      =      -0.1568651941218520 [Eh]
	 SCS Opposite-Spin Energy  =      -1.8016714037952086 [Eh]
	 SCS Correlation Energy    =      -1.9585365979170606 [Eh]
	 SCS Total Energy          =    -440.7647462106578473 [Eh]
	-----------------------------------------------------------

  Dipole Moment: [D]
     X:    -4.4710      Y:    -0.4108      Z:     0.0577     Total:     4.4902

*** Psi4 exiting successfully. Buy a developer a beer!
