                               Psi4 1.4a3.dev225

  ==> Input File <==

--------------------------------------------------------------------------
#psi4
#
memory 32 gb

molecule  {
0 1
  O        2.7382740    -0.7425350    -0.0126020
  N        0.6793120    -1.7266560     0.0061990
  C       -0.6027900     0.6893070    -0.0105920
  C        0.7782570     0.6611280     0.0035530
  C       -1.3671740    -0.5278470     0.0018860
  C        1.5049430    -0.6032750    -0.0044170
  C       -0.6863680    -1.7128580     0.0067460
  C       -1.3542970     1.9956390    -0.0048030
  C        1.6363160     1.8972900     0.0117510
  C       -2.8711540    -0.5219980    -0.0023590
  H       -1.1766380    -2.6823000     0.0159410
  H       -2.1333760     2.0016470    -0.7732430
  H       -0.6647166     2.8828636    -0.1972294
  H       -1.8505650     2.1568320     0.9594550
  H        1.1855660    -2.6081270     0.0055670
  H        1.5190430     2.4748580    -0.9113220
  H        2.6811620     1.5965790     0.0968200
  H        1.3890810     2.5538390     0.8512930
  H       -3.2566820    -1.5436220     0.0624630
  H       -3.2744260    -0.0723770    -0.9160080
  H       -3.2759870     0.0412750     0.8446610
units angstrom
no_reorient  #important for SAPT in psi4, default
symmetry c1  #important for SAPT in psi4, default
}

set PROPERTIES_ORIGIN ["COM"]
properties('MP2/aug-cc-pvtz', properties = ['dipole'])
--------------------------------------------------------------------------

    Molecular point group: c1
  Charge       = 0
  Multiplicity = 1
  Basis Set: AUG-CC-PVTZ
    Blend: AUG-CC-PVTZ
  Basis Set: (AUG-CC-PVTZ AUX)
    Blend: AUG-CC-PVTZ-JKFIT

    Orbital Energies [Eh]
    ---------------------

    Doubly Occupied:

       1A    -20.500317     2A    -15.615906     3A    -11.344244
       4A    -11.297007     5A    -11.269644     6A    -11.243338
       7A    -11.242590     8A    -11.238652     9A    -11.237525
      10A    -11.212686    11A     -1.361863    12A     -1.263304
      13A     -1.131376    14A     -1.062059    15A     -0.988822
      16A     -0.949063    17A     -0.933236    18A     -0.828842
      19A     -0.809840    20A     -0.726164    21A     -0.705186
      22A     -0.644397    23A     -0.620903    24A     -0.597753
      25A     -0.586549    26A     -0.582595    27A     -0.571549
      28A     -0.569468    29A     -0.557121    30A     -0.550206
      31A     -0.531447    32A     -0.505799    33A     -0.497650
      34A     -0.468716    35A     -0.415807    36A     -0.388086
      37A     -0.295742

  @DF-RHF Final Energy:  -438.82534586948998

   => Energetics <=

    Nuclear Repulsion Energy =            522.6125440843914021
    One-Electron Energy =               -1632.1848810899132332
    Two-Electron Energy =                 670.7469911360318520
    Total Energy =                       -438.8253458694899791
  Basis Set: (AUG-CC-PVTZ AUX)
    Blend: AUG-CC-PVTZ-RI
    Molecular point group: c1

    Geometry (in Angstrom), charge = 0, multiplicity = 1:

       Center              X                  Y                   Z               Mass
    ------------   -----------------  -----------------  -----------------  -----------------
         O            2.673810913179    -0.693864467639    -0.012201626724    15.994914619570
         N            0.614848913179    -1.677985467639     0.006599373276    14.003074004430
         C           -0.667253086821     0.737977532361    -0.010191626724    12.000000000000
         C            0.713793913179     0.709798532361     0.003953373276    12.000000000000
         C           -1.431637086821    -0.479176467639     0.002286373276    12.000000000000
         C            1.440479913179    -0.554604467639    -0.004016626724    12.000000000000
         C           -0.750831086821    -1.664187467639     0.007146373276    12.000000000000
         C           -1.418760086821     2.044309532361    -0.004402626724    12.000000000000
         C            1.571852913179     1.945960532361     0.012151373276    12.000000000000
         C           -2.935617086821    -0.473327467639    -0.001958626724    12.000000000000
         H           -1.241101086821    -2.633629467639     0.016341373276     1.007825032230
         H           -2.197839086821     2.050317532361    -0.772842626724     1.007825032230
         H           -0.729179686821     2.931534132361    -0.196829026724     1.007825032230
         H           -1.915028086821     2.205502532361     0.959855373276     1.007825032230
         H            1.121102913179    -2.559456467639     0.005967373276     1.007825032230
         H            1.454579913179     2.523528532361    -0.910921626724     1.007825032230
         H            2.616698913179     1.645249532361     0.097220373276     1.007825032230
         H            1.324617913179     2.602509532361     0.851693373276     1.007825032230
         H           -3.321145086821    -1.494951467639     0.062863373276     1.007825032230
         H           -3.338889086821    -0.023706467639    -0.915607626724     1.007825032230
         H           -3.340450086821     0.089945532361     0.845061373276     1.007825032230

  Basis Set: AUG-CC-PVTZ
    Blend: AUG-CC-PVTZ
  Basis Set: (AUG-CC-PVTZ AUX)
    Blend: AUG-CC-PVTZ-JKFIT
	 Reference Energy          =    -438.8253458694899791 [Eh]
	 Singles Energy            =      -0.0000000000000000 [Eh]
	 Same-Spin Energy          =      -0.4702498848246689 [Eh]
	 Opposite-Spin Energy      =      -1.4996472730075729 [Eh]
	 Correlation Energy        =      -1.9698971578322420 [Eh]
	 Total Energy              =    -440.7952430273222149 [Eh]

	 ================> DF-SCS-MP2 Energies <==================
	-----------------------------------------------------------
	 SCS Same-Spin Scale       =       0.3333333333333333 [-]
	 SCS Opposite-Spin Scale   =       1.2000000000000000 [-]
	 SCS Same-Spin Energy      =      -0.1567499616082230 [Eh]
	 SCS Opposite-Spin Energy  =      -1.7995767276090875 [Eh]
	 SCS Correlation Energy    =      -1.9563266892173103 [Eh]
	 SCS Total Energy          =    -440.7816725587072710 [Eh]
	-----------------------------------------------------------

  Dipole Moment: [D]
     X:    -4.4644      Y:    -0.3181      Z:     0.0450     Total:     4.4759

*** Psi4 exiting successfully. Buy a developer a beer!
