                               Psi4 1.4a3.dev225

  ==> Input File <==

--------------------------------------------------------------------------
#psi4
#
memory 32 gb

molecule  {
0 1
  O        2.7382740    -0.7425350    -0.0126020
  N        0.6793120    -1.7266560     0.0061990
  C       -0.6027900     0.6893070    -0.0105920
  C        0.7782570     0.6611280     0.0035530
  C       -1.3671740    -0.5278470     0.0018860
  C        1.5049430    -0.6032750    -0.0044170
  C       -0.6863680    -1.7128580     0.0067460
  C       -1.3542970     1.9956390    -0.0048030
  C        1.6363160     1.8972900     0.0117510
  C       -2.8711540    -0.5219980    -0.0023590
  H       -1.1766380    -2.6823000     0.0159410
  H       -2.1333760     2.0016470    -0.7732430
  H       -0.6949600     2.8439520    -0.1887900
  H       -1.8053009     2.1421298     0.8715061
  H        1.1855660    -2.6081270     0.0055670
  H        1.5190430     2.4748580    -0.9113220
  H        2.6811620     1.5965790     0.0968200
  H        1.3890810     2.5538390     0.8512930
  H       -3.2566820    -1.5436220     0.0624630
  H       -3.2744260    -0.0723770    -0.9160080
  H       -3.2759870     0.0412750     0.8446610
units angstrom
no_reorient  #important for SAPT in psi4, default
symmetry c1  #important for SAPT in psi4, default
}

set PROPERTIES_ORIGIN ["COM"]
properties('MP2/aug-cc-pvtz', properties = ['dipole'])
--------------------------------------------------------------------------

    Molecular point group: c1
  Charge       = 0
  Multiplicity = 1
  Basis Set: AUG-CC-PVTZ
    Blend: AUG-CC-PVTZ
  Basis Set: (AUG-CC-PVTZ AUX)
    Blend: AUG-CC-PVTZ-JKFIT

    Orbital Energies [Eh]
    ---------------------

    Doubly Occupied:

       1A    -20.499989     2A    -15.615607     3A    -11.343865
       4A    -11.296714     5A    -11.268603     6A    -11.242885
       7A    -11.238031     8A    -11.237482     9A    -11.224774
      10A    -11.212541    11A     -1.361546    12A     -1.262993
      13A     -1.132263    14A     -1.061939    15A     -0.998140
      16A     -0.948911    17A     -0.935299    18A     -0.833566
      19A     -0.809979    20A     -0.726072    21A     -0.705431
      22A     -0.646356    23A     -0.625551    24A     -0.598686
      25A     -0.590384    26A     -0.584682    27A     -0.575674
      28A     -0.569653    29A     -0.561042    30A     -0.551831
      31A     -0.534321    32A     -0.505676    33A     -0.499080
      34A     -0.468493    35A     -0.415455    36A     -0.388516
      37A     -0.295489

  @DF-RHF Final Energy:  -438.82181842569139

   => Energetics <=

    Nuclear Repulsion Energy =            523.3021241662057719
    One-Electron Energy =               -1633.5128479796874217
    Two-Electron Energy =                 671.3889053877903734
    Total Energy =                       -438.8218184256913901
  Basis Set: (AUG-CC-PVTZ AUX)
    Blend: AUG-CC-PVTZ-RI
    Molecular point group: c1

    Geometry (in Angstrom), charge = 0, multiplicity = 1:

       Center              X                  Y                   Z               Mass
    ------------   -----------------  -----------------  -----------------  -----------------
         O            2.673700482856    -0.693470305632    -0.011617082743    15.994914619570
         N            0.614738482856    -1.677591305632     0.007183917257    14.003074004430
         C           -0.667363517144     0.738371694368    -0.009607082743    12.000000000000
         C            0.713683482856     0.710192694368     0.004537917257    12.000000000000
         C           -1.431747517144    -0.478782305632     0.002870917257    12.000000000000
         C            1.440369482856    -0.554210305632    -0.003432082743    12.000000000000
         C           -0.750941517144    -1.663793305632     0.007730917257    12.000000000000
         C           -1.418870517144     2.044703694368    -0.003818082743    12.000000000000
         C            1.571742482856     1.946354694368     0.012735917257    12.000000000000
         C           -2.935727517144    -0.472933305632    -0.001374082743    12.000000000000
         H           -1.241211517144    -2.633235305632     0.016925917257     1.007825032230
         H           -2.197949517144     2.050711694368    -0.772258082743     1.007825032230
         H           -0.759533517144     2.893016694368    -0.187805082743     1.007825032230
         H           -1.869874417144     2.191194494368     0.872491017257     1.007825032230
         H            1.120992482856    -2.559062305632     0.006551917257     1.007825032230
         H            1.454469482856     2.523922694368    -0.910337082743     1.007825032230
         H            2.616588482856     1.645643694368     0.097804917257     1.007825032230
         H            1.324507482856     2.602903694368     0.852277917257     1.007825032230
         H           -3.321255517144    -1.494557305632     0.063447917257     1.007825032230
         H           -3.338999517144    -0.023312305632    -0.915023082743     1.007825032230
         H           -3.340560517144     0.090339694368     0.845645917257     1.007825032230

  Basis Set: AUG-CC-PVTZ
    Blend: AUG-CC-PVTZ
  Basis Set: (AUG-CC-PVTZ AUX)
    Blend: AUG-CC-PVTZ-JKFIT
	 Reference Energy          =    -438.8218184256913901 [Eh]
	 Singles Energy            =      -0.0000000000000000 [Eh]
	 Same-Spin Energy          =      -0.4701273338127698 [Eh]
	 Opposite-Spin Energy      =      -1.4986498717469958 [Eh]
	 Correlation Energy        =      -1.9687772055597657 [Eh]
	 Total Energy              =    -440.7905956312511648 [Eh]

	 ================> DF-SCS-MP2 Energies <==================
	-----------------------------------------------------------
	 SCS Same-Spin Scale       =       0.3333333333333333 [-]
	 SCS Opposite-Spin Scale   =       1.2000000000000000 [-]
	 SCS Same-Spin Energy      =      -0.1567091112709233 [Eh]
	 SCS Opposite-Spin Energy  =      -1.7983798460963949 [Eh]
	 SCS Correlation Energy    =      -1.9550889573673182 [Eh]
	 SCS Total Energy          =    -440.7769073830586990 [Eh]
	-----------------------------------------------------------

  Dipole Moment: [D]
     X:    -4.4868      Y:    -0.2783      Z:     0.0645     Total:     4.4958

*** Psi4 exiting successfully. Buy a developer a beer!
