                               Psi4 1.4a3.dev225

  ==> Input File <==

--------------------------------------------------------------------------
#psi4
#
memory 32 gb

molecule  {
0 1
  O        2.7382740    -0.7425350    -0.0126020
  N        0.6793120    -1.7266560     0.0061990
  C       -0.6027900     0.6893070    -0.0105920
  C        0.7782570     0.6611280     0.0035530
  C       -1.3671740    -0.5278470     0.0018860
  C        1.3865041    -0.7644268    -0.0028941
  C       -0.6863680    -1.7128580     0.0067460
  C       -1.3542970     1.9956390    -0.0048030
  C        1.6363160     1.8972900     0.0117510
  C       -2.8711540    -0.5219980    -0.0023590
  H       -1.1766380    -2.6823000     0.0159410
  H       -2.1333760     2.0016470    -0.7732430
  H       -0.6949600     2.8439520    -0.1887900
  H       -1.8505650     2.1568320     0.9594550
  H        1.1855660    -2.6081270     0.0055670
  H        1.5190430     2.4748580    -0.9113220
  H        2.6811620     1.5965790     0.0968200
  H        1.3890810     2.5538390     0.8512930
  H       -3.2566820    -1.5436220     0.0624630
  H       -3.2744260    -0.0723770    -0.9160080
  H       -3.2759870     0.0412750     0.8446610
units angstrom
no_reorient  #important for SAPT in psi4, default
symmetry c1  #important for SAPT in psi4, default
}

set PROPERTIES_ORIGIN ["COM"]
properties('MP2/aug-cc-pvtz', properties = ['dipole'])
--------------------------------------------------------------------------

    Molecular point group: c1
  Charge       = 0
  Multiplicity = 1
  Basis Set: AUG-CC-PVTZ
    Blend: AUG-CC-PVTZ
  Basis Set: (AUG-CC-PVTZ AUX)
    Blend: AUG-CC-PVTZ-JKFIT

    Orbital Energies [Eh]
    ---------------------

    Doubly Occupied:

       1A    -20.470031     2A    -15.635200     3A    -11.333028
       4A    -11.296981     5A    -11.262726     6A    -11.260369
       7A    -11.255814     8A    -11.245696     9A    -11.235223
      10A    -11.215398    11A     -1.385270    12A     -1.234986
      13A     -1.142436    14A     -1.064550    15A     -0.992406
      16A     -0.973097    17A     -0.942896    18A     -0.842559
      19A     -0.829623    20A     -0.747499    21A     -0.697293
      22A     -0.650804    23A     -0.642583    24A     -0.599397
      25A     -0.595294    26A     -0.575741    27A     -0.574237
      28A     -0.569292    29A     -0.557004    30A     -0.554419
      31A     -0.533521    32A     -0.505484    33A     -0.479236
      34A     -0.433409    35A     -0.393643    36A     -0.385055
      37A     -0.302900

  @DF-RHF Final Energy:  -438.77018074508737

   => Energetics <=

    Nuclear Repulsion Energy =            523.5788577238212156
    One-Electron Energy =               -1633.8678765800007113
    Two-Electron Energy =                 671.5188381110922364
    Total Energy =                       -438.7701807450873730
  Basis Set: (AUG-CC-PVTZ AUX)
    Blend: AUG-CC-PVTZ-RI
    Molecular point group: c1

    Geometry (in Angstrom), charge = 0, multiplicity = 1:

       Center              X                  Y                   Z               Mass
    ------------   -----------------  -----------------  -----------------  -----------------
         O            2.684401107352    -0.679471564283    -0.012396983046    15.994914619570
         N            0.625439107352    -1.663592564283     0.006404016954    14.003074004430
         C           -0.656662892648     0.752370435717    -0.010386983046    12.000000000000
         C            0.724384107352     0.724191435717     0.003758016954    12.000000000000
         C           -1.421046892648    -0.464783564283     0.002091016954    12.000000000000
         C            1.332631207352    -0.701363364283    -0.002689083046    12.000000000000
         C           -0.740240892648    -1.649794564283     0.006951016954    12.000000000000
         C           -1.408169892648     2.058702435717    -0.004597983046    12.000000000000
         C            1.582443107352     1.960353435717     0.011956016954    12.000000000000
         C           -2.925026892648    -0.458934564283    -0.002153983046    12.000000000000
         H           -1.230510892648    -2.619236564283     0.016146016954     1.007825032230
         H           -2.187248892648     2.064710435717    -0.773037983046     1.007825032230
         H           -0.748832892648     2.907015435717    -0.188584983046     1.007825032230
         H           -1.904437892648     2.219895435717     0.959660016954     1.007825032230
         H            1.131693107352    -2.545063564283     0.005772016954     1.007825032230
         H            1.465170107352     2.537921435717    -0.911116983046     1.007825032230
         H            2.627289107352     1.659642435717     0.097025016954     1.007825032230
         H            1.335208107352     2.616902435717     0.851498016954     1.007825032230
         H           -3.310554892648    -1.480558564283     0.062668016954     1.007825032230
         H           -3.328298892648    -0.009313564283    -0.915802983046     1.007825032230
         H           -3.329859892648     0.104338435717     0.844866016954     1.007825032230

  Basis Set: AUG-CC-PVTZ
    Blend: AUG-CC-PVTZ
  Basis Set: (AUG-CC-PVTZ AUX)
    Blend: AUG-CC-PVTZ-JKFIT
	 Reference Energy          =    -438.7701807450873730 [Eh]
	 Singles Energy            =      -0.0000000000000000 [Eh]
	 Same-Spin Energy          =      -0.4702444698831153 [Eh]
	 Opposite-Spin Energy      =      -1.5007150494127730 [Eh]
	 Correlation Energy        =      -1.9709595192958882 [Eh]
	 Total Energy              =    -440.7411402643832616 [Eh]

	 ================> DF-SCS-MP2 Energies <==================
	-----------------------------------------------------------
	 SCS Same-Spin Scale       =       0.3333333333333333 [-]
	 SCS Opposite-Spin Scale   =       1.2000000000000000 [-]
	 SCS Same-Spin Energy      =      -0.1567481566277051 [Eh]
	 SCS Opposite-Spin Energy  =      -1.8008580592953276 [Eh]
	 SCS Correlation Energy    =      -1.9576062159230327 [Eh]
	 SCS Total Energy          =    -440.7277869610103949 [Eh]
	-----------------------------------------------------------

  Dipole Moment: [D]
     X:    -5.6102      Y:    -0.5672      Z:     0.0528     Total:     5.6390

*** Psi4 exiting successfully. Buy a developer a beer!
