                               Psi4 1.4a3.dev225

  ==> Input File <==

--------------------------------------------------------------------------
#psi4
#
memory 32 gb

molecule  {
0 1
  O        2.7382740    -0.7425350    -0.0126020
  N        0.6793120    -1.7266560     0.0061990
  C       -0.6027900     0.6893070    -0.0105920
  C        0.7782570     0.6611280     0.0035530
  C       -1.3671740    -0.5278470     0.0018860
  C        1.5049430    -0.6032750    -0.0044170
  C       -0.6863680    -1.7128580     0.0067460
  C       -1.3542970     1.9956390    -0.0048030
  C        1.6363160     1.8972900     0.0117510
  C       -2.8711540    -0.5219980    -0.0023590
  H       -1.1766380    -2.6823000     0.0159410
  H       -2.0977790     2.0013725    -0.7381321
  H       -0.6949600     2.8439520    -0.1887900
  H       -1.8505650     2.1568320     0.9594550
  H        1.1855660    -2.6081270     0.0055670
  H        1.5190430     2.4748580    -0.9113220
  H        2.6811620     1.5965790     0.0968200
  H        1.3890810     2.5538390     0.8512930
  H       -3.2566820    -1.5436220     0.0624630
  H       -3.2744260    -0.0723770    -0.9160080
  H       -3.2759870     0.0412750     0.8446610
units angstrom
no_reorient  #important for SAPT in psi4, default
symmetry c1  #important for SAPT in psi4, default
}

set PROPERTIES_ORIGIN ["COM"]
properties('MP2/aug-cc-pvtz', properties = ['dipole'])
--------------------------------------------------------------------------

    Molecular point group: c1
  Charge       = 0
  Multiplicity = 1
  Basis Set: AUG-CC-PVTZ
    Blend: AUG-CC-PVTZ
  Basis Set: (AUG-CC-PVTZ AUX)
    Blend: AUG-CC-PVTZ-JKFIT

    Orbital Energies [Eh]
    ---------------------

    Doubly Occupied:

       1A    -20.500072     2A    -15.615654     3A    -11.343957
       4A    -11.296740     5A    -11.268862     6A    -11.242954
       7A    -11.238202     8A    -11.237434     9A    -11.230967
      10A    -11.212605    11A     -1.361621    12A     -1.263051
      13A     -1.131823    14A     -1.061936    15A     -0.994376
      16A     -0.948902    17A     -0.934571    18A     -0.831772
      19A     -0.809912    20A     -0.726163    21A     -0.705658
      22A     -0.645541    23A     -0.622010    24A     -0.598888
      25A     -0.587194    26A     -0.583452    27A     -0.573362
      28A     -0.569241    29A     -0.562699    30A     -0.550875
      31A     -0.535247    32A     -0.505771    33A     -0.499302
      34A     -0.468508    35A     -0.415551    36A     -0.387999
      37A     -0.295518

  @DF-RHF Final Energy:  -438.82677239344036

   => Energetics <=

    Nuclear Repulsion Energy =            523.0474021334271129
    One-Electron Energy =               -1633.0315696338561793
    Two-Electron Energy =                 671.1573951069887016
    Total Energy =                       -438.8267723934403648
  Basis Set: (AUG-CC-PVTZ AUX)
    Blend: AUG-CC-PVTZ-RI
    Molecular point group: c1

    Geometry (in Angstrom), charge = 0, multiplicity = 1:

       Center              X                  Y                   Z               Mass
    ------------   -----------------  -----------------  -----------------  -----------------
         O            2.673771554176    -0.693576376293    -0.012521803127    15.994914619570
         N            0.614809554176    -1.677697376293     0.006279196873    14.003074004430
         C           -0.667292445824     0.738265623707    -0.010511803127    12.000000000000
         C            0.713754554176     0.710086623707     0.003633196873    12.000000000000
         C           -1.431676445824    -0.478888376293     0.001966196873    12.000000000000
         C            1.440440554176    -0.554316376293    -0.004336803127    12.000000000000
         C           -0.750870445824    -1.663899376293     0.006826196873    12.000000000000
         C           -1.418799445824     2.044597623707    -0.004722803127    12.000000000000
         C            1.571813554176     1.946248623707     0.011831196873    12.000000000000
         C           -2.935656445824    -0.473039376293    -0.002278803127    12.000000000000
         H           -1.241140445824    -2.633341376293     0.016021196873     1.007825032230
         H           -2.162281445824     2.050331123707    -0.738051903127     1.007825032230
         H           -0.759462445824     2.892910623707    -0.188709803127     1.007825032230
         H           -1.915067445824     2.205790623707     0.959535196873     1.007825032230
         H            1.121063554176    -2.559168376293     0.005647196873     1.007825032230
         H            1.454540554176     2.523816623707    -0.911241803127     1.007825032230
         H            2.616659554176     1.645537623707     0.096900196873     1.007825032230
         H            1.324578554176     2.602797623707     0.851373196873     1.007825032230
         H           -3.321184445824    -1.494663376293     0.062543196873     1.007825032230
         H           -3.338928445824    -0.023418376293    -0.915927803127     1.007825032230
         H           -3.340489445824     0.090233623707     0.844741196873     1.007825032230

  Basis Set: AUG-CC-PVTZ
    Blend: AUG-CC-PVTZ
  Basis Set: (AUG-CC-PVTZ AUX)
    Blend: AUG-CC-PVTZ-JKFIT
	 Reference Energy          =    -438.8267723934403648 [Eh]
	 Singles Energy            =      -0.0000000000000000 [Eh]
	 Same-Spin Energy          =      -0.4701151663534156 [Eh]
	 Opposite-Spin Energy      =      -1.4988442808320082 [Eh]
	 Correlation Energy        =      -1.9689594471854237 [Eh]
	 Total Energy              =    -440.7957318406257627 [Eh]

	 ================> DF-SCS-MP2 Energies <==================
	-----------------------------------------------------------
	 SCS Same-Spin Scale       =       0.3333333333333333 [-]
	 SCS Opposite-Spin Scale   =       1.2000000000000000 [-]
	 SCS Same-Spin Energy      =      -0.1567050554511385 [Eh]
	 SCS Opposite-Spin Energy  =      -1.7986131369984097 [Eh]
	 SCS Correlation Energy    =      -1.9553181924495482 [Eh]
	 SCS Total Energy          =    -440.7820905858899323 [Eh]
	-----------------------------------------------------------

  Dipole Moment: [D]
     X:    -4.4809      Y:    -0.2857      Z:     0.0302     Total:     4.4901

*** Psi4 exiting successfully. Buy a developer a beer!
