                               Psi4 1.4a3.dev225

  ==> Input File <==

--------------------------------------------------------------------------
#psi4
#
memory 32 gb

molecule  {
0 1
  O        2.7382740    -0.7425350    -0.0126020
  N        0.6793120    -1.7266560     0.0061990
  C       -0.6027900     0.6893070    -0.0105920
  C        0.7782570     0.6611280     0.0035530
  C       -1.3671740    -0.5278470     0.0018860
  C        1.5049430    -0.6032750    -0.0044170
  C       -0.6863680    -1.7128580     0.0067460
  C       -1.3542970     1.9956390    -0.0048030
  C        1.6363160     1.8972900     0.0117510
  C       -2.8711540    -0.5219980    -0.0023590
  H       -1.1766380    -2.6823000     0.0159410
  H       -2.1333760     2.0016470    -0.7732430
  H       -0.6949600     2.8439520    -0.1887900
  H       -1.8505650     2.1568320     0.9594550
  H        1.1855660    -2.6081270     0.0055670
  H        1.5190430     2.4748580    -0.9113220
  H        2.6811620     1.5965790     0.0968200
  H        1.3890810     2.5538390     0.8512930
  H       -3.2566820    -1.5436220     0.0624630
  H       -3.2744260    -0.0723770    -0.9160080
  H       -3.2020321    -0.0616238     0.6899273
units angstrom
no_reorient  #important for SAPT in psi4, default
symmetry c1  #important for SAPT in psi4, default
}

set PROPERTIES_ORIGIN ["COM"]
properties('MP2/aug-cc-pvtz', properties = ['dipole'])
--------------------------------------------------------------------------

    Molecular point group: c1
  Charge       = 0
  Multiplicity = 1
  Basis Set: AUG-CC-PVTZ
    Blend: AUG-CC-PVTZ
  Basis Set: (AUG-CC-PVTZ AUX)
    Blend: AUG-CC-PVTZ-JKFIT

    Orbital Energies [Eh]
    ---------------------

    Doubly Occupied:

       1A    -20.499696     2A    -15.615074     3A    -11.343632
       4A    -11.295738     5A    -11.268998     6A    -11.241547
       7A    -11.238138     8A    -11.237445     9A    -11.212654
      10A    -11.212603    11A     -1.361242    12A     -1.262516
      13A     -1.132667    14A     -1.066416    15A     -0.991905
      16A     -0.967797    17A     -0.933849    18A     -0.830108
      19A     -0.813605    20A     -0.728720    21A     -0.705501
      22A     -0.645569    23A     -0.630137    24A     -0.601204
      25A     -0.597522    26A     -0.584489    27A     -0.577670
      28A     -0.568432    29A     -0.561665    30A     -0.551793
      31A     -0.536719    32A     -0.505573    33A     -0.499038
      34A     -0.468833    35A     -0.415229    36A     -0.388152
      37A     -0.295432

  @DF-RHF Final Energy:  -438.79396466865393

   => Energetics <=

    Nuclear Repulsion Energy =            523.8073069900024166
    One-Electron Energy =               -1634.4279226186549749
    Two-Electron Energy =                 671.8266509599986875
    Total Energy =                       -438.7939646686538708
  Basis Set: (AUG-CC-PVTZ AUX)
    Blend: AUG-CC-PVTZ-RI
    Molecular point group: c1

    Geometry (in Angstrom), charge = 0, multiplicity = 1:

       Center              X                  Y                   Z               Mass
    ------------   -----------------  -----------------  -----------------  -----------------
         O            2.673489551653    -0.692821895171    -0.011126089179    15.994914619570
         N            0.614527551653    -1.676942895171     0.007674910821    14.003074004430
         C           -0.667574448347     0.739020104829    -0.009116089179    12.000000000000
         C            0.713472551653     0.710841104829     0.005028910821    12.000000000000
         C           -1.431958448347    -0.478133895171     0.003361910821    12.000000000000
         C            1.440158551653    -0.553561895171    -0.002941089179    12.000000000000
         C           -0.751152448347    -1.663144895171     0.008221910821    12.000000000000
         C           -1.419081448347     2.045352104829    -0.003327089179    12.000000000000
         C            1.571531551653     1.947003104829     0.013226910821    12.000000000000
         C           -2.935938448347    -0.472284895171    -0.000883089179    12.000000000000
         H           -1.241422448347    -2.632586895171     0.017416910821     1.007825032230
         H           -2.198160448347     2.051360104829    -0.771767089179     1.007825032230
         H           -0.759744448347     2.893665104829    -0.187314089179     1.007825032230
         H           -1.915349448347     2.206545104829     0.960930910821     1.007825032230
         H            1.120781551653    -2.558413895171     0.007042910821     1.007825032230
         H            1.454258551653     2.524571104829    -0.909846089179     1.007825032230
         H            2.616377551653     1.646292104829     0.098295910821     1.007825032230
         H            1.324296551653     2.603552104829     0.852768910821     1.007825032230
         H           -3.321466448347    -1.493908895171     0.063938910821     1.007825032230
         H           -3.339210448347    -0.022663895171    -0.914532089179     1.007825032230
         H           -3.266816548347    -0.011910695171     0.691403210821     1.007825032230

  Basis Set: AUG-CC-PVTZ
    Blend: AUG-CC-PVTZ
  Basis Set: (AUG-CC-PVTZ AUX)
    Blend: AUG-CC-PVTZ-JKFIT
	 Reference Energy          =    -438.7939646686539277 [Eh]
	 Singles Energy            =      -0.0000000000000000 [Eh]
	 Same-Spin Energy          =      -0.4702295811274833 [Eh]
	 Opposite-Spin Energy      =      -1.4985451014441185 [Eh]
	 Correlation Energy        =      -1.9687746825716017 [Eh]
	 Total Energy              =    -440.7627393512255480 [Eh]

	 ================> DF-SCS-MP2 Energies <==================
	-----------------------------------------------------------
	 SCS Same-Spin Scale       =       0.3333333333333333 [-]
	 SCS Opposite-Spin Scale   =       1.2000000000000000 [-]
	 SCS Same-Spin Energy      =      -0.1567431937091611 [Eh]
	 SCS Opposite-Spin Energy  =      -1.7982541217329422 [Eh]
	 SCS Correlation Energy    =      -1.9549973154421032 [Eh]
	 SCS Total Energy          =    -440.7489619840960131 [Eh]
	-----------------------------------------------------------

  Dipole Moment: [D]
     X:    -4.5280      Y:    -0.2637      Z:     0.0800     Total:     4.5364

*** Psi4 exiting successfully. Buy a developer a beer!
