                               Psi4 1.4a3.dev225

  ==> Input File <==

--------------------------------------------------------------------------
#psi4
#
memory 32 gb

molecule  {
0 1
  O        2.7382740    -0.7425350    -0.0126020
  N        0.6793120    -1.7266560     0.0061990
  C       -0.6027900     0.6893070    -0.0105920
  C        0.7782570     0.6611280     0.0035530
  C       -1.3671740    -0.5278470     0.0018860
  C        1.5049430    -0.6032750    -0.0044170
  C       -0.6863680    -1.7128580     0.0067460
  C       -1.3542970     1.9956390    -0.0048030
  C        1.6363160     1.8972900     0.0117510
  C       -2.8711540    -0.5219980    -0.0023590
  H       -1.1766380    -2.6823000     0.0159410
  H       -2.1333760     2.0016470    -0.7732430
  H       -0.6949600     2.8439520    -0.1887900
  H       -1.8505650     2.1568320     0.9594550
  H        1.1855660    -2.6081270     0.0055670
  H        1.5190430     2.4748580    -0.9113220
  H        2.6811620     1.5965790     0.0968200
  H        1.3890810     2.5538390     0.8512930
  H       -3.2566820    -1.5436220     0.0624630
  H       -3.2744260    -0.0723770    -0.9160080
  H       -3.2685915     0.0309851     0.8291876
units angstrom
no_reorient  #important for SAPT in psi4, default
symmetry c1  #important for SAPT in psi4, default
}

set PROPERTIES_ORIGIN ["COM"]
properties('MP2/aug-cc-pvtz', properties = ['dipole'])
--------------------------------------------------------------------------

    Molecular point group: c1
  Charge       = 0
  Multiplicity = 1
  Basis Set: AUG-CC-PVTZ
    Blend: AUG-CC-PVTZ
  Basis Set: (AUG-CC-PVTZ AUX)
    Blend: AUG-CC-PVTZ-JKFIT

    Orbital Energies [Eh]
    ---------------------

    Doubly Occupied:

       1A    -20.500145     2A    -15.615650     3A    -11.344060
       4A    -11.296625     5A    -11.269224     6A    -11.242812
       7A    -11.238445     8A    -11.237055     9A    -11.234839
      10A    -11.212802    11A     -1.361683    12A     -1.263059
      13A     -1.131567    14A     -1.062242    15A     -0.991214
      16A     -0.950267    17A     -0.934013    18A     -0.830264
      19A     -0.810014    20A     -0.726343    21A     -0.705455
      22A     -0.645395    23A     -0.621153    24A     -0.598126
      25A     -0.586563    26A     -0.583055    27A     -0.572925
      28A     -0.569209    29A     -0.561613    30A     -0.550495
      31A     -0.534366    32A     -0.505778    33A     -0.499426
      34A     -0.468629    35A     -0.415625    36A     -0.387908
      37A     -0.295576

  @DF-RHF Final Energy:  -438.82771262730222

   => Energetics <=

    Nuclear Repulsion Energy =            522.9056017389526687
    One-Electron Energy =               -1632.7593817451404448
    Two-Electron Energy =                 671.0260673788853865
    Total Energy =                       -438.8277126273022759
  Basis Set: (AUG-CC-PVTZ AUX)
    Blend: AUG-CC-PVTZ-RI
    Molecular point group: c1

    Geometry (in Angstrom), charge = 0, multiplicity = 1:

       Center              X                  Y                   Z               Mass
    ------------   -----------------  -----------------  -----------------  -----------------
         O            2.673978888105    -0.693502744315    -0.012149913628    15.994914619570
         N            0.615016888105    -1.677623744315     0.006651086372    14.003074004430
         C           -0.667085111895     0.738339255685    -0.010139913628    12.000000000000
         C            0.713961888105     0.710160255685     0.004005086372    12.000000000000
         C           -1.431469111895    -0.478814744315     0.002338086372    12.000000000000
         C            1.440647888105    -0.554242744315    -0.003964913628    12.000000000000
         C           -0.750663111895    -1.663825744315     0.007198086372    12.000000000000
         C           -1.418592111895     2.044671255685    -0.004350913628    12.000000000000
         C            1.572020888105     1.946322255685     0.012203086372    12.000000000000
         C           -2.935449111895    -0.472965744315    -0.001906913628    12.000000000000
         H           -1.240933111895    -2.633267744315     0.016393086372     1.007825032230
         H           -2.197671111895     2.050679255685    -0.772790913628     1.007825032230
         H           -0.759255111895     2.892984255685    -0.188337913628     1.007825032230
         H           -1.914860111895     2.205864255685     0.959907086372     1.007825032230
         H            1.121270888105    -2.559094744315     0.006019086372     1.007825032230
         H            1.454747888105     2.523890255685    -0.910869913628     1.007825032230
         H            2.616866888105     1.645611255685     0.097272086372     1.007825032230
         H            1.324785888105     2.602871255685     0.851745086372     1.007825032230
         H           -3.320977111895    -1.494589744315     0.062915086372     1.007825032230
         H           -3.338721111895    -0.023344744315    -0.915555913628     1.007825032230
         H           -3.332886611895     0.080017355685     0.829639686372     1.007825032230

  Basis Set: AUG-CC-PVTZ
    Blend: AUG-CC-PVTZ
  Basis Set: (AUG-CC-PVTZ AUX)
    Blend: AUG-CC-PVTZ-JKFIT
	 Reference Energy          =    -438.8277126273022191 [Eh]
	 Singles Energy            =      -0.0000000000000000 [Eh]
	 Same-Spin Energy          =      -0.4701491668289816 [Eh]
	 Opposite-Spin Energy      =      -1.4990483933077905 [Eh]
	 Correlation Energy        =      -1.9691975601367722 [Eh]
	 Total Energy              =    -440.7969101874389821 [Eh]

	 ================> DF-SCS-MP2 Energies <==================
	-----------------------------------------------------------
	 SCS Same-Spin Scale       =       0.3333333333333333 [-]
	 SCS Opposite-Spin Scale   =       1.2000000000000000 [-]
	 SCS Same-Spin Energy      =      -0.1567163889429939 [Eh]
	 SCS Opposite-Spin Energy  =      -1.7988580719693485 [Eh]
	 SCS Correlation Energy    =      -1.9555744609123424 [Eh]
	 SCS Total Energy          =    -440.7832870882145357 [Eh]
	-----------------------------------------------------------

  Dipole Moment: [D]
     X:    -4.4722      Y:    -0.2888      Z:     0.0476     Total:     4.4818

*** Psi4 exiting successfully. Buy a developer a beer!
