                               Psi4 1.4a3.dev225

  ==> Input File <==

--------------------------------------------------------------------------
#psi4
#
memory 32 gb

molecule  {
0 1
  O        2.7382740    -0.7425350    -0.0126020
  N        0.6793120    -1.7266560     0.0061990
  C       -0.6027900     0.6893070    -0.0105920
  C        0.7782570     0.6611280     0.0035530
  C       -1.3671740    -0.5278470     0.0018860
  C        1.5049430    -0.6032750    -0.0044170
  C       -0.6863680    -1.7128580     0.0067460
  C       -1.3542970     1.9956390    -0.0048030
  C        1.6477203     1.9137196     0.0118600
  C       -2.8711540    -0.5219980    -0.0023590
  H       -1.1766380    -2.6823000     0.0159410
  H       -2.1333760     2.0016470    -0.7732430
  H       -0.6949600     2.8439520    -0.1887900
  H       -1.8505650     2.1568320     0.9594550
  H        1.1855660    -2.6081270     0.0055670
  H        1.5190430     2.4748580    -0.9113220
  H        2.6811620     1.5965790     0.0968200
  H        1.3890810     2.5538390     0.8512930
  H       -3.2566820    -1.5436220     0.0624630
  H       -3.2744260    -0.0723770    -0.9160080
  H       -3.2759870     0.0412750     0.8446610
units angstrom
no_reorient  #important for SAPT in psi4, default
symmetry c1  #important for SAPT in psi4, default
}

set PROPERTIES_ORIGIN ["COM"]
properties('MP2/aug-cc-pvtz', properties = ['dipole'])
--------------------------------------------------------------------------

    Molecular point group: c1
  Charge       = 0
  Multiplicity = 1
  Basis Set: AUG-CC-PVTZ
    Blend: AUG-CC-PVTZ
  Basis Set: (AUG-CC-PVTZ AUX)
    Blend: AUG-CC-PVTZ-JKFIT

    Orbital Energies [Eh]
    ---------------------

    Doubly Occupied:

       1A    -20.500132     2A    -15.615673     3A    -11.344107
       4A    -11.296689     5A    -11.269187     6A    -11.242932
       7A    -11.239269     8A    -11.237223     9A    -11.237002
      10A    -11.212515    11A     -1.361630    12A     -1.263073
      13A     -1.130796    14A     -1.060650    15A     -0.990362
      16A     -0.948759    17A     -0.934471    18A     -0.830319
      19A     -0.810069    20A     -0.726011    21A     -0.704898
      22A     -0.645155    23A     -0.620607    24A     -0.598111
      25A     -0.585084    26A     -0.582451    27A     -0.571939
      28A     -0.569153    29A     -0.559934    30A     -0.552511
      31A     -0.534825    32A     -0.508186    33A     -0.496685
      34A     -0.468601    35A     -0.415382    36A     -0.388310
      37A     -0.295803

  @DF-RHF Final Energy:  -438.82765388810583

   => Energetics <=

    Nuclear Repulsion Energy =            522.4423270758840090
    One-Electron Energy =               -1631.8429489506613663
    Two-Electron Energy =                 670.5729679866714150
    Total Energy =                       -438.8276538881058286
  Basis Set: (AUG-CC-PVTZ AUX)
    Blend: AUG-CC-PVTZ-RI
    Molecular point group: c1

    Geometry (in Angstrom), charge = 0, multiplicity = 1:

       Center              X                  Y                   Z               Mass
    ------------   -----------------  -----------------  -----------------  -----------------
         O            2.673034954680    -0.695016600942    -0.012273213736    15.994914619570
         N            0.614072954680    -1.679137600942     0.006527786264    14.003074004430
         C           -0.668029045320     0.736825399058    -0.010263213736    12.000000000000
         C            0.713017954680     0.708646399058     0.003881786264    12.000000000000
         C           -1.432413045320    -0.480328600942     0.002214786264    12.000000000000
         C            1.439703954680    -0.555756600942    -0.004088213736    12.000000000000
         C           -0.751607045320    -1.665339600942     0.007074786264    12.000000000000
         C           -1.419536045320     2.043157399058    -0.004474213736    12.000000000000
         C            1.582481254680     1.961237999058     0.012188786264    12.000000000000
         C           -2.936393045320    -0.474479600942    -0.002030213736    12.000000000000
         H           -1.241877045320    -2.634781600942     0.016269786264     1.007825032230
         H           -2.198615045320     2.049165399058    -0.772914213736     1.007825032230
         H           -0.760199045320     2.891470399058    -0.188461213736     1.007825032230
         H           -1.915804045320     2.204350399058     0.959783786264     1.007825032230
         H            1.120326954680    -2.560608600942     0.005895786264     1.007825032230
         H            1.453803954680     2.522376399058    -0.910993213736     1.007825032230
         H            2.615922954680     1.644097399058     0.097148786264     1.007825032230
         H            1.323841954680     2.601357399058     0.851621786264     1.007825032230
         H           -3.321921045320    -1.496103600942     0.062791786264     1.007825032230
         H           -3.339665045320    -0.024858600942    -0.915679213736     1.007825032230
         H           -3.341226045320     0.088793399058     0.844989786264     1.007825032230

  Basis Set: AUG-CC-PVTZ
    Blend: AUG-CC-PVTZ
  Basis Set: (AUG-CC-PVTZ AUX)
    Blend: AUG-CC-PVTZ-JKFIT
	 Reference Energy          =    -438.8276538881058286 [Eh]
	 Singles Energy            =      -0.0000000000000000 [Eh]
	 Same-Spin Energy          =      -0.4699519250943995 [Eh]
	 Opposite-Spin Energy      =      -1.4990075368500564 [Eh]
	 Correlation Energy        =      -1.9689594619444559 [Eh]
	 Total Energy              =    -440.7966133500502792 [Eh]

	 ================> DF-SCS-MP2 Energies <==================
	-----------------------------------------------------------
	 SCS Same-Spin Scale       =       0.3333333333333333 [-]
	 SCS Opposite-Spin Scale   =       1.2000000000000000 [-]
	 SCS Same-Spin Energy      =      -0.1566506416981332 [Eh]
	 SCS Opposite-Spin Energy  =      -1.7988090442200677 [Eh]
	 SCS Correlation Energy    =      -1.9554596859182010 [Eh]
	 SCS Total Energy          =    -440.7831135740240143 [Eh]
	-----------------------------------------------------------

  Dipole Moment: [D]
     X:    -4.4688      Y:    -0.2946      Z:     0.0418     Total:     4.4787

*** Psi4 exiting successfully. Buy a developer a beer!
