                               Psi4 1.4a3.dev225

  ==> Input File <==

--------------------------------------------------------------------------
#psi4
#
memory 32 gb

molecule  {
0 1
  O        2.7382740    -0.7425350    -0.0126020
  N        0.6793120    -1.7266560     0.0061990
  C       -0.6027900     0.6893070    -0.0105920
  C        0.7782570     0.6611280     0.0035530
  C       -1.3671740    -0.5278470     0.0018860
  C        1.5049430    -0.6032750    -0.0044170
  C       -0.6863680    -1.7128580     0.0067460
  C       -1.3542970     1.9956390    -0.0048030
  C        1.6363160     1.8972900     0.0117510
  C       -2.8711540    -0.5219980    -0.0023590
  H       -1.1766380    -2.6823000     0.0159410
  H       -2.1191372     2.0015372    -0.7591986
  H       -0.6949600     2.8439520    -0.1887900
  H       -1.8505650     2.1568320     0.9594550
  H        1.1855660    -2.6081270     0.0055670
  H        1.5190430     2.4748580    -0.9113220
  H        2.6811620     1.5965790     0.0968200
  H        1.3890810     2.5538390     0.8512930
  H       -3.2566820    -1.5436220     0.0624630
  H       -3.2744260    -0.0723770    -0.9160080
  H       -3.2759870     0.0412750     0.8446610
units angstrom
no_reorient  #important for SAPT in psi4, default
symmetry c1  #important for SAPT in psi4, default
}

set PROPERTIES_ORIGIN ["COM"]
properties('MP2/aug-cc-pvtz', properties = ['dipole'])
--------------------------------------------------------------------------

    Molecular point group: c1
  Charge       = 0
  Multiplicity = 1
  Basis Set: AUG-CC-PVTZ
    Blend: AUG-CC-PVTZ
  Basis Set: (AUG-CC-PVTZ AUX)
    Blend: AUG-CC-PVTZ-JKFIT

    Orbital Energies [Eh]
    ---------------------

    Doubly Occupied:

       1A    -20.500160     2A    -15.615710     3A    -11.344060
       4A    -11.296765     5A    -11.269101     6A    -11.242982
       7A    -11.238371     8A    -11.237336     9A    -11.234606
      10A    -11.212735    11A     -1.361702    12A     -1.263111
      13A     -1.131629    14A     -1.061982    15A     -0.992381
      16A     -0.948860    17A     -0.934242    18A     -0.830861
      19A     -0.809803    20A     -0.726183    21A     -0.705549
      22A     -0.645465    23A     -0.621174    24A     -0.598415
      25A     -0.586542    26A     -0.582849    27A     -0.572213
      28A     -0.569274    29A     -0.562099    30A     -0.550522
      31A     -0.534473    32A     -0.505798    33A     -0.499410
      34A     -0.468560    35A     -0.415634    36A     -0.387933
      37A     -0.295575

  @DF-RHF Final Energy:  -438.82774003351778

   => Energetics <=

    Nuclear Repulsion Energy =            522.9080819472363828
    One-Electron Energy =               -1632.7635164330592943
    Two-Electron Energy =                 671.0276944523052407
    Total Energy =                       -438.8277400335177845
  Basis Set: (AUG-CC-PVTZ AUX)
    Blend: AUG-CC-PVTZ-RI
    Molecular point group: c1

    Geometry (in Angstrom), charge = 0, multiplicity = 1:

       Center              X                  Y                   Z               Mass
    ------------   -----------------  -----------------  -----------------  -----------------
         O            2.673928577012    -0.693577587147    -0.012366924832    15.994914619570
         N            0.614966577012    -1.677698587147     0.006434075168    14.003074004430
         C           -0.667135422988     0.738264412853    -0.010356924832    12.000000000000
         C            0.713911577012     0.710085412853     0.003788075168    12.000000000000
         C           -1.431519422988    -0.478889587147     0.002121075168    12.000000000000
         C            1.440597577012    -0.554317587147    -0.004181924832    12.000000000000
         C           -0.750713422988    -1.663900587147     0.006981075168    12.000000000000
         C           -1.418642422988     2.044596412853    -0.004567924832    12.000000000000
         C            1.571970577012     1.946247412853     0.011986075168    12.000000000000
         C           -2.935499422988    -0.473040587147    -0.002123924832    12.000000000000
         H           -1.240983422988    -2.633342587147     0.016176075168     1.007825032230
         H           -2.183482622988     2.050494612853    -0.758963524832     1.007825032230
         H           -0.759305422988     2.892909412853    -0.188554924832     1.007825032230
         H           -1.914910422988     2.205789412853     0.959690075168     1.007825032230
         H            1.121220577012    -2.559169587147     0.005802075168     1.007825032230
         H            1.454697577012     2.523815412853    -0.911086924832     1.007825032230
         H            2.616816577012     1.645536412853     0.097055075168     1.007825032230
         H            1.324735577012     2.602796412853     0.851528075168     1.007825032230
         H           -3.321027422988    -1.494664587147     0.062698075168     1.007825032230
         H           -3.338771422988    -0.023419587147    -0.915772924832     1.007825032230
         H           -3.340332422988     0.090232412853     0.844896075168     1.007825032230

  Basis Set: AUG-CC-PVTZ
    Blend: AUG-CC-PVTZ
  Basis Set: (AUG-CC-PVTZ AUX)
    Blend: AUG-CC-PVTZ-JKFIT
	 Reference Energy          =    -438.8277400335177845 [Eh]
	 Singles Energy            =      -0.0000000000000000 [Eh]
	 Same-Spin Energy          =      -0.4701345166791671 [Eh]
	 Opposite-Spin Energy      =      -1.4990276660684856 [Eh]
	 Correlation Energy        =      -1.9691621827476526 [Eh]
	 Total Energy              =    -440.7969022162654369 [Eh]

	 ================> DF-SCS-MP2 Energies <==================
	-----------------------------------------------------------
	 SCS Same-Spin Scale       =       0.3333333333333333 [-]
	 SCS Opposite-Spin Scale   =       1.2000000000000000 [-]
	 SCS Same-Spin Energy      =      -0.1567115055597224 [Eh]
	 SCS Opposite-Spin Energy  =      -1.7988331992821827 [Eh]
	 SCS Correlation Energy    =      -1.9555447048419050 [Eh]
	 SCS Total Energy          =    -440.7832847383596686 [Eh]
	-----------------------------------------------------------

  Dipole Moment: [D]
     X:    -4.4703      Y:    -0.2899      Z:     0.0369     Total:     4.4799

*** Psi4 exiting successfully. Buy a developer a beer!
