                               Psi4 1.4a3.dev225

  ==> Input File <==

--------------------------------------------------------------------------
#psi4
#
memory 32 gb

molecule  {
0 1
  O        2.7382740    -0.7425350    -0.0126020
  N        0.6793120    -1.7266560     0.0061990
  C       -0.6027900     0.6893070    -0.0105920
  C        0.7782570     0.6611280     0.0035530
  C       -1.3671740    -0.5278470     0.0018860
  C        1.5049430    -0.6032750    -0.0044170
  C       -0.6863680    -1.7128580     0.0067460
  C       -1.3542970     1.9956390    -0.0048030
  C        1.6363160     1.8972900     0.0117510
  C       -2.8711540    -0.5219980    -0.0023590
  H       -1.1766380    -2.6823000     0.0159410
  H       -2.1333760     2.0016470    -0.7732430
  H       -0.6949600     2.8439520    -0.1887900
  H       -1.8505650     2.1568320     0.9594550
  H        1.1855660    -2.6081270     0.0055670
  H        1.5136889     2.5012268    -0.9534648
  H        2.6811620     1.5965790     0.0968200
  H        1.3890810     2.5538390     0.8512930
  H       -3.2566820    -1.5436220     0.0624630
  H       -3.2744260    -0.0723770    -0.9160080
  H       -3.2759870     0.0412750     0.8446610
units angstrom
no_reorient  #important for SAPT in psi4, default
symmetry c1  #important for SAPT in psi4, default
}

set PROPERTIES_ORIGIN ["COM"]
properties('MP2/aug-cc-pvtz', properties = ['dipole'])
--------------------------------------------------------------------------

    Molecular point group: c1
  Charge       = 0
  Multiplicity = 1
  Basis Set: AUG-CC-PVTZ
    Blend: AUG-CC-PVTZ
  Basis Set: (AUG-CC-PVTZ AUX)
    Blend: AUG-CC-PVTZ-JKFIT

    Orbital Energies [Eh]
    ---------------------

    Doubly Occupied:

       1A    -20.500448     2A    -15.616000     3A    -11.344439
       4A    -11.297062     5A    -11.269570     6A    -11.243194
       7A    -11.238869     8A    -11.237385     9A    -11.236931
      10A    -11.218895    11A     -1.362002    12A     -1.263400
      13A     -1.131605    14A     -1.061791    15A     -0.990668
      16A     -0.948972    17A     -0.931698    18A     -0.830058
      19A     -0.808988    20A     -0.726348    21A     -0.705400
      22A     -0.645440    23A     -0.620379    24A     -0.598404
      25A     -0.586305    26A     -0.582083    27A     -0.570549
      28A     -0.569339    29A     -0.561556    30A     -0.545270
      31A     -0.532917    32A     -0.505634    33A     -0.499079
      34A     -0.468706    35A     -0.415930    36A     -0.387677
      37A     -0.295693

  @DF-RHF Final Energy:  -438.82563910366531

   => Energetics <=

    Nuclear Repulsion Energy =            522.5960604651503445
    One-Electron Energy =               -1632.1460300504684255
    Two-Electron Energy =                 670.7243304816529417
    Total Energy =                       -438.8256391036652531
  Basis Set: (AUG-CC-PVTZ AUX)
    Blend: AUG-CC-PVTZ-RI
    Molecular point group: c1

    Geometry (in Angstrom), charge = 0, multiplicity = 1:

       Center              X                  Y                   Z               Mass
    ------------   -----------------  -----------------  -----------------  -----------------
         O            2.674072621583    -0.693772254529    -0.011953843508    15.994914619570
         N            0.615110621583    -1.677893254529     0.006847156492    14.003074004430
         C           -0.666991378417     0.738069745471    -0.009943843508    12.000000000000
         C            0.714055621583     0.709890745471     0.004201156492    12.000000000000
         C           -1.431375378417    -0.479084254529     0.002534156492    12.000000000000
         C            1.440741621583    -0.554512254529    -0.003768843508    12.000000000000
         C           -0.750569378417    -1.664095254529     0.007394156492    12.000000000000
         C           -1.418498378417     2.044401745471    -0.004154843508    12.000000000000
         C            1.572114621583     1.946052745471     0.012399156492    12.000000000000
         C           -2.935355378417    -0.473235254529    -0.001710843508    12.000000000000
         H           -1.240839378417    -2.633537254529     0.016589156492     1.007825032230
         H           -2.197577378417     2.050409745471    -0.772594843508     1.007825032230
         H           -0.759161378417     2.892714745471    -0.188141843508     1.007825032230
         H           -1.914766378417     2.205594745471     0.960103156492     1.007825032230
         H            1.121364621583    -2.559364254529     0.006215156492     1.007825032230
         H            1.449487521583     2.549989545471    -0.952816643508     1.007825032230
         H            2.616960621583     1.645341745471     0.097468156492     1.007825032230
         H            1.324879621583     2.602601745471     0.851941156492     1.007825032230
         H           -3.320883378417    -1.494859254529     0.063111156492     1.007825032230
         H           -3.338627378417    -0.023614254529    -0.915359843508     1.007825032230
         H           -3.340188378417     0.090037745471     0.845309156492     1.007825032230

  Basis Set: AUG-CC-PVTZ
    Blend: AUG-CC-PVTZ
  Basis Set: (AUG-CC-PVTZ AUX)
    Blend: AUG-CC-PVTZ-JKFIT
	 Reference Energy          =    -438.8256391036653099 [Eh]
	 Singles Energy            =      -0.0000000000000000 [Eh]
	 Same-Spin Energy          =      -0.4701544211666293 [Eh]
	 Opposite-Spin Energy      =      -1.4994625282876142 [Eh]
	 Correlation Energy        =      -1.9696169494542435 [Eh]
	 Total Energy              =    -440.7952560531195445 [Eh]

	 ================> DF-SCS-MP2 Energies <==================
	-----------------------------------------------------------
	 SCS Same-Spin Scale       =       0.3333333333333333 [-]
	 SCS Opposite-Spin Scale   =       1.2000000000000000 [-]
	 SCS Same-Spin Energy      =      -0.1567181403888764 [Eh]
	 SCS Opposite-Spin Energy  =      -1.7993550339451370 [Eh]
	 SCS Correlation Energy    =      -1.9560731743340134 [Eh]
	 SCS Total Energy          =    -440.7817122779993042 [Eh]
	-----------------------------------------------------------

  Dipole Moment: [D]
     X:    -4.4669      Y:    -0.3159      Z:     0.0596     Total:     4.4785

*** Psi4 exiting successfully. Buy a developer a beer!
