                               Psi4 1.4a3.dev225

  ==> Input File <==

--------------------------------------------------------------------------
#psi4
#
memory 32 gb

molecule  {
0 1
  O        2.7382740    -0.7425350    -0.0126020
  N        0.6793120    -1.7266560     0.0061990
  C       -0.6027900     0.6893070    -0.0105920
  C        0.7782570     0.6611280     0.0035530
  C       -1.3671740    -0.5278470     0.0018860
  C        1.5049430    -0.6032750    -0.0044170
  C       -0.7863629    -1.7118477     0.0067861
  C       -1.3542970     1.9956390    -0.0048030
  C        1.6363160     1.8972900     0.0117510
  C       -2.8711540    -0.5219980    -0.0023590
  H       -1.1766380    -2.6823000     0.0159410
  H       -2.1333760     2.0016470    -0.7732430
  H       -0.6949600     2.8439520    -0.1887900
  H       -1.8505650     2.1568320     0.9594550
  H        1.1855660    -2.6081270     0.0055670
  H        1.5190430     2.4748580    -0.9113220
  H        2.6811620     1.5965790     0.0968200
  H        1.3890810     2.5538390     0.8512930
  H       -3.2566820    -1.5436220     0.0624630
  H       -3.2744260    -0.0723770    -0.9160080
  H       -3.2759870     0.0412750     0.8446610
units angstrom
no_reorient  #important for SAPT in psi4, default
symmetry c1  #important for SAPT in psi4, default
}

set PROPERTIES_ORIGIN ["COM"]
properties('MP2/aug-cc-pvtz', properties = ['dipole'])
--------------------------------------------------------------------------

    Molecular point group: c1
  Charge       = 0
  Multiplicity = 1
  Basis Set: AUG-CC-PVTZ
    Blend: AUG-CC-PVTZ
  Basis Set: (AUG-CC-PVTZ AUX)
    Blend: AUG-CC-PVTZ-JKFIT

    Orbital Energies [Eh]
    ---------------------

    Doubly Occupied:

       1A    -20.499979     2A    -15.603500     3A    -11.342797
       4A    -11.290623     5A    -11.270891     6A    -11.244787
       7A    -11.244262     8A    -11.239059     9A    -11.237928
      10A    -11.215048    11A     -1.356360    12A     -1.236722
      13A     -1.132026    14A     -1.071245    15A     -0.994689
      16A     -0.948609    17A     -0.931439    18A     -0.832164
      19A     -0.805182    20A     -0.710329    21A     -0.697637
      22A     -0.661579    23A     -0.619093    24A     -0.598564
      25A     -0.583047    26A     -0.579361    27A     -0.572461
      28A     -0.569915    29A     -0.564466    30A     -0.548715
      31A     -0.531919    32A     -0.507135    33A     -0.503529
      34A     -0.462233    35A     -0.414410    36A     -0.386410
      37A     -0.308069

  @DF-RHF Final Energy:  -438.81712834793774

   => Energetics <=

    Nuclear Repulsion Energy =            521.9994691986295265
    One-Electron Energy =               -1631.0008365986655008
    Two-Electron Energy =                 670.1842390520984054
    Total Energy =                       -438.8171283479376825
  Basis Set: (AUG-CC-PVTZ AUX)
    Blend: AUG-CC-PVTZ-RI
    Molecular point group: c1

    Geometry (in Angstrom), charge = 0, multiplicity = 1:

       Center              X                  Y                   Z               Mass
    ------------   -----------------  -----------------  -----------------  -----------------
         O            2.682786565197    -0.693666833547    -0.012267182400    15.994914619570
         N            0.623824565197    -1.677787833547     0.006533817600    14.003074004430
         C           -0.658277434803     0.738175166453    -0.010257182400    12.000000000000
         C            0.722769565197     0.709996166453     0.003887817600    12.000000000000
         C           -1.422661434803    -0.478978833547     0.002220817600    12.000000000000
         C            1.449455565197    -0.554406833547    -0.004082182400    12.000000000000
         C           -0.841850334803    -1.662979533547     0.007120917600    12.000000000000
         C           -1.409784434803     2.044507166453    -0.004468182400    12.000000000000
         C            1.580828565197     1.946158166453     0.012085817600    12.000000000000
         C           -2.926641434803    -0.473129833547    -0.002024182400    12.000000000000
         H           -1.232125434803    -2.633431833547     0.016275817600     1.007825032230
         H           -2.188863434803     2.050515166453    -0.772908182400     1.007825032230
         H           -0.750447434803     2.892820166453    -0.188455182400     1.007825032230
         H           -1.906052434803     2.205700166453     0.959789817600     1.007825032230
         H            1.130078565197    -2.559258833547     0.005901817600     1.007825032230
         H            1.463555565197     2.523726166453    -0.910987182400     1.007825032230
         H            2.625674565197     1.645447166453     0.097154817600     1.007825032230
         H            1.333593565197     2.602707166453     0.851627817600     1.007825032230
         H           -3.312169434803    -1.494753833547     0.062797817600     1.007825032230
         H           -3.329913434803    -0.023508833547    -0.915673182400     1.007825032230
         H           -3.331474434803     0.090143166453     0.844995817600     1.007825032230

  Basis Set: AUG-CC-PVTZ
    Blend: AUG-CC-PVTZ
  Basis Set: (AUG-CC-PVTZ AUX)
    Blend: AUG-CC-PVTZ-JKFIT
	 Reference Energy          =    -438.8171283479377394 [Eh]
	 Singles Energy            =      -0.0000000000000000 [Eh]
	 Same-Spin Energy          =      -0.4688327732029434 [Eh]
	 Opposite-Spin Energy      =      -1.4995042686048372 [Eh]
	 Correlation Energy        =      -1.9683370418077806 [Eh]
	 Total Energy              =    -440.7854653897455250 [Eh]

	 ================> DF-SCS-MP2 Energies <==================
	-----------------------------------------------------------
	 SCS Same-Spin Scale       =       0.3333333333333333 [-]
	 SCS Opposite-Spin Scale   =       1.2000000000000000 [-]
	 SCS Same-Spin Energy      =      -0.1562775910676478 [Eh]
	 SCS Opposite-Spin Energy  =      -1.7994051223258045 [Eh]
	 SCS Correlation Energy    =      -1.9556827133934522 [Eh]
	 SCS Total Energy          =    -440.7728110613311969 [Eh]
	-----------------------------------------------------------

  Dipole Moment: [D]
     X:    -4.6151      Y:    -0.0847      Z:     0.0402     Total:     4.6160

*** Psi4 exiting successfully. Buy a developer a beer!
