                               Psi4 1.4a3.dev225

  ==> Input File <==

--------------------------------------------------------------------------
#psi4
#
memory 32 gb

molecule  {
0 1
  O        2.7382740    -0.7425350    -0.0126020
  N        0.6793120    -1.7266560     0.0061990
  C       -0.6027900     0.6893070    -0.0105920
  C        0.7782570     0.6611280     0.0035530
  C       -1.3671740    -0.5278470     0.0018860
  C        1.5049430    -0.6032750    -0.0044170
  C       -0.6863680    -1.7128580     0.0067460
  C       -1.3542970     1.9956390    -0.0048030
  C        1.6363160     1.8972900     0.0117510
  C       -2.8711540    -0.5219980    -0.0023590
  H       -1.1766380    -2.6823000     0.0159410
  H       -2.1333760     2.0016470    -0.7732430
  H       -0.6949600     2.8439520    -0.1887900
  H       -1.8505650     2.1568320     0.9594550
  H        1.1855660    -2.6081270     0.0055670
  H        1.5190430     2.4748580    -0.9113220
  H        2.6811620     1.5965790     0.0968200
  H        1.3890810     2.5538390     0.8512930
  H       -3.2566820    -1.5436220     0.0624630
  H       -3.2744260    -0.0723770    -0.9160080
  H       -3.2944757     0.0669997     0.8833444
units angstrom
no_reorient  #important for SAPT in psi4, default
symmetry c1  #important for SAPT in psi4, default
}

set PROPERTIES_ORIGIN ["COM"]
properties('MP2/aug-cc-pvtz', properties = ['dipole'])
--------------------------------------------------------------------------

    Molecular point group: c1
  Charge       = 0
  Multiplicity = 1
  Basis Set: AUG-CC-PVTZ
    Blend: AUG-CC-PVTZ
  Basis Set: (AUG-CC-PVTZ AUX)
    Blend: AUG-CC-PVTZ-JKFIT

    Orbital Energies [Eh]
    ---------------------

    Doubly Occupied:

       1A    -20.500450     2A    -15.616044     3A    -11.344351
       4A    -11.297239     5A    -11.269404     6A    -11.243729
       7A    -11.243018     8A    -11.238636     9A    -11.236868
      10A    -11.212905    11A     -1.361984    12A     -1.263436
      13A     -1.131484    14A     -1.061612    15A     -0.991147
      16A     -0.945695    17A     -0.934108    18A     -0.830437
      19A     -0.809143    20A     -0.725942    21A     -0.705621
      22A     -0.645606    23A     -0.619895    24A     -0.598379
      25A     -0.586282    26A     -0.581302    27A     -0.569911
      28A     -0.567221    29A     -0.561246    30A     -0.549312
      31A     -0.531865    32A     -0.505897    33A     -0.499644
      34A     -0.468497    35A     -0.415894    36A     -0.387852
      37A     -0.295742

  @DF-RHF Final Energy:  -438.82561010463843

   => Energetics <=

    Nuclear Repulsion Energy =            522.6074224146279903
    One-Electron Energy =               -1632.1704662484439723
    Two-Electron Energy =                 670.7374337291774964
    Total Energy =                       -438.8256101046384856
  Basis Set: (AUG-CC-PVTZ AUX)
    Blend: AUG-CC-PVTZ-RI
    Molecular point group: c1

    Geometry (in Angstrom), charge = 0, multiplicity = 1:

       Center              X                  Y                   Z               Mass
    ------------   -----------------  -----------------  -----------------  -----------------
         O            2.674169185532    -0.693767519186    -0.012548067703    15.994914619570
         N            0.615207185532    -1.677888519186     0.006252932297    14.003074004430
         C           -0.666894814468     0.738074480814    -0.010538067703    12.000000000000
         C            0.714152185532     0.709895480814     0.003606932297    12.000000000000
         C           -1.431278814468    -0.479079519186     0.001939932297    12.000000000000
         C            1.440838185532    -0.554507519186    -0.004363067703    12.000000000000
         C           -0.750472814468    -1.664090519186     0.006799932297    12.000000000000
         C           -1.418401814468     2.044406480814    -0.004749067703    12.000000000000
         C            1.572211185532     1.946057480814     0.011804932297    12.000000000000
         C           -2.935258814468    -0.473230519186    -0.002305067703    12.000000000000
         H           -1.240742814468    -2.633532519186     0.015994932297     1.007825032230
         H           -2.197480814468     2.050414480814    -0.773189067703     1.007825032230
         H           -0.759064814468     2.892719480814    -0.188736067703     1.007825032230
         H           -1.914669814468     2.205599480814     0.959508932297     1.007825032230
         H            1.121461185532    -2.559359519186     0.005620932297     1.007825032230
         H            1.454938185532     2.523625480814    -0.911268067703     1.007825032230
         H            2.617057185532     1.645346480814     0.096873932297     1.007825032230
         H            1.324976185532     2.602606480814     0.851346932297     1.007825032230
         H           -3.320786814468    -1.494854519186     0.062516932297     1.007825032230
         H           -3.338530814468    -0.023609519186    -0.915954067703     1.007825032230
         H           -3.358580514468     0.115767180814     0.883398332297     1.007825032230

  Basis Set: AUG-CC-PVTZ
    Blend: AUG-CC-PVTZ
  Basis Set: (AUG-CC-PVTZ AUX)
    Blend: AUG-CC-PVTZ-JKFIT
	 Reference Energy          =    -438.8256101046384288 [Eh]
	 Singles Energy            =      -0.0000000000000000 [Eh]
	 Same-Spin Energy          =      -0.4701548259069317 [Eh]
	 Opposite-Spin Energy      =      -1.4994897236473235 [Eh]
	 Correlation Energy        =      -1.9696445495542552 [Eh]
	 Total Energy              =    -440.7952546541926608 [Eh]

	 ================> DF-SCS-MP2 Energies <==================
	-----------------------------------------------------------
	 SCS Same-Spin Scale       =       0.3333333333333333 [-]
	 SCS Opposite-Spin Scale   =       1.2000000000000000 [-]
	 SCS Same-Spin Energy      =      -0.1567182753023106 [Eh]
	 SCS Opposite-Spin Energy  =      -1.7993876683767882 [Eh]
	 SCS Correlation Energy    =      -1.9561059436790988 [Eh]
	 SCS Total Energy          =    -440.7817160483175485 [Eh]
	-----------------------------------------------------------

  Dipole Moment: [D]
     X:    -4.4355      Y:    -0.3050      Z:     0.0251     Total:     4.4460

*** Psi4 exiting successfully. Buy a developer a beer!
