                               Psi4 1.4a3.dev225

  ==> Input File <==

--------------------------------------------------------------------------
#psi4
#
memory 32 gb

molecule  {
0 1
  O        2.7382740    -0.7425350    -0.0126020
  N        0.6793120    -1.7266560     0.0061990
  C       -0.6027900     0.6893070    -0.0105920
  C        0.7782570     0.6611280     0.0035530
  C       -1.3671740    -0.5278470     0.0018860
  C        1.5049430    -0.6032750    -0.0044170
  C       -0.6863680    -1.7128580     0.0067460
  C       -1.3542970     1.9956390    -0.0048030
  C        1.6363160     1.8972900     0.0117510
  C       -2.8711540    -0.5219980    -0.0023590
  H       -1.1766380    -2.6823000     0.0159410
  H       -2.1333760     2.0016470    -0.7732430
  H       -0.6949600     2.8439520    -0.1887900
  H       -1.8505650     2.1568320     0.9594550
  H        1.1855660    -2.6081270     0.0055670
  H        1.5190430     2.4748580    -0.9113220
  H        2.5853556     1.6241525     0.0890197
  H        1.3890810     2.5538390     0.8512930
  H       -3.2566820    -1.5436220     0.0624630
  H       -3.2744260    -0.0723770    -0.9160080
  H       -3.2759870     0.0412750     0.8446610
units angstrom
no_reorient  #important for SAPT in psi4, default
symmetry c1  #important for SAPT in psi4, default
}

set PROPERTIES_ORIGIN ["COM"]
properties('MP2/aug-cc-pvtz', properties = ['dipole'])
--------------------------------------------------------------------------

    Molecular point group: c1
  Charge       = 0
  Multiplicity = 1
  Basis Set: AUG-CC-PVTZ
    Blend: AUG-CC-PVTZ
  Basis Set: (AUG-CC-PVTZ AUX)
    Blend: AUG-CC-PVTZ-JKFIT

    Orbital Energies [Eh]
    ---------------------

    Doubly Occupied:

       1A    -20.500248     2A    -15.615613     3A    -11.344076
       4A    -11.296634     5A    -11.268910     6A    -11.242814
       7A    -11.237939     8A    -11.237124     9A    -11.236740
      10A    -11.202135    11A     -1.361698    12A     -1.263030
      13A     -1.131572    14A     -1.063251    15A     -0.993749
      16A     -0.948916    17A     -0.939735    18A     -0.830545
      19A     -0.812351    20A     -0.726906    21A     -0.705917
      22A     -0.645533    23A     -0.620565    24A     -0.599618
      25A     -0.587330    26A     -0.582289    27A     -0.575482
      28A     -0.570687    29A     -0.561563    30A     -0.550136
      31A     -0.539211    32A     -0.514346    33A     -0.499159
      34A     -0.468542    35A     -0.415959    36A     -0.387647
      37A     -0.295447

  @DF-RHF Final Energy:  -438.82180785409872

   => Energetics <=

    Nuclear Repulsion Energy =            523.2665451179497040
    One-Electron Energy =               -1633.4298662740450254
    Two-Electron Energy =                 671.3415133019964287
    Total Energy =                       -438.8218078540987790
  Basis Set: (AUG-CC-PVTZ AUX)
    Blend: AUG-CC-PVTZ-RI
    Molecular point group: c1

    Geometry (in Angstrom), charge = 0, multiplicity = 1:

       Center              X                  Y                   Z               Mass
    ------------   -----------------  -----------------  -----------------  -----------------
         O            2.674737615671    -0.693781111334    -0.012206325308    15.994914619570
         N            0.615775615671    -1.677902111334     0.006594674692    14.003074004430
         C           -0.666326384329     0.738060888666    -0.010196325308    12.000000000000
         C            0.714720615671     0.709881888666     0.003948674692    12.000000000000
         C           -1.430710384329    -0.479093111334     0.002281674692    12.000000000000
         C            1.441406615671    -0.554521111334    -0.004021325308    12.000000000000
         C           -0.749904384329    -1.664104111334     0.007141674692    12.000000000000
         C           -1.417833384329     2.044392888666    -0.004407325308    12.000000000000
         C            1.572779615671     1.946043888666     0.012146674692    12.000000000000
         C           -2.934690384329    -0.473244111334    -0.001963325308    12.000000000000
         H           -1.240174384329    -2.633546111334     0.016336674692     1.007825032230
         H           -2.196912384329     2.050400888666    -0.772847325308     1.007825032230
         H           -0.758496384329     2.892705888666    -0.188394325308     1.007825032230
         H           -1.914101384329     2.205585888666     0.959850674692     1.007825032230
         H            1.122029615671    -2.559373111334     0.005962674692     1.007825032230
         H            1.455506615671     2.523611888666    -0.910926325308     1.007825032230
         H            2.521819215671     1.672906388666     0.089415374692     1.007825032230
         H            1.325544615671     2.602592888666     0.851688674692     1.007825032230
         H           -3.320218384329    -1.494868111334     0.062858674692     1.007825032230
         H           -3.337962384329    -0.023623111334    -0.915612325308     1.007825032230
         H           -3.339523384329     0.090028888666     0.845056674692     1.007825032230

  Basis Set: AUG-CC-PVTZ
    Blend: AUG-CC-PVTZ
  Basis Set: (AUG-CC-PVTZ AUX)
    Blend: AUG-CC-PVTZ-JKFIT
	 Reference Energy          =    -438.8218078540987221 [Eh]
	 Singles Energy            =      -0.0000000000000000 [Eh]
	 Same-Spin Energy          =      -0.4699699566133044 [Eh]
	 Opposite-Spin Energy      =      -1.4984297941457261 [Eh]
	 Correlation Energy        =      -1.9683997507590305 [Eh]
	 Total Energy              =    -440.7902076048577555 [Eh]

	 ================> DF-SCS-MP2 Energies <==================
	-----------------------------------------------------------
	 SCS Same-Spin Scale       =       0.3333333333333333 [-]
	 SCS Opposite-Spin Scale   =       1.2000000000000000 [-]
	 SCS Same-Spin Energy      =      -0.1566566522044348 [Eh]
	 SCS Opposite-Spin Energy  =      -1.7981157529748713 [Eh]
	 SCS Correlation Energy    =      -1.9547724051793061 [Eh]
	 SCS Total Energy          =    -440.7765802592780346 [Eh]
	-----------------------------------------------------------

  Dipole Moment: [D]
     X:    -4.4517      Y:    -0.2607      Z:     0.0434     Total:     4.4596

*** Psi4 exiting successfully. Buy a developer a beer!
