                               Psi4 1.4a3.dev225

  ==> Input File <==

--------------------------------------------------------------------------
#psi4
#
memory 32 gb

molecule  {
0 1
  O        2.7382740    -0.7425350    -0.0126020
  N        0.6793120    -1.7266560     0.0061990
  C       -0.6027900     0.6893070    -0.0105920
  C        0.7782570     0.6611280     0.0035530
  C       -1.3671740    -0.5278470     0.0018860
  C        1.5049430    -0.6032750    -0.0044170
  C       -0.8863578    -1.7108374     0.0068261
  C       -1.3542970     1.9956390    -0.0048030
  C        1.6363160     1.8972900     0.0117510
  C       -2.8711540    -0.5219980    -0.0023590
  H       -1.1766380    -2.6823000     0.0159410
  H       -2.1333760     2.0016470    -0.7732430
  H       -0.6949600     2.8439520    -0.1887900
  H       -1.8505650     2.1568320     0.9594550
  H        1.1855660    -2.6081270     0.0055670
  H        1.5190430     2.4748580    -0.9113220
  H        2.6811620     1.5965790     0.0968200
  H        1.3890810     2.5538390     0.8512930
  H       -3.2566820    -1.5436220     0.0624630
  H       -3.2744260    -0.0723770    -0.9160080
  H       -3.2759870     0.0412750     0.8446610
units angstrom
no_reorient  #important for SAPT in psi4, default
symmetry c1  #important for SAPT in psi4, default
}

set PROPERTIES_ORIGIN ["COM"]
properties('MP2/aug-cc-pvtz', properties = ['dipole'])
--------------------------------------------------------------------------

    Molecular point group: c1
  Charge       = 0
  Multiplicity = 1
  Basis Set: AUG-CC-PVTZ
    Blend: AUG-CC-PVTZ
  Basis Set: (AUG-CC-PVTZ AUX)
    Blend: AUG-CC-PVTZ-JKFIT

    Orbital Energies [Eh]
    ---------------------

    Doubly Occupied:

       1A    -20.498976     2A    -15.590591     3A    -11.340461
       4A    -11.288126     5A    -11.272072     6A    -11.249084
       7A    -11.246943     8A    -11.240709     9A    -11.239352
      10A    -11.216787    11A     -1.352415    12A     -1.218186
      13A     -1.131042    14A     -1.080678    15A     -0.997702
      16A     -0.948858    17A     -0.930043    18A     -0.834763
      19A     -0.804124    20A     -0.710121    21A     -0.681241
      22A     -0.673989    23A     -0.619643    24A     -0.597579
      25A     -0.580025    26A     -0.579258    27A     -0.574381
      28A     -0.568725    29A     -0.564865    30A     -0.545720
      31A     -0.529113    32A     -0.512591    33A     -0.496562
      34A     -0.459259    35A     -0.411427    36A     -0.382700
      37A     -0.319053

  @DF-RHF Final Energy:  -438.78849530786135

   => Energetics <=

    Nuclear Repulsion Energy =            521.3081047056416537
    One-Electron Energy =               -1629.6188764690193693
    Two-Electron Energy =                 669.5222764555163621
    Total Energy =                       -438.7884953078613535
  Basis Set: (AUG-CC-PVTZ AUX)
    Blend: AUG-CC-PVTZ-RI
    Molecular point group: c1

    Geometry (in Angstrom), charge = 0, multiplicity = 1:

       Center              X                  Y                   Z               Mass
    ------------   -----------------  -----------------  -----------------  -----------------
         O            2.691539871491    -0.693755272711    -0.012270683901    15.994914619570
         N            0.632577871491    -1.677876272711     0.006530316099    14.003074004430
         C           -0.649524128509     0.738086727289    -0.010260683901    12.000000000000
         C            0.731522871491     0.709907727289     0.003884316099    12.000000000000
         C           -1.413908128509    -0.479067272711     0.002217316099    12.000000000000
         C            1.458208871491    -0.554495272711    -0.004085683901    12.000000000000
         C           -0.933091928509    -1.662057672711     0.007157416099    12.000000000000
         C           -1.401031128509     2.044418727289    -0.004471683901    12.000000000000
         C            1.589581871491     1.946069727289     0.012082316099    12.000000000000
         C           -2.917888128509    -0.473218272711    -0.002027683901    12.000000000000
         H           -1.223372128509    -2.633520272711     0.016272316099     1.007825032230
         H           -2.180110128509     2.050426727289    -0.772911683901     1.007825032230
         H           -0.741694128509     2.892731727289    -0.188458683901     1.007825032230
         H           -1.897299128509     2.205611727289     0.959786316099     1.007825032230
         H            1.138831871491    -2.559347272711     0.005898316099     1.007825032230
         H            1.472308871491     2.523637727289    -0.910990683901     1.007825032230
         H            2.634427871491     1.645358727289     0.097151316099     1.007825032230
         H            1.342346871491     2.602618727289     0.851624316099     1.007825032230
         H           -3.303416128509    -1.494842272711     0.062794316099     1.007825032230
         H           -3.321160128509    -0.023597272711    -0.915676683901     1.007825032230
         H           -3.322721128509     0.090054727289     0.844992316099     1.007825032230

  Basis Set: AUG-CC-PVTZ
    Blend: AUG-CC-PVTZ
  Basis Set: (AUG-CC-PVTZ AUX)
    Blend: AUG-CC-PVTZ-JKFIT
	 Reference Energy          =    -438.7884953078613535 [Eh]
	 Singles Energy            =      -0.0000000000000000 [Eh]
	 Same-Spin Energy          =      -0.4682069474389341 [Eh]
	 Opposite-Spin Energy      =      -1.5007538204707345 [Eh]
	 Correlation Energy        =      -1.9689607679096686 [Eh]
	 Total Energy              =    -440.7574560757710174 [Eh]

	 ================> DF-SCS-MP2 Energies <==================
	-----------------------------------------------------------
	 SCS Same-Spin Scale       =       0.3333333333333333 [-]
	 SCS Opposite-Spin Scale   =       1.2000000000000000 [-]
	 SCS Same-Spin Energy      =      -0.1560689824796447 [Eh]
	 SCS Opposite-Spin Energy  =      -1.8009045845648812 [Eh]
	 SCS Correlation Energy    =      -1.9569735670445259 [Eh]
	 SCS Total Energy          =    -440.7454688749058960 [Eh]
	-----------------------------------------------------------

  Dipole Moment: [D]
     X:    -4.8177      Y:     0.0899      Z:     0.0392     Total:     4.8187

*** Psi4 exiting successfully. Buy a developer a beer!
