                               Psi4 1.4a3.dev225

  ==> Input File <==

--------------------------------------------------------------------------
#psi4
#
memory 32 gb

molecule  {
0 1
  O        2.7382740    -0.7425350    -0.0126020
  N        0.6793120    -1.7266560     0.0061990
  C       -0.6027900     0.6893070    -0.0105920
  C        0.7782570     0.6611280     0.0035530
  C       -1.3671740    -0.5278470     0.0018860
  C        1.5049430    -0.6032750    -0.0044170
  C       -0.6863680    -1.7128580     0.0067460
  C       -1.3542970     1.9956390    -0.0048030
  C        1.6363160     1.8972900     0.0117510
  C       -2.8711540    -0.5219980    -0.0023590
  H       -1.1766380    -2.6823000     0.0159410
  H       -2.1333760     2.0016470    -0.7732430
  H       -0.6949600     2.8439520    -0.1887900
  H       -1.8505650     2.1568320     0.9594550
  H        1.1855660    -2.6081270     0.0055670
  H        1.5190430     2.4748580    -0.9113220
  H        2.6811620     1.5965790     0.0968200
  H        1.3890810     2.5538390     0.8512930
  H       -3.2566820    -1.5436220     0.0624630
  H       -3.3112466    -0.0313246    -0.9994283
  H       -3.2759870     0.0412750     0.8446610
units angstrom
no_reorient  #important for SAPT in psi4, default
symmetry c1  #important for SAPT in psi4, default
}

set PROPERTIES_ORIGIN ["COM"]
properties('MP2/aug-cc-pvtz', properties = ['dipole'])
--------------------------------------------------------------------------

    Molecular point group: c1
  Charge       = 0
  Multiplicity = 1
  Basis Set: AUG-CC-PVTZ
    Blend: AUG-CC-PVTZ
  Basis Set: (AUG-CC-PVTZ AUX)
    Blend: AUG-CC-PVTZ-JKFIT

    Orbital Energies [Eh]
    ---------------------

    Doubly Occupied:

       1A    -20.500741     2A    -15.616435     3A    -11.344625
       4A    -11.297826     5A    -11.269583     6A    -11.249080
       7A    -11.244005     8A    -11.238803     9A    -11.236668
      10A    -11.213003    11A     -1.362272    12A     -1.263800
      13A     -1.131538    14A     -1.061388    15A     -0.991136
      16A     -0.943247    17A     -0.934177    18A     -0.830607
      19A     -0.808719    20A     -0.725979    21A     -0.705780
      22A     -0.645885    23A     -0.619010    24A     -0.598641
      25A     -0.586512    26A     -0.579816    27A     -0.571525
      28A     -0.563321    29A     -0.561756    30A     -0.547303
      31A     -0.529626    32A     -0.505838    33A     -0.499894
      34A     -0.468254    35A     -0.416149    36A     -0.387824
      37A     -0.295852

  @DF-RHF Final Energy:  -438.82126085797432

   => Energetics <=

    Nuclear Repulsion Energy =            522.4037863018955932
    One-Electron Energy =               -1631.7568583706172376
    Two-Electron Energy =                 670.5318112107474917
    Total Energy =                       -438.8212608579742664
  Basis Set: (AUG-CC-PVTZ AUX)
    Blend: AUG-CC-PVTZ-RI
    Molecular point group: c1

    Geometry (in Angstrom), charge = 0, multiplicity = 1:

       Center              X                  Y                   Z               Mass
    ------------   -----------------  -----------------  -----------------  -----------------
         O            2.674303959387    -0.693880206535    -0.011650376449    15.994914619570
         N            0.615341959387    -1.678001206535     0.007150623551    14.003074004430
         C           -0.666760040613     0.737961793465    -0.009640376449    12.000000000000
         C            0.714286959387     0.709782793465     0.004504623551    12.000000000000
         C           -1.431144040613    -0.479192206535     0.002837623551    12.000000000000
         C            1.440972959387    -0.554620206535    -0.003465376449    12.000000000000
         C           -0.750338040613    -1.664203206535     0.007697623551    12.000000000000
         C           -1.418267040613     2.044293793465    -0.003851376449    12.000000000000
         C            1.572345959387     1.945944793465     0.012702623551    12.000000000000
         C           -2.935124040613    -0.473343206535    -0.001407376449    12.000000000000
         H           -1.240608040613    -2.633645206535     0.016892623551     1.007825032230
         H           -2.197346040613     2.050301793465    -0.772291376449     1.007825032230
         H           -0.758930040613     2.892606793465    -0.187838376449     1.007825032230
         H           -1.914535040613     2.205486793465     0.960406623551     1.007825032230
         H            1.121595959387    -2.559472206535     0.006518623551     1.007825032230
         H            1.455072959387     2.523512793465    -0.910370376449     1.007825032230
         H            2.617191959387     1.645233793465     0.097771623551     1.007825032230
         H            1.325110959387     2.602493793465     0.852244623551     1.007825032230
         H           -3.320652040613    -1.494967206535     0.063414623551     1.007825032230
         H           -3.375216640613     0.017330193465    -0.998476676449     1.007825032230
         H           -3.339957040613     0.089929793465     0.845612623551     1.007825032230

  Basis Set: AUG-CC-PVTZ
    Blend: AUG-CC-PVTZ
  Basis Set: (AUG-CC-PVTZ AUX)
    Blend: AUG-CC-PVTZ-JKFIT
	 Reference Energy          =    -438.8212608579743232 [Eh]
	 Singles Energy            =      -0.0000000000000000 [Eh]
	 Same-Spin Energy          =      -0.4701663939258744 [Eh]
	 Opposite-Spin Energy      =      -1.4998578479799503 [Eh]
	 Correlation Energy        =      -1.9700242419058247 [Eh]
	 Total Energy              =    -440.7912850998801559 [Eh]

	 ================> DF-SCS-MP2 Energies <==================
	-----------------------------------------------------------
	 SCS Same-Spin Scale       =       0.3333333333333333 [-]
	 SCS Opposite-Spin Scale   =       1.2000000000000000 [-]
	 SCS Same-Spin Energy      =      -0.1567221313086248 [Eh]
	 SCS Opposite-Spin Energy  =      -1.7998294175759402 [Eh]
	 SCS Correlation Energy    =      -1.9565515488845651 [Eh]
	 SCS Total Energy          =    -440.7778124068589136 [Eh]
	-----------------------------------------------------------

  Dipole Moment: [D]
     X:    -4.4014      Y:    -0.3171      Z:     0.0806     Total:     4.4136

*** Psi4 exiting successfully. Buy a developer a beer!
