                               Psi4 1.4a3.dev225

  ==> Input File <==

--------------------------------------------------------------------------
#psi4
#
memory 32 gb

molecule  {
0 1
  O        2.7382740    -0.7425350    -0.0126020
  N        0.6793120    -1.7266560     0.0061990
  C       -0.6027900     0.6893070    -0.0105920
  C        0.7782570     0.6611280     0.0035530
  C       -1.3671740    -0.5278470     0.0018860
  C        1.5049430    -0.6032750    -0.0044170
  C       -0.6863680    -1.7128580     0.0067460
  C       -1.3542970     1.9956390    -0.0048030
  C        1.6363160     1.8972900     0.0117510
  C       -2.8711540    -0.5219980    -0.0023590
  H       -1.1766380    -2.6823000     0.0159410
  H       -2.1333760     2.0016470    -0.7732430
  H       -0.6949600     2.8439520    -0.1887900
  H       -1.8958291     2.1715342     1.0474039
  H        1.1855660    -2.6081270     0.0055670
  H        1.5190430     2.4748580    -0.9113220
  H        2.6811620     1.5965790     0.0968200
  H        1.3890810     2.5538390     0.8512930
  H       -3.2566820    -1.5436220     0.0624630
  H       -3.2744260    -0.0723770    -0.9160080
  H       -3.2759870     0.0412750     0.8446610
units angstrom
no_reorient  #important for SAPT in psi4, default
symmetry c1  #important for SAPT in psi4, default
}

set PROPERTIES_ORIGIN ["COM"]
properties('MP2/aug-cc-pvtz', properties = ['dipole'])
--------------------------------------------------------------------------

    Molecular point group: c1
  Charge       = 0
  Multiplicity = 1
  Basis Set: AUG-CC-PVTZ
    Blend: AUG-CC-PVTZ
  Basis Set: (AUG-CC-PVTZ AUX)
    Blend: AUG-CC-PVTZ-JKFIT

    Orbital Energies [Eh]
    ---------------------

    Doubly Occupied:

       1A    -20.500601     2A    -15.616014     3A    -11.344552
       4A    -11.296909     5A    -11.270092     6A    -11.248582
       7A    -11.243219     8A    -11.239235     9A    -11.237035
      10A    -11.213250    11A     -1.362108    12A     -1.263432
      13A     -1.131296    14A     -1.062249    15A     -0.986757
      16A     -0.948794    17A     -0.933156    18A     -0.828079
      19A     -0.809593    20A     -0.726420    21A     -0.705766
      22A     -0.645408    23A     -0.618216    24A     -0.598359
      25A     -0.586353    26A     -0.580251    27A     -0.570203
      28A     -0.564195    29A     -0.561438    30A     -0.545998
      31A     -0.531707    32A     -0.505943    33A     -0.500056
      34A     -0.468780    35A     -0.416074    36A     -0.387194
      37A     -0.295827

  @DF-RHF Final Energy:  -438.82119280273741

   => Energetics <=

    Nuclear Repulsion Energy =            522.3853898268796456
    One-Electron Energy =               -1631.7268865953340082
    Two-Electron Energy =                 670.5203039657169484
    Total Energy =                       -438.8211928027374142
  Basis Set: (AUG-CC-PVTZ AUX)
    Blend: AUG-CC-PVTZ-RI
    Molecular point group: c1

    Geometry (in Angstrom), charge = 0, multiplicity = 1:

       Center              X                  Y                   Z               Mass
    ------------   -----------------  -----------------  -----------------  -----------------
         O            2.674366034952    -0.693686483133    -0.012910261548    15.994914619570
         N            0.615404034952    -1.677807483133     0.005890738452    14.003074004430
         C           -0.666697965048     0.738155516867    -0.010900261548    12.000000000000
         C            0.714349034952     0.709976516867     0.003244738452    12.000000000000
         C           -1.431081965048    -0.478998483133     0.001577738452    12.000000000000
         C            1.441035034952    -0.554426483133    -0.004725261548    12.000000000000
         C           -0.750275965048    -1.664009483133     0.006437738452    12.000000000000
         C           -1.418204965048     2.044487516867    -0.005111261548    12.000000000000
         C            1.572408034952     1.946138516867     0.011442738452    12.000000000000
         C           -2.935061965048    -0.473149483133    -0.002667261548    12.000000000000
         H           -1.240545965048    -2.633451483133     0.015632738452     1.007825032230
         H           -2.197283965048     2.050495516867    -0.773551261548     1.007825032230
         H           -0.758867965048     2.892800516867    -0.189098261548     1.007825032230
         H           -1.959737065048     2.220382716867     1.047095638452     1.007825032230
         H            1.121658034952    -2.559278483133     0.005258738452     1.007825032230
         H            1.455135034952     2.523706516867    -0.911630261548     1.007825032230
         H            2.617254034952     1.645427516867     0.096511738452     1.007825032230
         H            1.325173034952     2.602687516867     0.850984738452     1.007825032230
         H           -3.320589965048    -1.494773483133     0.062154738452     1.007825032230
         H           -3.338333965048    -0.023528483133    -0.916316261548     1.007825032230
         H           -3.339894965048     0.090123516867     0.844352738452     1.007825032230

  Basis Set: AUG-CC-PVTZ
    Blend: AUG-CC-PVTZ
  Basis Set: (AUG-CC-PVTZ AUX)
    Blend: AUG-CC-PVTZ-JKFIT
	 Reference Energy          =    -438.8211928027374142 [Eh]
	 Singles Energy            =      -0.0000000000000000 [Eh]
	 Same-Spin Energy          =      -0.4702073919707456 [Eh]
	 Opposite-Spin Energy      =      -1.4999211290499594 [Eh]
	 Correlation Energy        =      -1.9701285210207051 [Eh]
	 Total Energy              =    -440.7913213237580976 [Eh]

	 ================> DF-SCS-MP2 Energies <==================
	-----------------------------------------------------------
	 SCS Same-Spin Scale       =       0.3333333333333333 [-]
	 SCS Opposite-Spin Scale   =       1.2000000000000000 [-]
	 SCS Same-Spin Energy      =      -0.1567357973235818 [Eh]
	 SCS Opposite-Spin Energy  =      -1.7999053548599513 [Eh]
	 SCS Correlation Energy    =      -1.9566411521835332 [Eh]
	 SCS Total Energy          =    -440.7778339549209363 [Eh]
	-----------------------------------------------------------

  Dipole Moment: [D]
     X:    -4.4269      Y:    -0.3167      Z:     0.0078     Total:     4.4383

*** Psi4 exiting successfully. Buy a developer a beer!
