                               Psi4 1.4a3.dev225

  ==> Input File <==

--------------------------------------------------------------------------
#psi4
#
memory 32 gb

molecule  {
0 1
  O        2.7382740    -0.7425350    -0.0126020
  N        0.6793120    -1.7266560     0.0061990
  C       -0.6027900     0.6893070    -0.0105920
  C        0.7782570     0.6611280     0.0035530
  C       -1.3671740    -0.5278470     0.0018860
  C        1.5049430    -0.6032750    -0.0044170
  C       -0.6863680    -1.7128580     0.0067460
  C       -1.3542970     1.9956390    -0.0048030
  C        1.6363160     1.8972900     0.0117510
  C       -2.8711540    -0.5219980    -0.0023590
  H       -1.1766380    -2.6823000     0.0159410
  H       -2.1333760     2.0016470    -0.7732430
  H       -0.6949600     2.8439520    -0.1887900
  H       -1.8505650     2.1568320     0.9594550
  H        1.1855660    -2.6081270     0.0055670
  H        1.5190430     2.4748580    -0.9113220
  H        2.6811620     1.5965790     0.0968200
  H        1.3890810     2.5538390     0.8512930
  H       -3.2496331    -1.5249429     0.0612778
  H       -3.2744260    -0.0723770    -0.9160080
  H       -3.2759870     0.0412750     0.8446610
units angstrom
no_reorient  #important for SAPT in psi4, default
symmetry c1  #important for SAPT in psi4, default
}

set PROPERTIES_ORIGIN ["COM"]
properties('MP2/aug-cc-pvtz', properties = ['dipole'])
--------------------------------------------------------------------------

    Molecular point group: c1
  Charge       = 0
  Multiplicity = 1
  Basis Set: AUG-CC-PVTZ
    Blend: AUG-CC-PVTZ
  Basis Set: (AUG-CC-PVTZ AUX)
    Blend: AUG-CC-PVTZ-JKFIT

    Orbital Energies [Eh]
    ---------------------

    Doubly Occupied:

       1A    -20.500174     2A    -15.615701     3A    -11.344083
       4A    -11.296728     5A    -11.269130     6A    -11.242866
       7A    -11.238421     8A    -11.236883     9A    -11.234832
      10A    -11.212767    11A     -1.361711    12A     -1.263106
      13A     -1.131502    14A     -1.062349    15A     -0.991181
      16A     -0.950094    17A     -0.934008    18A     -0.830323
      19A     -0.810043    20A     -0.726152    21A     -0.705826
      22A     -0.645424    23A     -0.620602    24A     -0.598207
      25A     -0.586238    26A     -0.582306    27A     -0.572716
      28A     -0.570743    29A     -0.561470    30A     -0.550142
      31A     -0.534427    32A     -0.505752    33A     -0.499766
      34A     -0.468548    35A     -0.415641    36A     -0.387784
      37A     -0.295567

  @DF-RHF Final Energy:  -438.82774750868009

   => Energetics <=

    Nuclear Repulsion Energy =            522.9091468938241860
    One-Electron Energy =               -1632.7673617767957239
    Two-Electron Energy =                 671.0304673742913337
    Total Energy =                       -438.8277475086800905
  Basis Set: (AUG-CC-PVTZ AUX)
    Blend: AUG-CC-PVTZ-RI
    Molecular point group: c1

    Geometry (in Angstrom), charge = 0, multiplicity = 1:

       Center              X                  Y                   Z               Mass
    ------------   -----------------  -----------------  -----------------  -----------------
         O            2.673981436265    -0.693715720809    -0.012254958702    15.994914619570
         N            0.615019436265    -1.677836720809     0.006546041298    14.003074004430
         C           -0.667082563735     0.738126279191    -0.010244958702    12.000000000000
         C            0.713964436265     0.709947279191     0.003900041298    12.000000000000
         C           -1.431466563735    -0.479027720809     0.002233041298    12.000000000000
         C            1.440650436265    -0.554455720809    -0.004069958702    12.000000000000
         C           -0.750660563735    -1.664038720809     0.007093041298    12.000000000000
         C           -1.418589563735     2.044458279191    -0.004455958702    12.000000000000
         C            1.572023436265     1.946109279191     0.012098041298    12.000000000000
         C           -2.935446563735    -0.473178720809    -0.002011958702    12.000000000000
         H           -1.240930563735    -2.633480720809     0.016288041298     1.007825032230
         H           -2.197668563735     2.050466279191    -0.772895958702     1.007825032230
         H           -0.759252563735     2.892771279191    -0.188442958702     1.007825032230
         H           -1.914857563735     2.205651279191     0.959802041298     1.007825032230
         H            1.121273436265    -2.559307720809     0.005914041298     1.007825032230
         H            1.454750436265     2.523677279191    -0.910974958702     1.007825032230
         H            2.616869436265     1.645398279191     0.097167041298     1.007825032230
         H            1.324788436265     2.602658279191     0.851640041298     1.007825032230
         H           -3.313925663735    -1.476123620809     0.061624841298     1.007825032230
         H           -3.338718563735    -0.023557720809    -0.915660958702     1.007825032230
         H           -3.340279563735     0.090094279191     0.845008041298     1.007825032230

  Basis Set: AUG-CC-PVTZ
    Blend: AUG-CC-PVTZ
  Basis Set: (AUG-CC-PVTZ AUX)
    Blend: AUG-CC-PVTZ-JKFIT
	 Reference Energy          =    -438.8277475086800905 [Eh]
	 Singles Energy            =      -0.0000000000000000 [Eh]
	 Same-Spin Energy          =      -0.4701395046501624 [Eh]
	 Opposite-Spin Energy      =      -1.4990214690856472 [Eh]
	 Correlation Energy        =      -1.9691609737358096 [Eh]
	 Total Energy              =    -440.7969084824159154 [Eh]

	 ================> DF-SCS-MP2 Energies <==================
	-----------------------------------------------------------
	 SCS Same-Spin Scale       =       0.3333333333333333 [-]
	 SCS Opposite-Spin Scale   =       1.2000000000000000 [-]
	 SCS Same-Spin Energy      =      -0.1567131682167208 [Eh]
	 SCS Opposite-Spin Energy  =      -1.7988257629027766 [Eh]
	 SCS Correlation Energy    =      -1.9555389311194975 [Eh]
	 SCS Total Energy          =    -440.7832864397996104 [Eh]
	-----------------------------------------------------------

  Dipole Moment: [D]
     X:    -4.4715      Y:    -0.3023      Z:     0.0421     Total:     4.4819

*** Psi4 exiting successfully. Buy a developer a beer!
