                               Psi4 1.4a3.dev225

  ==> Input File <==

--------------------------------------------------------------------------
#psi4
#
memory 32 gb

molecule  {
0 1
  O        2.7382740    -0.7425350    -0.0126020
  N        0.6793120    -1.7266560     0.0061990
  C       -0.6027900     0.6893070    -0.0105920
  C        0.7782570     0.6611280     0.0035530
  C       -1.3671740    -0.5278470     0.0018860
  C        1.4753333    -0.6435630    -0.0040363
  C       -0.6863680    -1.7128580     0.0067460
  C       -1.3542970     1.9956390    -0.0048030
  C        1.6363160     1.8972900     0.0117510
  C       -2.8711540    -0.5219980    -0.0023590
  H       -1.1766380    -2.6823000     0.0159410
  H       -2.1333760     2.0016470    -0.7732430
  H       -0.6949600     2.8439520    -0.1887900
  H       -1.8505650     2.1568320     0.9594550
  H        1.1855660    -2.6081270     0.0055670
  H        1.5190430     2.4748580    -0.9113220
  H        2.6811620     1.5965790     0.0968200
  H        1.3890810     2.5538390     0.8512930
  H       -3.2566820    -1.5436220     0.0624630
  H       -3.2744260    -0.0723770    -0.9160080
  H       -3.2759870     0.0412750     0.8446610
units angstrom
no_reorient  #important for SAPT in psi4, default
symmetry c1  #important for SAPT in psi4, default
}

set PROPERTIES_ORIGIN ["COM"]
properties('MP2/aug-cc-pvtz', properties = ['dipole'])
--------------------------------------------------------------------------

    Molecular point group: c1
  Charge       = 0
  Multiplicity = 1
  Basis Set: AUG-CC-PVTZ
    Blend: AUG-CC-PVTZ
  Basis Set: (AUG-CC-PVTZ AUX)
    Blend: AUG-CC-PVTZ-JKFIT

    Orbital Energies [Eh]
    ---------------------

    Doubly Occupied:

       1A    -20.492934     2A    -15.621370     3A    -11.342180
       4A    -11.297095     5A    -11.266963     6A    -11.247589
       7A    -11.242505     8A    -11.239244     9A    -11.236510
      10A    -11.213359    11A     -1.354886    12A     -1.265573
      13A     -1.133814    14A     -1.062380    15A     -0.990371
      16A     -0.954787    17A     -0.936406    18A     -0.830012
      19A     -0.816979    20A     -0.731418    21A     -0.704658
      22A     -0.646137    23A     -0.623450    24A     -0.590072
      25A     -0.587777    26A     -0.585329    27A     -0.572695
      28A     -0.569622    29A     -0.562211    30A     -0.551649
      31A     -0.534193    32A     -0.502371    33A     -0.500117
      34A     -0.459350    35A     -0.410026    36A     -0.389982
      37A     -0.297365

  @DF-RHF Final Energy:  -438.82474600615262

   => Energetics <=

    Nuclear Repulsion Energy =            522.9371836281860624
    One-Electron Energy =               -1632.7971018349394399
    Two-Electron Energy =                 671.0351722006006412
    Total Energy =                       -438.8247460061526226
  Basis Set: (AUG-CC-PVTZ AUX)
    Blend: AUG-CC-PVTZ-RI
    Molecular point group: c1

    Geometry (in Angstrom), charge = 0, multiplicity = 1:

       Center              X                  Y                   Z               Mass
    ------------   -----------------  -----------------  -----------------  -----------------
         O            2.676625218827    -0.690051682481    -0.012296997682    15.994914619570
         N            0.617663218827    -1.674172682481     0.006504002318    14.003074004430
         C           -0.664438781173     0.741790317519    -0.010286997682    12.000000000000
         C            0.716608218827     0.713611317519     0.003858002318    12.000000000000
         C           -1.428822781173    -0.475363682481     0.002191002318    12.000000000000
         C            1.413684518827    -0.591079682481    -0.003731297682    12.000000000000
         C           -0.748016781173    -1.660374682481     0.007051002318    12.000000000000
         C           -1.415945781173     2.048122317519    -0.004497997682    12.000000000000
         C            1.574667218827     1.949773317519     0.012056002318    12.000000000000
         C           -2.932802781173    -0.469514682481    -0.002053997682    12.000000000000
         H           -1.238286781173    -2.629816682481     0.016246002318     1.007825032230
         H           -2.195024781173     2.054130317519    -0.772937997682     1.007825032230
         H           -0.756608781173     2.896435317519    -0.188484997682     1.007825032230
         H           -1.912213781173     2.209315317519     0.959760002318     1.007825032230
         H            1.123917218827    -2.555643682481     0.005872002318     1.007825032230
         H            1.457394218827     2.527341317519    -0.911016997682     1.007825032230
         H            2.619513218827     1.649062317519     0.097125002318     1.007825032230
         H            1.327432218827     2.606322317519     0.851598002318     1.007825032230
         H           -3.318330781173    -1.491138682481     0.062768002318     1.007825032230
         H           -3.336074781173    -0.019893682481    -0.915702997682     1.007825032230
         H           -3.337635781173     0.093758317519     0.844966002318     1.007825032230

  Basis Set: AUG-CC-PVTZ
    Blend: AUG-CC-PVTZ
  Basis Set: (AUG-CC-PVTZ AUX)
    Blend: AUG-CC-PVTZ-JKFIT
	 Reference Energy          =    -438.8247460061526226 [Eh]
	 Singles Energy            =      -0.0000000000000000 [Eh]
	 Same-Spin Energy          =      -0.4701127407769144 [Eh]
	 Opposite-Spin Energy      =      -1.4993600495294848 [Eh]
	 Correlation Energy        =      -1.9694727903063991 [Eh]
	 Total Energy              =    -440.7942187964590062 [Eh]

	 ================> DF-SCS-MP2 Energies <==================
	-----------------------------------------------------------
	 SCS Same-Spin Scale       =       0.3333333333333333 [-]
	 SCS Opposite-Spin Scale   =       1.2000000000000000 [-]
	 SCS Same-Spin Energy      =      -0.1567042469256381 [Eh]
	 SCS Opposite-Spin Energy  =      -1.7992320594353817 [Eh]
	 SCS Correlation Energy    =      -1.9559363063610198 [Eh]
	 SCS Total Energy          =    -440.7806823125136475 [Eh]
	-----------------------------------------------------------

  Dipole Moment: [D]
     X:    -4.7330      Y:    -0.3706      Z:     0.0445     Total:     4.7477

*** Psi4 exiting successfully. Buy a developer a beer!
