                               Psi4 1.4a3.dev225

  ==> Input File <==

--------------------------------------------------------------------------
#psi4
#
memory 32 gb

molecule  {
0 1
  O        2.7382740    -0.7425350    -0.0126020
  N        0.6793120    -1.7266560     0.0061990
  C       -0.6027900     0.6893070    -0.0105920
  C        0.7782570     0.6611280     0.0035530
  C       -1.3671740    -0.5278470     0.0018860
  C        1.5049430    -0.6032750    -0.0044170
  C       -0.6863680    -1.7128580     0.0067460
  C       -1.3542970     1.9956390    -0.0048030
  C        1.6363160     1.8972900     0.0117510
  C       -2.8711540    -0.5219980    -0.0023590
  H       -1.1766380    -2.6823000     0.0159410
  H       -1.9909879     2.0005489    -0.6327993
  H       -0.6949600     2.8439520    -0.1887900
  H       -1.8505650     2.1568320     0.9594550
  H        1.1855660    -2.6081270     0.0055670
  H        1.5190430     2.4748580    -0.9113220
  H        2.6811620     1.5965790     0.0968200
  H        1.3890810     2.5538390     0.8512930
  H       -3.2566820    -1.5436220     0.0624630
  H       -3.2744260    -0.0723770    -0.9160080
  H       -3.2759870     0.0412750     0.8446610
units angstrom
no_reorient  #important for SAPT in psi4, default
symmetry c1  #important for SAPT in psi4, default
}

set PROPERTIES_ORIGIN ["COM"]
properties('MP2/aug-cc-pvtz', properties = ['dipole'])
--------------------------------------------------------------------------

    Molecular point group: c1
  Charge       = 0
  Multiplicity = 1
  Basis Set: AUG-CC-PVTZ
    Blend: AUG-CC-PVTZ
  Basis Set: (AUG-CC-PVTZ AUX)
    Blend: AUG-CC-PVTZ-JKFIT

    Orbital Energies [Eh]
    ---------------------

    Doubly Occupied:

       1A    -20.499788     2A    -15.615506     3A    -11.343608
       4A    -11.296681     5A    -11.267932     6A    -11.242921
       7A    -11.237839     8A    -11.237657     9A    -11.212661
      10A    -11.212142    11A     -1.361362    12A     -1.262877
      13A     -1.133706    14A     -1.061894    15A     -1.008687
      16A     -0.949112    17A     -0.936549    18A     -0.837707
      19A     -0.810487    20A     -0.726183    21A     -0.706652
      22A     -0.647436    23A     -0.629772    24A     -0.604272
      25A     -0.592320    26A     -0.584297    27A     -0.576675
      28A     -0.569129    29A     -0.563716    30A     -0.551634
      31A     -0.537151    32A     -0.505671    33A     -0.498911
      34A     -0.468353    35A     -0.415290    36A     -0.388371
      37A     -0.295328

  @DF-RHF Final Energy:  -438.79399826589668

   => Energetics <=

    Nuclear Repulsion Energy =            523.8330350346021760
    One-Electron Energy =               -1634.4735128647928377
    Two-Electron Energy =                 671.8464795642940999
    Total Energy =                       -438.7939982658966755
  Basis Set: (AUG-CC-PVTZ AUX)
    Blend: AUG-CC-PVTZ-RI
    Molecular point group: c1

    Geometry (in Angstrom), charge = 0, multiplicity = 1:

       Center              X                  Y                   Z               Mass
    ------------   -----------------  -----------------  -----------------  -----------------
         O            2.672986439257    -0.693570321288    -0.013296196805    15.994914619570
         N            0.614024439257    -1.677691321288     0.005504803195    14.003074004430
         C           -0.668077560743     0.738271678712    -0.011286196805    12.000000000000
         C            0.712969439257     0.710092678712     0.002858803195    12.000000000000
         C           -1.432461560743    -0.478882321288     0.001191803195    12.000000000000
         C            1.439655439257    -0.554310321288    -0.005111196805    12.000000000000
         C           -0.751655560743    -1.663893321288     0.006051803195    12.000000000000
         C           -1.419584560743     2.044603678712    -0.005497196805    12.000000000000
         C            1.571028439257     1.946254678712     0.011056803195    12.000000000000
         C           -2.936441560743    -0.473033321288    -0.003053196805    12.000000000000
         H           -1.241925560743    -2.633335321288     0.015246803195     1.007825032230
         H           -2.056275460743     2.049513578712    -0.633493496805     1.007825032230
         H           -0.760247560743     2.892916678712    -0.189484196805     1.007825032230
         H           -1.915852560743     2.205796678712     0.958760803195     1.007825032230
         H            1.120278439257    -2.559162321288     0.004872803195     1.007825032230
         H            1.453755439257     2.523822678712    -0.912016196805     1.007825032230
         H            2.615874439257     1.645543678712     0.096125803195     1.007825032230
         H            1.323793439257     2.602803678712     0.850598803195     1.007825032230
         H           -3.321969560743    -1.494657321288     0.061768803195     1.007825032230
         H           -3.339713560743    -0.023412321288    -0.916702196805     1.007825032230
         H           -3.341274560743     0.090239678712     0.843966803195     1.007825032230

  Basis Set: AUG-CC-PVTZ
    Blend: AUG-CC-PVTZ
  Basis Set: (AUG-CC-PVTZ AUX)
    Blend: AUG-CC-PVTZ-JKFIT
	 Reference Energy          =    -438.7939982658966755 [Eh]
	 Singles Energy            =      -0.0000000000000000 [Eh]
	 Same-Spin Energy          =      -0.4701127587041123 [Eh]
	 Opposite-Spin Energy      =      -1.4984019744349424 [Eh]
	 Correlation Energy        =      -1.9685147331390547 [Eh]
	 Total Energy              =    -440.7625129990357209 [Eh]

	 ================> DF-SCS-MP2 Energies <==================
	-----------------------------------------------------------
	 SCS Same-Spin Scale       =       0.3333333333333333 [-]
	 SCS Opposite-Spin Scale   =       1.2000000000000000 [-]
	 SCS Same-Spin Energy      =      -0.1567042529013707 [Eh]
	 SCS Opposite-Spin Energy  =      -1.7980823693219308 [Eh]
	 SCS Correlation Energy    =      -1.9547866222233015 [Eh]
	 SCS Total Energy          =    -440.7487848881199852 [Eh]
	-----------------------------------------------------------

  Dipole Moment: [D]
     X:    -4.5164      Y:    -0.2725      Z:     0.0092     Total:     4.5246

*** Psi4 exiting successfully. Buy a developer a beer!
