                               Psi4 1.4a3.dev225

  ==> Input File <==

--------------------------------------------------------------------------
#psi4
#
memory 32 gb

molecule  {
0 1
  O        2.7382740    -0.7425350    -0.0126020
  N        0.6793120    -1.7266560     0.0061990
  C       -0.6027900     0.6893070    -0.0105920
  C        0.7782570     0.6611280     0.0035530
  C       -1.3671740    -0.5278470     0.0018860
  C        1.5049430    -0.6032750    -0.0044170
  C       -0.6863680    -1.7128580     0.0067460
  C       -1.3542970     1.9956390    -0.0048030
  C        1.6363160     1.8972900     0.0117510
  C       -2.8711540    -0.5219980    -0.0023590
  H       -1.1766380    -2.6823000     0.0159410
  H       -2.1333760     2.0016470    -0.7732430
  H       -0.6949600     2.8439520    -0.1887900
  H       -1.8505650     2.1568320     0.9594550
  H        1.1855660    -2.6081270     0.0055670
  H        1.5190430     2.4748580    -0.9113220
  H        2.6811620     1.5965790     0.0968200
  H        1.3890810     2.5538390     0.8512930
  H       -3.1861931    -1.3568311     0.0506111
  H       -3.2744260    -0.0723770    -0.9160080
  H       -3.2759870     0.0412750     0.8446610
units angstrom
no_reorient  #important for SAPT in psi4, default
symmetry c1  #important for SAPT in psi4, default
}

set PROPERTIES_ORIGIN ["COM"]
properties('MP2/aug-cc-pvtz', properties = ['dipole'])
--------------------------------------------------------------------------

    Molecular point group: c1
  Charge       = 0
  Multiplicity = 1
  Basis Set: AUG-CC-PVTZ
    Blend: AUG-CC-PVTZ
  Basis Set: (AUG-CC-PVTZ AUX)
    Blend: AUG-CC-PVTZ-JKFIT

    Orbital Energies [Eh]
    ---------------------

    Doubly Occupied:

       1A    -20.499866     2A    -15.615395     3A    -11.343756
       4A    -11.296427     5A    -11.268181     6A    -11.242007
       7A    -11.237927     8A    -11.236051     9A    -11.212629
      10A    -11.212358    11A     -1.361398    12A     -1.262819
      13A     -1.132032    14A     -1.067680    15A     -0.992194
      16A     -0.965398    17A     -0.933751    18A     -0.831000
      19A     -0.813581    20A     -0.725854    21A     -0.710189
      22A     -0.645657    23A     -0.620017    24A     -0.605438
      25A     -0.595451    26A     -0.584601    27A     -0.581310
      28A     -0.570108    29A     -0.560711    30A     -0.549639
      31A     -0.537132    32A     -0.505374    33A     -0.501030
      34A     -0.468255    35A     -0.415295    36A     -0.387082
      37A     -0.295282

  @DF-RHF Final Energy:  -438.79400933624254

   => Energetics <=

    Nuclear Repulsion Energy =            523.8470236204578896
    One-Electron Energy =               -1634.5163177981710305
    Two-Electron Energy =                 671.8752848414707159
    Total Energy =                       -438.7940093362425387
  Basis Set: (AUG-CC-PVTZ AUX)
    Blend: AUG-CC-PVTZ-RI
    Molecular point group: c1

    Geometry (in Angstrom), charge = 0, multiplicity = 1:

       Center              X                  Y                   Z               Mass
    ------------   -----------------  -----------------  -----------------  -----------------
         O            2.673515033255    -0.694951657907    -0.012176538447    15.994914619570
         N            0.614553033255    -1.679072657907     0.006624461553    14.003074004430
         C           -0.667548966745     0.736890342093    -0.010166538447    12.000000000000
         C            0.713498033255     0.708711342093     0.003978461553    12.000000000000
         C           -1.431932966745    -0.480263657907     0.002311461553    12.000000000000
         C            1.440184033255    -0.555691657907    -0.003991538447    12.000000000000
         C           -0.751126966745    -1.665274657907     0.007171461553    12.000000000000
         C           -1.419055966745     2.043222342093    -0.004377538447    12.000000000000
         C            1.571557033255     1.944873342093     0.012176461553    12.000000000000
         C           -2.935912966745    -0.474414657907    -0.001933538447    12.000000000000
         H           -1.241396966745    -2.634716657907     0.016366461553     1.007825032230
         H           -2.198134966745     2.049230342093    -0.772817538447     1.007825032230
         H           -0.759718966745     2.891535342093    -0.188364538447     1.007825032230
         H           -1.915323966745     2.204415342093     0.959880461553     1.007825032230
         H            1.120807033255    -2.560543657907     0.005992461553     1.007825032230
         H            1.454284033255     2.522441342093    -0.910896538447     1.007825032230
         H            2.616403033255     1.644162342093     0.097245461553     1.007825032230
         H            1.324322033255     2.601422342093     0.851718461553     1.007825032230
         H           -3.250952066745    -1.309247757907     0.051036561553     1.007825032230
         H           -3.339184966745    -0.024793657907    -0.915582538447     1.007825032230
         H           -3.340745966745     0.088858342093     0.845086461553     1.007825032230

  Basis Set: AUG-CC-PVTZ
    Blend: AUG-CC-PVTZ
  Basis Set: (AUG-CC-PVTZ AUX)
    Blend: AUG-CC-PVTZ-JKFIT
	 Reference Energy          =    -438.7940093362425387 [Eh]
	 Singles Energy            =      -0.0000000000000000 [Eh]
	 Same-Spin Energy          =      -0.4701440164997411 [Eh]
	 Opposite-Spin Energy      =      -1.4983384480676278 [Eh]
	 Correlation Energy        =      -1.9684824645673689 [Eh]
	 Total Energy              =    -440.7624918008099257 [Eh]

	 ================> DF-SCS-MP2 Energies <==================
	-----------------------------------------------------------
	 SCS Same-Spin Scale       =       0.3333333333333333 [-]
	 SCS Opposite-Spin Scale   =       1.2000000000000000 [-]
	 SCS Same-Spin Energy      =      -0.1567146721665804 [Eh]
	 SCS Opposite-Spin Energy  =      -1.7980061376811534 [Eh]
	 SCS Correlation Energy    =      -1.9547208098477338 [Eh]
	 SCS Total Energy          =    -440.7487301460902813 [Eh]
	-----------------------------------------------------------

  Dipole Moment: [D]
     X:    -4.5327      Y:    -0.3631      Z:     0.0445     Total:     4.5475

*** Psi4 exiting successfully. Buy a developer a beer!
