                               Psi4 1.4a3.dev225

  ==> Input File <==

--------------------------------------------------------------------------
#psi4
#
memory 32 gb

molecule  {
0 1
  O        2.7382740    -0.7425350    -0.0126020
  N        0.6793120    -1.7266560     0.0061990
  C       -0.6027900     0.6893070    -0.0105920
  C        0.7782570     0.6611280     0.0035530
  C       -1.3671740    -0.5278470     0.0018860
  C        1.5049430    -0.6032750    -0.0044170
  C       -0.6863680    -1.7128580     0.0067460
  C       -1.3542970     1.9956390    -0.0048030
  C        1.6363160     1.8972900     0.0117510
  C       -2.8711540    -0.5219980    -0.0023590
  H       -1.1766380    -2.6823000     0.0159410
  H       -2.1333760     2.0016470    -0.7732430
  H       -0.6949600     2.8439520    -0.1887900
  H       -1.8505650     2.1568320     0.9594550
  H        1.1855660    -2.6081270     0.0055670
  H        1.5190430     2.4748580    -0.9113220
  H        2.6811620     1.5965790     0.0968200
  H        1.3890810     2.5538390     0.8512930
  H       -3.2566820    -1.5436220     0.0624630
  H       -3.2670619    -0.0805875    -0.8993239
  H       -3.2759870     0.0412750     0.8446610
units angstrom
no_reorient  #important for SAPT in psi4, default
symmetry c1  #important for SAPT in psi4, default
}

set PROPERTIES_ORIGIN ["COM"]
properties('MP2/aug-cc-pvtz', properties = ['dipole'])
--------------------------------------------------------------------------

    Molecular point group: c1
  Charge       = 0
  Multiplicity = 1
  Basis Set: AUG-CC-PVTZ
    Blend: AUG-CC-PVTZ
  Basis Set: (AUG-CC-PVTZ AUX)
    Blend: AUG-CC-PVTZ-JKFIT

    Orbital Energies [Eh]
    ---------------------

    Doubly Occupied:

       1A    -20.500142     2A    -15.615643     3A    -11.344058
       4A    -11.296618     5A    -11.269222     6A    -11.242818
       7A    -11.238446     8A    -11.237067     9A    -11.234834
      10A    -11.212802    11A     -1.361680    12A     -1.263054
      13A     -1.131563    14A     -1.062244    15A     -0.991215
      16A     -0.950251    17A     -0.934012    18A     -0.830264
      19A     -0.810012    20A     -0.726309    21A     -0.705463
      22A     -0.645381    23A     -0.621256    24A     -0.598118
      25A     -0.586629    26A     -0.583245    27A     -0.572266
      28A     -0.569571    29A     -0.561532    30A     -0.550626
      31A     -0.534246    32A     -0.505794    33A     -0.499415
      34A     -0.468643    35A     -0.415623    36A     -0.387907
      37A     -0.295586

  @DF-RHF Final Energy:  -438.82771623160488

   => Energetics <=

    Nuclear Repulsion Energy =            522.9065016898312024
    One-Electron Energy =               -1632.7613253929748680
    Two-Electron Energy =                 671.0271074715387840
    Total Energy =                       -438.8277162316048816
  Basis Set: (AUG-CC-PVTZ AUX)
    Blend: AUG-CC-PVTZ-RI
    Molecular point group: c1

    Geometry (in Angstrom), charge = 0, multiplicity = 1:

       Center              X                  Y                   Z               Mass
    ------------   -----------------  -----------------  -----------------  -----------------
         O            2.673979118954    -0.693518031806    -0.012386331579    15.994914619570
         N            0.615017118954    -1.677639031806     0.006414668421    14.003074004430
         C           -0.667084881046     0.738323968194    -0.010376331579    12.000000000000
         C            0.713962118954     0.710144968194     0.003768668421    12.000000000000
         C           -1.431468881046    -0.478830031806     0.002101668421    12.000000000000
         C            1.440648118954    -0.554258031806    -0.004201331579    12.000000000000
         C           -0.750662881046    -1.663841031806     0.006961668421    12.000000000000
         C           -1.418591881046     2.044655968194    -0.004587331579    12.000000000000
         C            1.572021118954     1.946306968194     0.011966668421    12.000000000000
         C           -2.935448881046    -0.472981031806    -0.002143331579    12.000000000000
         H           -1.240932881046    -2.633283031806     0.016156668421     1.007825032230
         H           -2.197670881046     2.050663968194    -0.773027331579     1.007825032230
         H           -0.759254881046     2.892968968194    -0.188574331579     1.007825032230
         H           -1.914859881046     2.205848968194     0.959670668421     1.007825032230
         H            1.121271118954    -2.559110031806     0.005782668421     1.007825032230
         H            1.454748118954     2.523874968194    -0.911106331579     1.007825032230
         H            2.616867118954     1.645595968194     0.097035668421     1.007825032230
         H            1.324786118954     2.602855968194     0.851508668421     1.007825032230
         H           -3.320976881046    -1.494605031806     0.062678668421     1.007825032230
         H           -3.331356781046    -0.031570531806    -0.899108231579     1.007825032230
         H           -3.340281881046     0.090291968194     0.844876668421     1.007825032230

  Basis Set: AUG-CC-PVTZ
    Blend: AUG-CC-PVTZ
  Basis Set: (AUG-CC-PVTZ AUX)
    Blend: AUG-CC-PVTZ-JKFIT
	 Reference Energy          =    -438.8277162316048816 [Eh]
	 Singles Energy            =      -0.0000000000000000 [Eh]
	 Same-Spin Energy          =      -0.4701479986198102 [Eh]
	 Opposite-Spin Energy      =      -1.4990475288094600 [Eh]
	 Correlation Energy        =      -1.9691955274292703 [Eh]
	 Total Energy              =    -440.7969117590341739 [Eh]

	 ================> DF-SCS-MP2 Energies <==================
	-----------------------------------------------------------
	 SCS Same-Spin Scale       =       0.3333333333333333 [-]
	 SCS Opposite-Spin Scale   =       1.2000000000000000 [-]
	 SCS Same-Spin Energy      =      -0.1567159995399367 [Eh]
	 SCS Opposite-Spin Energy  =      -1.7988570345713519 [Eh]
	 SCS Correlation Energy    =      -1.9555730341112887 [Eh]
	 SCS Total Energy          =    -440.7832892657161779 [Eh]
	-----------------------------------------------------------

  Dipole Moment: [D]
     X:    -4.4725      Y:    -0.2890      Z:     0.0355     Total:     4.4820

*** Psi4 exiting successfully. Buy a developer a beer!
