                               Psi4 1.4a3.dev225

  ==> Input File <==

--------------------------------------------------------------------------
#psi4
#
memory 32 gb

molecule  {
0 1
  O        2.7382740    -0.7425350    -0.0126020
  N        0.6793120    -1.7266560     0.0061990
  C       -0.6027900     0.6893070    -0.0105920
  C        0.7782570     0.6611280     0.0035530
  C       -1.3671740    -0.5278470     0.0018860
  C        1.5049430    -0.6032750    -0.0044170
  C       -0.6863680    -1.7128580     0.0067460
  C       -1.3542970     1.9956390    -0.0048030
  C        1.6363160     1.8972900     0.0117510
  C       -2.8711540    -0.5219980    -0.0023590
  H       -1.1766380    -2.6823000     0.0159410
  H       -2.1333760     2.0016470    -0.7732430
  H       -0.6949600     2.8439520    -0.1887900
  H       -1.8505650     2.1568320     0.9594550
  H        1.1855660    -2.6081270     0.0055670
  H        1.5190430     2.4748580    -0.9113220
  H        2.6811620     1.5965790     0.0968200
  H        1.3890810     2.5538390     0.8512930
  H       -3.2919264    -1.6370175     0.0683889
  H       -3.2744260    -0.0723770    -0.9160080
  H       -3.2759870     0.0412750     0.8446610
units angstrom
no_reorient  #important for SAPT in psi4, default
symmetry c1  #important for SAPT in psi4, default
}

set PROPERTIES_ORIGIN ["COM"]
properties('MP2/aug-cc-pvtz', properties = ['dipole'])
--------------------------------------------------------------------------

    Molecular point group: c1
  Charge       = 0
  Multiplicity = 1
  Basis Set: AUG-CC-PVTZ
    Blend: AUG-CC-PVTZ
  Basis Set: (AUG-CC-PVTZ AUX)
    Blend: AUG-CC-PVTZ-JKFIT

    Orbital Energies [Eh]
    ---------------------

    Doubly Occupied:

       1A    -20.500524     2A    -15.616068     3A    -11.344450
       4A    -11.297142     5A    -11.270069     6A    -11.249130
       7A    -11.243740     8A    -11.238931     9A    -11.237689
      10A    -11.213186    11A     -1.362064    12A     -1.263468
      13A     -1.131841    14A     -1.060895    15A     -0.991414
      16A     -0.943905    17A     -0.934184    18A     -0.830373
      19A     -0.808493    20A     -0.726493    21A     -0.704216
      22A     -0.645639    23A     -0.621417    24A     -0.598318
      25A     -0.587048    26A     -0.583137    27A     -0.572157
      28A     -0.562470    29A     -0.557500    30A     -0.550568
      31A     -0.528856    32A     -0.506147    33A     -0.496998
      34A     -0.468910    35A     -0.416015    36A     -0.388512
      37A     -0.295935

  @DF-RHF Final Energy:  -438.82099687790361

   => Energetics <=

    Nuclear Repulsion Energy =            522.3917177927756939
    One-Electron Energy =               -1631.7296276896315703
    Two-Electron Energy =                 670.5169130189520956
    Total Energy =                       -438.8209968779036672
  Basis Set: (AUG-CC-PVTZ AUX)
    Blend: AUG-CC-PVTZ-RI
    Molecular point group: c1

    Geometry (in Angstrom), charge = 0, multiplicity = 1:

       Center              X                  Y                   Z               Mass
    ------------   -----------------  -----------------  -----------------  -----------------
         O            2.674292371360    -0.692891762253    -0.012307238627    15.994914619570
         N            0.615330371360    -1.677012762253     0.006493761373    14.003074004430
         C           -0.666771628640     0.738950237747    -0.010297238627    12.000000000000
         C            0.714275371360     0.710771237747     0.003847761373    12.000000000000
         C           -1.431155628640    -0.478203762253     0.002180761373    12.000000000000
         C            1.440961371360    -0.553631762253    -0.004122238627    12.000000000000
         C           -0.750349628640    -1.663214762253     0.007040761373    12.000000000000
         C           -1.418278628640     2.045282237747    -0.004508238627    12.000000000000
         C            1.572334371360     1.946933237747     0.012045761373    12.000000000000
         C           -2.935135628640    -0.472354762253    -0.002064238627    12.000000000000
         H           -1.240619628640    -2.632656762253     0.016235761373     1.007825032230
         H           -2.197357628640     2.051290237747    -0.772948238627     1.007825032230
         H           -0.758941628640     2.893595237747    -0.188495238627     1.007825032230
         H           -1.914546628640     2.206475237747     0.959749761373     1.007825032230
         H            1.121584371360    -2.558483762253     0.005861761373     1.007825032230
         H            1.455061371360     2.524501237747    -0.911027238627     1.007825032230
         H            2.617180371360     1.646222237747     0.097114761373     1.007825032230
         H            1.325099371360     2.603482237747     0.851587761373     1.007825032230
         H           -3.355908028640    -1.587374262253     0.068683661373     1.007825032230
         H           -3.338407628640    -0.022733762253    -0.915713238627     1.007825032230
         H           -3.339968628640     0.090918237747     0.844955761373     1.007825032230

  Basis Set: AUG-CC-PVTZ
    Blend: AUG-CC-PVTZ
  Basis Set: (AUG-CC-PVTZ AUX)
    Blend: AUG-CC-PVTZ-JKFIT
	 Reference Energy          =    -438.8209968779036103 [Eh]
	 Singles Energy            =      -0.0000000000000000 [Eh]
	 Same-Spin Energy          =      -0.4702110254135596 [Eh]
	 Opposite-Spin Energy      =      -1.4999969476843040 [Eh]
	 Correlation Energy        =      -1.9702079730978637 [Eh]
	 Total Energy              =    -440.7912048510014529 [Eh]

	 ================> DF-SCS-MP2 Energies <==================
	-----------------------------------------------------------
	 SCS Same-Spin Scale       =       0.3333333333333333 [-]
	 SCS Opposite-Spin Scale   =       1.2000000000000000 [-]
	 SCS Same-Spin Energy      =      -0.1567370084711865 [Eh]
	 SCS Opposite-Spin Energy  =      -1.7999963372211647 [Eh]
	 SCS Correlation Energy    =      -1.9567333456923512 [Eh]
	 SCS Total Energy          =    -440.7777302235959382 [Eh]
	-----------------------------------------------------------

  Dipole Moment: [D]
     X:    -4.4125      Y:    -0.2396      Z:     0.0393     Total:     4.4192

*** Psi4 exiting successfully. Buy a developer a beer!
