                               Psi4 1.4a3.dev225

  ==> Input File <==

--------------------------------------------------------------------------
#psi4
#
memory 32 gb

molecule  {
0 1
  O        2.7382740    -0.7425350    -0.0126020
  N        0.6793120    -1.7266560     0.0061990
  C       -0.6027900     0.6893070    -0.0105920
  C        0.7782570     0.6611280     0.0035530
  C       -1.3671740    -0.5278470     0.0018860
  C        1.5049430    -0.6032750    -0.0044170
  C       -0.6863680    -1.7128580     0.0067460
  C       -1.3542970     1.9956390    -0.0048030
  C        1.6363160     1.8972900     0.0117510
  C       -2.8711540    -0.5219980    -0.0023590
  H       -1.1766380    -2.6823000     0.0159410
  H       -2.1333760     2.0016470    -0.7732430
  H       -0.8159336     2.6883055    -0.1550325
  H       -1.8505650     2.1568320     0.9594550
  H        1.1855660    -2.6081270     0.0055670
  H        1.5190430     2.4748580    -0.9113220
  H        2.6811620     1.5965790     0.0968200
  H        1.3890810     2.5538390     0.8512930
  H       -3.2566820    -1.5436220     0.0624630
  H       -3.2744260    -0.0723770    -0.9160080
  H       -3.2759870     0.0412750     0.8446610
units angstrom
no_reorient  #important for SAPT in psi4, default
symmetry c1  #important for SAPT in psi4, default
}

set PROPERTIES_ORIGIN ["COM"]
properties('MP2/aug-cc-pvtz', properties = ['dipole'])
--------------------------------------------------------------------------

    Molecular point group: c1
  Charge       = 0
  Multiplicity = 1
  Basis Set: AUG-CC-PVTZ
    Blend: AUG-CC-PVTZ
  Basis Set: (AUG-CC-PVTZ AUX)
    Blend: AUG-CC-PVTZ-JKFIT

    Orbital Energies [Eh]
    ---------------------

    Doubly Occupied:

       1A    -20.500018     2A    -15.615340     3A    -11.343895
       4A    -11.296146     5A    -11.268238     6A    -11.242036
       7A    -11.238156     8A    -11.236526     9A    -11.213743
      10A    -11.213272    11A     -1.361521    12A     -1.262770
      13A     -1.133596    14A     -1.062406    15A     -1.007589
      16A     -0.948182    17A     -0.937820    18A     -0.838582
      19A     -0.809503    20A     -0.726984    21A     -0.707504
      22A     -0.653415    23A     -0.620532    24A     -0.603176
      25A     -0.585786    26A     -0.584128    27A     -0.580724
      28A     -0.570074    29A     -0.568252    30A     -0.550202
      31A     -0.538054    32A     -0.506125    33A     -0.502299
      34A     -0.468292    35A     -0.415426    36A     -0.387403
      37A     -0.295302

  @DF-RHF Final Energy:  -438.79339207440694

   => Energetics <=

    Nuclear Repulsion Energy =            523.7908119242895282
    One-Electron Energy =               -1634.3823748855656959
    Two-Electron Energy =                 671.7981708868692294
    Total Energy =                       -438.7933920744069383
  Basis Set: (AUG-CC-PVTZ AUX)
    Blend: AUG-CC-PVTZ-RI
    Molecular point group: c1

    Geometry (in Angstrom), charge = 0, multiplicity = 1:

       Center              X                  Y                   Z               Mass
    ------------   -----------------  -----------------  -----------------  -----------------
         O            2.674922641803    -0.692434100624    -0.012511853098    15.994914619570
         N            0.615960641803    -1.676555100624     0.006289146902    14.003074004430
         C           -0.666141358197     0.739407899376    -0.010501853098    12.000000000000
         C            0.714905641803     0.711228899376     0.003643146902    12.000000000000
         C           -1.430525358197    -0.477746100624     0.001976146902    12.000000000000
         C            1.441591641803    -0.553174100624    -0.004326853098    12.000000000000
         C           -0.749719358197    -1.662757100624     0.006836146902    12.000000000000
         C           -1.417648358197     2.045739899376    -0.004712853098    12.000000000000
         C            1.572964641803     1.947390899376     0.011841146902    12.000000000000
         C           -2.934505358197    -0.471897100624    -0.002268853098    12.000000000000
         H           -1.239989358197    -2.632199100624     0.016031146902     1.007825032230
         H           -2.196727358197     2.051747899376    -0.773152853098     1.007825032230
         H           -0.879284958197     2.738406399376    -0.154942353098     1.007825032230
         H           -1.913916358197     2.206932899376     0.959545146902     1.007825032230
         H            1.122214641803    -2.558026100624     0.005657146902     1.007825032230
         H            1.455691641803     2.524958899376    -0.911231853098     1.007825032230
         H            2.617810641803     1.646679899376     0.096910146902     1.007825032230
         H            1.325729641803     2.603939899376     0.851383146902     1.007825032230
         H           -3.320033358197    -1.493521100624     0.062553146902     1.007825032230
         H           -3.337777358197    -0.022276100624    -0.915917853098     1.007825032230
         H           -3.339338358197     0.091375899376     0.844751146902     1.007825032230

  Basis Set: AUG-CC-PVTZ
    Blend: AUG-CC-PVTZ
  Basis Set: (AUG-CC-PVTZ AUX)
    Blend: AUG-CC-PVTZ-JKFIT
	 Reference Energy          =    -438.7933920744069383 [Eh]
	 Singles Energy            =      -0.0000000000000000 [Eh]
	 Same-Spin Energy          =      -0.4699301383442345 [Eh]
	 Opposite-Spin Energy      =      -1.4980733222094551 [Eh]
	 Correlation Energy        =      -1.9680034605536896 [Eh]
	 Total Energy              =    -440.7613955349606272 [Eh]

	 ================> DF-SCS-MP2 Energies <==================
	-----------------------------------------------------------
	 SCS Same-Spin Scale       =       0.3333333333333333 [-]
	 SCS Opposite-Spin Scale   =       1.2000000000000000 [-]
	 SCS Same-Spin Energy      =      -0.1566433794480782 [Eh]
	 SCS Opposite-Spin Energy  =      -1.7976879866513460 [Eh]
	 SCS Correlation Energy    =      -1.9543313660994241 [Eh]
	 SCS Total Energy          =    -440.7477234405063768 [Eh]
	-----------------------------------------------------------

  Dipole Moment: [D]
     X:    -4.4611      Y:    -0.2248      Z:     0.0336     Total:     4.4669

*** Psi4 exiting successfully. Buy a developer a beer!
