                               Psi4 1.4a3.dev225

  ==> Input File <==

--------------------------------------------------------------------------
#psi4
#
memory 32 gb

molecule  {
0 1
  O        2.7382740    -0.7425350    -0.0126020
  N        0.6793120    -1.7266560     0.0061990
  C       -0.6027900     0.6893070    -0.0105920
  C        0.7782570     0.6611280     0.0035530
  C       -1.3671740    -0.5278470     0.0018860
  C        1.5049430    -0.6032750    -0.0044170
  C       -0.6863680    -1.7128580     0.0067460
  C       -1.3542970     1.9956390    -0.0048030
  C        1.6078053     1.8562161     0.0114786
  C       -2.8711540    -0.5219980    -0.0023590
  H       -1.1766380    -2.6823000     0.0159410
  H       -2.1333760     2.0016470    -0.7732430
  H       -0.6949600     2.8439520    -0.1887900
  H       -1.8505650     2.1568320     0.9594550
  H        1.1855660    -2.6081270     0.0055670
  H        1.5190430     2.4748580    -0.9113220
  H        2.6811620     1.5965790     0.0968200
  H        1.3890810     2.5538390     0.8512930
  H       -3.2566820    -1.5436220     0.0624630
  H       -3.2744260    -0.0723770    -0.9160080
  H       -3.2759870     0.0412750     0.8446610
units angstrom
no_reorient  #important for SAPT in psi4, default
symmetry c1  #important for SAPT in psi4, default
}

set PROPERTIES_ORIGIN ["COM"]
properties('MP2/aug-cc-pvtz', properties = ['dipole'])
--------------------------------------------------------------------------

    Molecular point group: c1
  Charge       = 0
  Multiplicity = 1
  Basis Set: AUG-CC-PVTZ
    Blend: AUG-CC-PVTZ
  Basis Set: (AUG-CC-PVTZ AUX)
    Blend: AUG-CC-PVTZ-JKFIT

    Orbital Energies [Eh]
    ---------------------

    Doubly Occupied:

       1A    -20.500484     2A    -15.615964     3A    -11.344223
       4A    -11.297038     5A    -11.269486     6A    -11.243190
       7A    -11.237380     8A    -11.236992     9A    -11.236248
      10A    -11.214103    11A     -1.362122    12A     -1.263377
      13A     -1.133705    14A     -1.065851    15A     -0.993379
      16A     -0.949028    17A     -0.933102    18A     -0.830334
      19A     -0.808641    20A     -0.726704    21A     -0.707099
      22A     -0.646324    23A     -0.621083    24A     -0.598693
      25A     -0.590914    26A     -0.582450    27A     -0.571915
      28A     -0.570504    29A     -0.563228    30A     -0.544162
      31A     -0.531914    32A     -0.505831    33A     -0.497683
      34A     -0.468570    35A     -0.416428    36A     -0.386590
      37A     -0.295001

  @DF-RHF Final Energy:  -438.82426170558909

   => Energetics <=

    Nuclear Repulsion Energy =            523.7774637452212119
    One-Electron Energy =               -1634.4839667276585260
    Two-Electron Energy =                 671.8822412768481627
    Total Energy =                       -438.8242617055891515
  Basis Set: (AUG-CC-PVTZ AUX)
    Blend: AUG-CC-PVTZ-RI
    Molecular point group: c1

    Geometry (in Angstrom), charge = 0, multiplicity = 1:

       Center              X                  Y                   Z               Mass
    ------------   -----------------  -----------------  -----------------  -----------------
         O            2.676529015085    -0.689982886738    -0.012239826923    15.994914619570
         N            0.617567015085    -1.674103886738     0.006561173077    14.003074004430
         C           -0.664534984915     0.741859113262    -0.010229826923    12.000000000000
         C            0.716512015085     0.713680113262     0.003915173077    12.000000000000
         C           -1.428918984915    -0.475294886738     0.002248173077    12.000000000000
         C            1.443198015085    -0.550722886738    -0.004054826923    12.000000000000
         C           -0.748112984915    -1.660305886738     0.007108173077    12.000000000000
         C           -1.416041984915     2.048191113262    -0.004440826923    12.000000000000
         C            1.546060315085     1.908768213262     0.011840773077    12.000000000000
         C           -2.932898984915    -0.469445886738    -0.001996826923    12.000000000000
         H           -1.238382984915    -2.629747886738     0.016303173077     1.007825032230
         H           -2.195120984915     2.054199113262    -0.772880826923     1.007825032230
         H           -0.756704984915     2.896504113262    -0.188427826923     1.007825032230
         H           -1.912309984915     2.209384113262     0.959817173077     1.007825032230
         H            1.123821015085    -2.555574886738     0.005929173077     1.007825032230
         H            1.457298015085     2.527410113262    -0.910959826923     1.007825032230
         H            2.619417015085     1.649131113262     0.097182173077     1.007825032230
         H            1.327336015085     2.606391113262     0.851655173077     1.007825032230
         H           -3.318426984915    -1.491069886738     0.062825173077     1.007825032230
         H           -3.336170984915    -0.019824886738    -0.915645826923     1.007825032230
         H           -3.337731984915     0.093827113262     0.845023173077     1.007825032230

  Basis Set: AUG-CC-PVTZ
    Blend: AUG-CC-PVTZ
  Basis Set: (AUG-CC-PVTZ AUX)
    Blend: AUG-CC-PVTZ-JKFIT
	 Reference Energy          =    -438.8242617055890946 [Eh]
	 Singles Energy            =      -0.0000000000000000 [Eh]
	 Same-Spin Energy          =      -0.4708035234586576 [Eh]
	 Opposite-Spin Energy      =      -1.4997966821105169 [Eh]
	 Correlation Energy        =      -1.9706002055691745 [Eh]
	 Total Energy              =    -440.7948619111582502 [Eh]

	 ================> DF-SCS-MP2 Energies <==================
	-----------------------------------------------------------
	 SCS Same-Spin Scale       =       0.3333333333333333 [-]
	 SCS Opposite-Spin Scale   =       1.2000000000000000 [-]
	 SCS Same-Spin Energy      =      -0.1569345078195525 [Eh]
	 SCS Opposite-Spin Energy  =      -1.7997560185326202 [Eh]
	 SCS Correlation Energy    =      -1.9566905263521728 [Eh]
	 SCS Total Energy          =    -440.7809522319412849 [Eh]
	-----------------------------------------------------------

  Dipole Moment: [D]
     X:    -4.4459      Y:    -0.2903      Z:     0.0414     Total:     4.4555

*** Psi4 exiting successfully. Buy a developer a beer!
