                               Psi4 1.4a3.dev225

  ==> Input File <==

--------------------------------------------------------------------------
#psi4
#
memory 32 gb

molecule  {
0 1
  O        2.7382740    -0.7425350    -0.0126020
  N        0.6793120    -1.7266560     0.0061990
  C       -0.6027900     0.6893070    -0.0105920
  C        0.7782570     0.6611280     0.0035530
  C       -1.3778102    -0.5447834     0.0020596
  C        1.5049430    -0.6032750    -0.0044170
  C       -0.6863680    -1.7128580     0.0067460
  C       -1.3542970     1.9956390    -0.0048030
  C        1.6363160     1.8972900     0.0117510
  C       -2.8711540    -0.5219980    -0.0023590
  H       -1.1766380    -2.6823000     0.0159410
  H       -2.1333760     2.0016470    -0.7732430
  H       -0.6949600     2.8439520    -0.1887900
  H       -1.8505650     2.1568320     0.9594550
  H        1.1855660    -2.6081270     0.0055670
  H        1.5190430     2.4748580    -0.9113220
  H        2.6811620     1.5965790     0.0968200
  H        1.3890810     2.5538390     0.8512930
  H       -3.2566820    -1.5436220     0.0624630
  H       -3.2744260    -0.0723770    -0.9160080
  H       -3.2759870     0.0412750     0.8446610
units angstrom
no_reorient  #important for SAPT in psi4, default
symmetry c1  #important for SAPT in psi4, default
}

set PROPERTIES_ORIGIN ["COM"]
properties('MP2/aug-cc-pvtz', properties = ['dipole'])
--------------------------------------------------------------------------

    Molecular point group: c1
  Charge       = 0
  Multiplicity = 1
  Basis Set: AUG-CC-PVTZ
    Blend: AUG-CC-PVTZ
  Basis Set: (AUG-CC-PVTZ AUX)
    Blend: AUG-CC-PVTZ-JKFIT

    Orbital Energies [Eh]
    ---------------------

    Doubly Occupied:

       1A    -20.501207     2A    -15.614511     3A    -11.344676
       4A    -11.294573     5A    -11.270824     6A    -11.242856
       7A    -11.238839     8A    -11.237184     9A    -11.236857
      10A    -11.213056    11A     -1.362122    12A     -1.262711
      13A     -1.129857    14A     -1.063909    15A     -0.991515
      16A     -0.950092    17A     -0.933168    18A     -0.828388
      19A     -0.809483    20A     -0.726611    21A     -0.704599
      22A     -0.644493    23A     -0.620639    24A     -0.598435
      25A     -0.586633    26A     -0.582570    27A     -0.572117
      28A     -0.569486    29A     -0.562781    30A     -0.550418
      31A     -0.535254    32A     -0.507350    33A     -0.496470
      34A     -0.468824    35A     -0.416077    36A     -0.385956
      37A     -0.297768

  @DF-RHF Final Energy:  -438.82805871220279

   => Energetics <=

    Nuclear Repulsion Energy =            522.6552897063908176
    One-Electron Energy =               -1632.2620729746308825
    Two-Electron Energy =                 670.7787245560374458
    Total Energy =                       -438.8280587122027327
  Basis Set: (AUG-CC-PVTZ AUX)
    Blend: AUG-CC-PVTZ-RI
    Molecular point group: c1

    Geometry (in Angstrom), charge = 0, multiplicity = 1:

       Center              X                  Y                   Z               Mass
    ------------   -----------------  -----------------  -----------------  -----------------
         O            2.674964325552    -0.692095823805    -0.012278868660    15.994914619570
         N            0.616002325552    -1.676216823805     0.006522131340    14.003074004430
         C           -0.666099674448     0.739746176195    -0.010268868660    12.000000000000
         C            0.714947325552     0.711567176195     0.003876131340    12.000000000000
         C           -1.441119874448    -0.494344223805     0.002382731340    12.000000000000
         C            1.441633325552    -0.552835823805    -0.004093868660    12.000000000000
         C           -0.749677674448    -1.662418823805     0.007069131340    12.000000000000
         C           -1.417606674448     2.046078176195    -0.004479868660    12.000000000000
         C            1.573006325552     1.947729176195     0.012074131340    12.000000000000
         C           -2.934463674448    -0.471558823805    -0.002035868660    12.000000000000
         H           -1.239947674448    -2.631860823805     0.016264131340     1.007825032230
         H           -2.196685674448     2.052086176195    -0.772919868660     1.007825032230
         H           -0.758269674448     2.894391176195    -0.188466868660     1.007825032230
         H           -1.913874674448     2.207271176195     0.959778131340     1.007825032230
         H            1.122256325552    -2.557687823805     0.005890131340     1.007825032230
         H            1.455733325552     2.525297176195    -0.910998868660     1.007825032230
         H            2.617852325552     1.647018176195     0.097143131340     1.007825032230
         H            1.325771325552     2.604278176195     0.851616131340     1.007825032230
         H           -3.319991674448    -1.493182823805     0.062786131340     1.007825032230
         H           -3.337735674448    -0.021937823805    -0.915684868660     1.007825032230
         H           -3.339296674448     0.091714176195     0.844984131340     1.007825032230

  Basis Set: AUG-CC-PVTZ
    Blend: AUG-CC-PVTZ
  Basis Set: (AUG-CC-PVTZ AUX)
    Blend: AUG-CC-PVTZ-JKFIT
	 Reference Energy          =    -438.8280587122027896 [Eh]
	 Singles Energy            =      -0.0000000000000000 [Eh]
	 Same-Spin Energy          =      -0.4697007309138855 [Eh]
	 Opposite-Spin Energy      =      -1.4987240353421758 [Eh]
	 Correlation Energy        =      -1.9684247662560614 [Eh]
	 Total Energy              =    -440.7964834784588675 [Eh]

	 ================> DF-SCS-MP2 Energies <==================
	-----------------------------------------------------------
	 SCS Same-Spin Scale       =       0.3333333333333333 [-]
	 SCS Opposite-Spin Scale   =       1.2000000000000000 [-]
	 SCS Same-Spin Energy      =      -0.1565669103046285 [Eh]
	 SCS Opposite-Spin Energy  =      -1.7984688424106110 [Eh]
	 SCS Correlation Energy    =      -1.9550357527152395 [Eh]
	 SCS Total Energy          =    -440.7830944649180083 [Eh]
	-----------------------------------------------------------

  Dipole Moment: [D]
     X:    -4.4420      Y:    -0.2643      Z:     0.0414     Total:     4.4501

*** Psi4 exiting successfully. Buy a developer a beer!
