                               Psi4 1.4a3.dev225

  ==> Input File <==

--------------------------------------------------------------------------
#psi4
#
memory 32 gb

molecule  {
0 1
  O        2.7382740    -0.7425350    -0.0126020
  N        0.6793120    -1.7266560     0.0061990
  C       -0.6027900     0.6893070    -0.0105920
  C        0.7782570     0.6611280     0.0035530
  C       -1.3671740    -0.5278470     0.0018860
  C        1.5049430    -0.6032750    -0.0044170
  C       -0.6863680    -1.7128580     0.0067460
  C       -1.3542970     1.9956390    -0.0048030
  C        1.6363160     1.8972900     0.0117510
  C       -2.8711540    -0.5219980    -0.0023590
  H       -1.1766380    -2.6823000     0.0159410
  H       -2.1333760     2.0016470    -0.7732430
  H       -0.6949600     2.8439520    -0.1887900
  H       -1.8505650     2.1568320     0.9594550
  H        1.1855660    -2.6081270     0.0055670
  H        1.5190430     2.4748580    -0.9113220
  H        2.6811620     1.5965790     0.0968200
  H        1.3890810     2.5538390     0.8512930
  H       -3.2566820    -1.5436220     0.0624630
  H       -3.2817901    -0.0641665    -0.9326921
  H       -3.2759870     0.0412750     0.8446610
units angstrom
no_reorient  #important for SAPT in psi4, default
symmetry c1  #important for SAPT in psi4, default
}

set PROPERTIES_ORIGIN ["COM"]
properties('MP2/aug-cc-pvtz', properties = ['dipole'])
--------------------------------------------------------------------------

    Molecular point group: c1
  Charge       = 0
  Multiplicity = 1
  Basis Set: AUG-CC-PVTZ
    Blend: AUG-CC-PVTZ
  Basis Set: (AUG-CC-PVTZ AUX)
    Blend: AUG-CC-PVTZ-JKFIT

    Orbital Energies [Eh]
    ---------------------

    Doubly Occupied:

       1A    -20.500313     2A    -15.615871     3A    -11.344220
       4A    -11.296965     5A    -11.269322     6A    -11.243207
       7A    -11.239670     8A    -11.238549     9A    -11.236938
      10A    -11.212858    11A     -1.361849    12A     -1.263267
      13A     -1.131505    14A     -1.061830    15A     -0.991166
      16A     -0.947518    17A     -0.934068    18A     -0.830355
      19A     -0.809481    20A     -0.726113    21A     -0.705529
      22A     -0.645515    23A     -0.620256    24A     -0.598267
      25A     -0.586211    26A     -0.581626    27A     -0.571068
      28A     -0.568478    29A     -0.561600    30A     -0.549744
      31A     -0.533281    32A     -0.505829    33A     -0.499561
      34A     -0.468548    35A     -0.415773    36A     -0.387875
      37A     -0.295654

  @DF-RHF Final Energy:  -438.82717272433985

   => Energetics <=

    Nuclear Repulsion Energy =            522.7313949794254313
    One-Electron Energy =               -1632.4173748645571322
    Two-Electron Energy =                 670.8588071607919119
    Total Energy =                       -438.8271727243397891
  Basis Set: (AUG-CC-PVTZ AUX)
    Blend: AUG-CC-PVTZ-RI
    Molecular point group: c1

    Geometry (in Angstrom), charge = 0, multiplicity = 1:

       Center              X                  Y                   Z               Mass
    ------------   -----------------  -----------------  -----------------  -----------------
         O            2.674087398853    -0.693638756960    -0.012141012712    15.994914619570
         N            0.615125398853    -1.677759756960     0.006659987288    14.003074004430
         C           -0.666976601147     0.738203243040    -0.010131012712    12.000000000000
         C            0.714070398853     0.710024243040     0.004013987288    12.000000000000
         C           -1.431360601147    -0.478950756960     0.002346987288    12.000000000000
         C            1.440756398853    -0.554378756960    -0.003956012712    12.000000000000
         C           -0.750554601147    -1.663961756960     0.007206987288    12.000000000000
         C           -1.418483601147     2.044535243040    -0.004342012712    12.000000000000
         C            1.572129398853     1.946186243040     0.012211987288    12.000000000000
         C           -2.935340601147    -0.473101756960    -0.001898012712    12.000000000000
         H           -1.240824601147    -2.633403756960     0.016401987288     1.007825032230
         H           -2.197562601147     2.050543243040    -0.772782012712     1.007825032230
         H           -0.759146601147     2.892848243040    -0.188329012712     1.007825032230
         H           -1.914751601147     2.205728243040     0.959915987288     1.007825032230
         H            1.121379398853    -2.559230756960     0.006027987288     1.007825032230
         H            1.454856398853     2.523754243040    -0.910861012712     1.007825032230
         H            2.616975398853     1.645475243040     0.097280987288     1.007825032230
         H            1.324894398853     2.602735243040     0.851753987288     1.007825032230
         H           -3.320868601147    -1.494725756960     0.062923987288     1.007825032230
         H           -3.345976701147    -0.015270256960    -0.932231112712     1.007825032230
         H           -3.340173601147     0.090171243040     0.845121987288     1.007825032230

  Basis Set: AUG-CC-PVTZ
    Blend: AUG-CC-PVTZ
  Basis Set: (AUG-CC-PVTZ AUX)
    Blend: AUG-CC-PVTZ-JKFIT
	 Reference Energy          =    -438.8271727243398459 [Eh]
	 Singles Energy            =      -0.0000000000000000 [Eh]
	 Same-Spin Energy          =      -0.4701524573464834 [Eh]
	 Opposite-Spin Energy      =      -1.4992889243762022 [Eh]
	 Correlation Energy        =      -1.9694413817226857 [Eh]
	 Total Energy              =    -440.7966141060625205 [Eh]

	 ================> DF-SCS-MP2 Energies <==================
	-----------------------------------------------------------
	 SCS Same-Spin Scale       =       0.3333333333333333 [-]
	 SCS Opposite-Spin Scale   =       1.2000000000000000 [-]
	 SCS Same-Spin Energy      =      -0.1567174857821611 [Eh]
	 SCS Opposite-Spin Energy  =      -1.7991467092514426 [Eh]
	 SCS Correlation Energy    =      -1.9558641950336038 [Eh]
	 SCS Total Energy          =    -440.7830369193734441 [Eh]
	-----------------------------------------------------------

  Dipole Moment: [D]
     X:    -4.4520      Y:    -0.2974      Z:     0.0485     Total:     4.4622

*** Psi4 exiting successfully. Buy a developer a beer!
