                               Psi4 1.4a3.dev225

  ==> Input File <==

--------------------------------------------------------------------------
#psi4
#
memory 32 gb

molecule  {
0 1
  O        2.7382740    -0.7425350    -0.0126020
  N        0.6793120    -1.7266560     0.0061990
  C       -0.6027900     0.6893070    -0.0105920
  C        0.7782570     0.6611280     0.0035530
  C       -1.2357659    -0.6010889     0.0004721
  C        1.5049430    -0.6032750    -0.0044170
  C       -0.6863680    -1.7128580     0.0067460
  C       -1.3542970     1.9956390    -0.0048030
  C        1.6363160     1.8972900     0.0117510
  C       -2.8711540    -0.5219980    -0.0023590
  H       -1.1766380    -2.6823000     0.0159410
  H       -2.1333760     2.0016470    -0.7732430
  H       -0.6949600     2.8439520    -0.1887900
  H       -1.8505650     2.1568320     0.9594550
  H        1.1855660    -2.6081270     0.0055670
  H        1.5190430     2.4748580    -0.9113220
  H        2.6811620     1.5965790     0.0968200
  H        1.3890810     2.5538390     0.8512930
  H       -3.2566820    -1.5436220     0.0624630
  H       -3.2744260    -0.0723770    -0.9160080
  H       -3.2759870     0.0412750     0.8446610
units angstrom
no_reorient  #important for SAPT in psi4, default
symmetry c1  #important for SAPT in psi4, default
}

set PROPERTIES_ORIGIN ["COM"]
properties('MP2/aug-cc-pvtz', properties = ['dipole'])
--------------------------------------------------------------------------

    Molecular point group: c1
  Charge       = 0
  Multiplicity = 1
  Basis Set: AUG-CC-PVTZ
    Blend: AUG-CC-PVTZ
  Basis Set: (AUG-CC-PVTZ AUX)
    Blend: AUG-CC-PVTZ-JKFIT

    Orbital Energies [Eh]
    ---------------------

    Doubly Occupied:

       1A    -20.501708     2A    -15.604734     3A    -11.345068
       4A    -11.273812     5A    -11.270781     6A    -11.241653
       7A    -11.241394     8A    -11.239875     9A    -11.233106
      10A    -11.213679    11A     -1.362189    12A     -1.266899
      13A     -1.130175    14A     -1.065818    15A     -0.996331
      16A     -0.941717    17A     -0.936773    18A     -0.835208
      19A     -0.808492    20A     -0.726706    21A     -0.703874
      22A     -0.650163    23A     -0.621476    24A     -0.601439
      25A     -0.582828    26A     -0.581209    27A     -0.569530
      28A     -0.568079    29A     -0.554376    30A     -0.550019
      31A     -0.535675    32A     -0.511892    33A     -0.477686
      34A     -0.471766    35A     -0.416743    36A     -0.390658
      37A     -0.310661

  @DF-RHF Final Energy:  -438.80120480145035

   => Energetics <=

    Nuclear Repulsion Energy =            524.2792834856160198
    One-Electron Energy =               -1635.4925917884004321
    Two-Electron Energy =                 672.4121035013339451
    Total Energy =                       -438.8012048014503534
  Basis Set: (AUG-CC-PVTZ AUX)
    Blend: AUG-CC-PVTZ-RI
    Molecular point group: c1

    Geometry (in Angstrom), charge = 0, multiplicity = 1:

       Center              X                  Y                   Z               Mass
    ------------   -----------------  -----------------  -----------------  -----------------
         O            2.662530118756    -0.687166979558    -0.012139902836    15.994914619570
         N            0.603568118756    -1.671287979558     0.006661097164    14.003074004430
         C           -0.678533881244     0.744675020442    -0.010129902836    12.000000000000
         C            0.702513118756     0.716496020442     0.004015097164    12.000000000000
         C           -1.311509781244    -0.545720879558     0.000934197164    12.000000000000
         C            1.429199118756    -0.547906979558    -0.003954902836    12.000000000000
         C           -0.762111881244    -1.657489979558     0.007208097164    12.000000000000
         C           -1.430040881244     2.051007020442    -0.004340902836    12.000000000000
         C            1.560572118756     1.952658020442     0.012213097164    12.000000000000
         C           -2.946897881244    -0.466629979558    -0.001896902836    12.000000000000
         H           -1.252381881244    -2.626931979558     0.016403097164     1.007825032230
         H           -2.209119881244     2.057015020442    -0.772780902836     1.007825032230
         H           -0.770703881244     2.899320020442    -0.188327902836     1.007825032230
         H           -1.926308881244     2.212200020442     0.959917097164     1.007825032230
         H            1.109822118756    -2.552758979558     0.006029097164     1.007825032230
         H            1.443299118756     2.530226020442    -0.910859902836     1.007825032230
         H            2.605418118756     1.651947020442     0.097282097164     1.007825032230
         H            1.313337118756     2.609207020442     0.851755097164     1.007825032230
         H           -3.332425881244    -1.488253979558     0.062925097164     1.007825032230
         H           -3.350169881244    -0.017008979558    -0.915545902836     1.007825032230
         H           -3.351730881244     0.096643020442     0.845123097164     1.007825032230

  Basis Set: AUG-CC-PVTZ
    Blend: AUG-CC-PVTZ
  Basis Set: (AUG-CC-PVTZ AUX)
    Blend: AUG-CC-PVTZ-JKFIT
	 Reference Energy          =    -438.8012048014503534 [Eh]
	 Singles Energy            =      -0.0000000000000000 [Eh]
	 Same-Spin Energy          =      -0.4682475272311911 [Eh]
	 Opposite-Spin Energy      =      -1.4972319875827584 [Eh]
	 Correlation Energy        =      -1.9654795148139494 [Eh]
	 Total Energy              =    -440.7666843162642749 [Eh]

	 ================> DF-SCS-MP2 Energies <==================
	-----------------------------------------------------------
	 SCS Same-Spin Scale       =       0.3333333333333333 [-]
	 SCS Opposite-Spin Scale   =       1.2000000000000000 [-]
	 SCS Same-Spin Energy      =      -0.1560825090770637 [Eh]
	 SCS Opposite-Spin Energy  =      -1.7966783850993100 [Eh]
	 SCS Correlation Energy    =      -1.9527608941763737 [Eh]
	 SCS Total Energy          =    -440.7539656956267322 [Eh]
	-----------------------------------------------------------

  Dipole Moment: [D]
     X:    -4.3491      Y:    -0.1102      Z:     0.0413     Total:     4.3507

*** Psi4 exiting successfully. Buy a developer a beer!
