                               Psi4 1.4a3.dev225

  ==> Input File <==

--------------------------------------------------------------------------
#psi4
#
memory 32 gb

molecule  {
0 1
  O        2.7382740    -0.7425350    -0.0126020
  N        0.6793120    -1.7266560     0.0061990
  C       -0.6027900     0.6893070    -0.0105920
  C        0.7782570     0.6611280     0.0035530
  C       -1.3671740    -0.5278470     0.0018860
  C        1.5049430    -0.6032750    -0.0044170
  C       -0.5863731    -1.7138683     0.0067059
  C       -1.3542970     1.9956390    -0.0048030
  C        1.6363160     1.8972900     0.0117510
  C       -2.8711540    -0.5219980    -0.0023590
  H       -1.1766380    -2.6823000     0.0159410
  H       -2.1333760     2.0016470    -0.7732430
  H       -0.6949600     2.8439520    -0.1887900
  H       -1.8505650     2.1568320     0.9594550
  H        1.1855660    -2.6081270     0.0055670
  H        1.5190430     2.4748580    -0.9113220
  H        2.6811620     1.5965790     0.0968200
  H        1.3890810     2.5538390     0.8512930
  H       -3.2566820    -1.5436220     0.0624630
  H       -3.2744260    -0.0723770    -0.9160080
  H       -3.2759870     0.0412750     0.8446610
units angstrom
no_reorient  #important for SAPT in psi4, default
symmetry c1  #important for SAPT in psi4, default
}

set PROPERTIES_ORIGIN ["COM"]
properties('MP2/aug-cc-pvtz', properties = ['dipole'])
--------------------------------------------------------------------------

    Molecular point group: c1
  Charge       = 0
  Multiplicity = 1
  Basis Set: AUG-CC-PVTZ
    Blend: AUG-CC-PVTZ
  Basis Set: (AUG-CC-PVTZ AUX)
    Blend: AUG-CC-PVTZ-JKFIT

    Orbital Energies [Eh]
    ---------------------

    Doubly Occupied:

       1A    -20.500346     2A    -15.628265     3A    -11.344858
       4A    -11.305227     5A    -11.267076     6A    -11.240859
       7A    -11.236765     8A    -11.234425     9A    -11.231586
      10A    -11.210093    11A     -1.373087    12A     -1.295373
      13A     -1.129729    14A     -1.053250    15A     -0.987310
      16A     -0.951425    17A     -0.937189    18A     -0.831012
      19A     -0.817032    20A     -0.746023    21A     -0.707974
      22A     -0.632039    23A     -0.627962    24A     -0.596030
      25A     -0.588713    26A     -0.587056    27A     -0.569944
      28A     -0.567229    29A     -0.556021    30A     -0.550182
      31A     -0.533855    32A     -0.504980    33A     -0.490070
      34A     -0.477324    35A     -0.415714    36A     -0.387842
      37A     -0.282452

  @DF-RHF Final Energy:  -438.81282654999450

   => Energetics <=

    Nuclear Repulsion Energy =            523.8188821944153233
    One-Electron Energy =               -1634.4707797668468174
    Two-Electron Energy =                 671.8390710224371105
    Total Energy =                       -438.8128265499944973
  Basis Set: (AUG-CC-PVTZ AUX)
    Blend: AUG-CC-PVTZ-RI
    Molecular point group: c1

    Geometry (in Angstrom), charge = 0, multiplicity = 1:

       Center              X                  Y                   Z               Mass
    ------------   -----------------  -----------------  -----------------  -----------------
         O            2.665279952610    -0.693489955219    -0.012260161891    15.994914619570
         N            0.606317952610    -1.677610955219     0.006540838109    14.003074004430
         C           -0.675784047390     0.738352044781    -0.010250161891    12.000000000000
         C            0.705262952610     0.710173044781     0.003894838109    12.000000000000
         C           -1.440168047390    -0.478801955219     0.002227838109    12.000000000000
         C            1.431948952610    -0.554229955219    -0.004075161891    12.000000000000
         C           -0.659367147390    -1.664823255219     0.007047738109    12.000000000000
         C           -1.427291047390     2.044684044781    -0.004461161891    12.000000000000
         C            1.563321952610     1.946335044781     0.012092838109    12.000000000000
         C           -2.944148047390    -0.472952955219    -0.002017161891    12.000000000000
         H           -1.249632047390    -2.633254955219     0.016282838109     1.007825032230
         H           -2.206370047390     2.050692044781    -0.772901161891     1.007825032230
         H           -0.767954047390     2.892997044781    -0.188448161891     1.007825032230
         H           -1.923559047390     2.205877044781     0.959796838109     1.007825032230
         H            1.112571952610    -2.559081955219     0.005908838109     1.007825032230
         H            1.446048952610     2.523903044781    -0.910980161891     1.007825032230
         H            2.608167952610     1.645624044781     0.097161838109     1.007825032230
         H            1.316086952610     2.602884044781     0.851634838109     1.007825032230
         H           -3.329676047390    -1.494576955219     0.062804838109     1.007825032230
         H           -3.347420047390    -0.023331955219    -0.915666161891     1.007825032230
         H           -3.348981047390     0.090320044781     0.845002838109     1.007825032230

  Basis Set: AUG-CC-PVTZ
    Blend: AUG-CC-PVTZ
  Basis Set: (AUG-CC-PVTZ AUX)
    Blend: AUG-CC-PVTZ-JKFIT
	 Reference Energy          =    -438.8128265499944973 [Eh]
	 Singles Energy            =      -0.0000000000000000 [Eh]
	 Same-Spin Energy          =      -0.4718029679090893 [Eh]
	 Opposite-Spin Energy      =      -1.4995426421605422 [Eh]
	 Correlation Energy        =      -1.9713456100696316 [Eh]
	 Total Energy              =    -440.7841721600641449 [Eh]

	 ================> DF-SCS-MP2 Energies <==================
	-----------------------------------------------------------
	 SCS Same-Spin Scale       =       0.3333333333333333 [-]
	 SCS Opposite-Spin Scale   =       1.2000000000000000 [-]
	 SCS Same-Spin Energy      =      -0.1572676559696964 [Eh]
	 SCS Opposite-Spin Energy  =      -1.7994511705926506 [Eh]
	 SCS Correlation Energy    =      -1.9567188265623470 [Eh]
	 SCS Total Energy          =    -440.7695453765568345 [Eh]
	-----------------------------------------------------------

  Dipole Moment: [D]
     X:    -4.3454      Y:    -0.5456      Z:     0.0436     Total:     4.3797

*** Psi4 exiting successfully. Buy a developer a beer!
