                               Psi4 1.4a3.dev225

  ==> Input File <==

--------------------------------------------------------------------------
#psi4
#
memory 32 gb

molecule  {
0 1
  O        2.7382740    -0.7425350    -0.0126020
  N        0.6793120    -1.7266560     0.0061990
  C       -0.6027900     0.6893070    -0.0105920
  C        0.7782570     0.6611280     0.0035530
  C       -1.3671740    -0.5278470     0.0018860
  C        1.5049430    -0.6032750    -0.0044170
  C       -0.6863680    -1.7128580     0.0067460
  C       -1.3542970     1.9956390    -0.0048030
  C        1.6648267     1.9383639     0.0120234
  C       -2.8711540    -0.5219980    -0.0023590
  H       -1.1766380    -2.6823000     0.0159410
  H       -2.1333760     2.0016470    -0.7732430
  H       -0.6949600     2.8439520    -0.1887900
  H       -1.8505650     2.1568320     0.9594550
  H        1.1855660    -2.6081270     0.0055670
  H        1.5190430     2.4748580    -0.9113220
  H        2.6811620     1.5965790     0.0968200
  H        1.3890810     2.5538390     0.8512930
  H       -3.2566820    -1.5436220     0.0624630
  H       -3.2744260    -0.0723770    -0.9160080
  H       -3.2759870     0.0412750     0.8446610
units angstrom
no_reorient  #important for SAPT in psi4, default
symmetry c1  #important for SAPT in psi4, default
}

set PROPERTIES_ORIGIN ["COM"]
properties('MP2/aug-cc-pvtz', properties = ['dipole'])
--------------------------------------------------------------------------

    Molecular point group: c1
  Charge       = 0
  Multiplicity = 1
  Basis Set: AUG-CC-PVTZ
    Blend: AUG-CC-PVTZ
  Basis Set: (AUG-CC-PVTZ AUX)
    Blend: AUG-CC-PVTZ-JKFIT

    Orbital Energies [Eh]
    ---------------------

    Doubly Occupied:

       1A    -20.500004     2A    -15.615558     3A    -11.344070
       4A    -11.296548     5A    -11.269066     6A    -11.242824
       7A    -11.240302     8A    -11.237154     9A    -11.236994
      10A    -11.212272    11A     -1.361443    12A     -1.262951
      13A     -1.129818    14A     -1.058760    15A     -0.989182
      16A     -0.948650    17A     -0.935171    18A     -0.830353
      19A     -0.810480    20A     -0.725738    21A     -0.704056
      22A     -0.644775    23A     -0.620481    24A     -0.598055
      25A     -0.583765    26A     -0.582617    27A     -0.572907
      28A     -0.569753    29A     -0.556906    30A     -0.555626
      31A     -0.536565    32A     -0.511194    33A     -0.491761
      34A     -0.468593    35A     -0.414878    36A     -0.388843
      37A     -0.296026

  @DF-RHF Final Energy:  -438.82628276590020

   => Energetics <=

    Nuclear Repulsion Energy =            521.8867266401896359
    One-Electron Energy =               -1630.7377428110687561
    Two-Electron Energy =                 670.0247334049788606
    Total Energy =                       -438.8262827659002596
  Basis Set: (AUG-CC-PVTZ AUX)
    Blend: AUG-CC-PVTZ-RI
    Molecular point group: c1

    Geometry (in Angstrom), charge = 0, multiplicity = 1:

       Center              X                  Y                   Z               Mass
    ------------   -----------------  -----------------  -----------------  -----------------
         O            2.671537502723    -0.697173902028    -0.012287517368    15.994914619570
         N            0.612575502723    -1.681294902028     0.006513482632    14.003074004430
         C           -0.669526497277     0.734668097972    -0.010277517368    12.000000000000
         C            0.711520502723     0.706489097972     0.003867482632    12.000000000000
         C           -1.433910497277    -0.482485902028     0.002200482632    12.000000000000
         C            1.438206502723    -0.557913902028    -0.004102517368    12.000000000000
         C           -0.753104497277    -1.667496902028     0.007060482632    12.000000000000
         C           -1.421033497277     2.041000097972    -0.004488517368    12.000000000000
         C            1.598090202723     1.983724997972     0.012337882632    12.000000000000
         C           -2.937890497277    -0.476636902028    -0.002044517368    12.000000000000
         H           -1.243374497277    -2.636938902028     0.016255482632     1.007825032230
         H           -2.200112497277     2.047008097972    -0.772928517368     1.007825032230
         H           -0.761696497277     2.889313097972    -0.188475517368     1.007825032230
         H           -1.917301497277     2.202193097972     0.959769482632     1.007825032230
         H            1.118829502723    -2.562765902028     0.005881482632     1.007825032230
         H            1.452306502723     2.520219097972    -0.911007517368     1.007825032230
         H            2.614425502723     1.641940097972     0.097134482632     1.007825032230
         H            1.322344502723     2.599200097972     0.851607482632     1.007825032230
         H           -3.323418497277    -1.498260902028     0.062777482632     1.007825032230
         H           -3.341162497277    -0.027015902028    -0.915693517368     1.007825032230
         H           -3.342723497277     0.086636097972     0.844975482632     1.007825032230

  Basis Set: AUG-CC-PVTZ
    Blend: AUG-CC-PVTZ
  Basis Set: (AUG-CC-PVTZ AUX)
    Blend: AUG-CC-PVTZ-JKFIT
	 Reference Energy          =    -438.8262827659002028 [Eh]
	 Singles Energy            =      -0.0000000000000000 [Eh]
	 Same-Spin Energy          =      -0.4697191995209939 [Eh]
	 Opposite-Spin Energy      =      -1.4988709942021572 [Eh]
	 Correlation Energy        =      -1.9685901937231511 [Eh]
	 Total Energy              =    -440.7948729596233761 [Eh]

	 ================> DF-SCS-MP2 Energies <==================
	-----------------------------------------------------------
	 SCS Same-Spin Scale       =       0.3333333333333333 [-]
	 SCS Opposite-Spin Scale   =       1.2000000000000000 [-]
	 SCS Same-Spin Energy      =      -0.1565730665069980 [Eh]
	 SCS Opposite-Spin Energy  =      -1.7986451930425886 [Eh]
	 SCS Correlation Energy    =      -1.9552182595495866 [Eh]
	 SCS Total Energy          =    -440.7815010254498134 [Eh]
	-----------------------------------------------------------

  Dipole Moment: [D]
     X:    -4.4776      Y:    -0.2973      Z:     0.0420     Total:     4.4877

*** Psi4 exiting successfully. Buy a developer a beer!
