                               Psi4 1.4a3.dev225

  ==> Input File <==

--------------------------------------------------------------------------
#psi4
#
memory 32 gb

molecule  {
0 1
  O        2.7382740    -0.7425350    -0.0126020
  N        0.6793120    -1.7266560     0.0061990
  C       -0.6027900     0.6893070    -0.0105920
  C        0.7782570     0.6611280     0.0035530
  C       -1.3671740    -0.5278470     0.0018860
  C        1.5049430    -0.6032750    -0.0044170
  C       -0.6363706    -1.7133631     0.0067260
  C       -1.3542970     1.9956390    -0.0048030
  C        1.6363160     1.8972900     0.0117510
  C       -2.8711540    -0.5219980    -0.0023590
  H       -1.1766380    -2.6823000     0.0159410
  H       -2.1333760     2.0016470    -0.7732430
  H       -0.6949600     2.8439520    -0.1887900
  H       -1.8505650     2.1568320     0.9594550
  H        1.1855660    -2.6081270     0.0055670
  H        1.5190430     2.4748580    -0.9113220
  H        2.6811620     1.5965790     0.0968200
  H        1.3890810     2.5538390     0.8512930
  H       -3.2566820    -1.5436220     0.0624630
  H       -3.2744260    -0.0723770    -0.9160080
  H       -3.2759870     0.0412750     0.8446610
units angstrom
no_reorient  #important for SAPT in psi4, default
symmetry c1  #important for SAPT in psi4, default
}

set PROPERTIES_ORIGIN ["COM"]
properties('MP2/aug-cc-pvtz', properties = ['dipole'])
--------------------------------------------------------------------------

    Molecular point group: c1
  Charge       = 0
  Multiplicity = 1
  Basis Set: AUG-CC-PVTZ
    Blend: AUG-CC-PVTZ
  Basis Set: (AUG-CC-PVTZ AUX)
    Blend: AUG-CC-PVTZ-JKFIT

    Orbital Energies [Eh]
    ---------------------

    Doubly Occupied:

       1A    -20.500259     2A    -15.621954     3A    -11.344552
       4A    -11.300847     5A    -11.268254     6A    -11.242005
       7A    -11.237022     8A    -11.235783     9A    -11.235182
      10A    -11.211522    11A     -1.366175    12A     -1.278945
      13A     -1.130778    14A     -1.057564    15A     -0.989282
      16A     -0.949585    17A     -0.935699    18A     -0.830146
      19A     -0.813183    20A     -0.736521    21A     -0.706985
      22A     -0.638125    23A     -0.623247    24A     -0.597313
      25A     -0.587094    26A     -0.585446    27A     -0.570835
      28A     -0.568329    29A     -0.559113    30A     -0.550376
      31A     -0.534084    32A     -0.505637    33A     -0.495062
      34A     -0.472763    35A     -0.415856    36A     -0.388016
      37A     -0.289060

  @DF-RHF Final Energy:  -438.82397956410500

   => Energetics <=

    Nuclear Repulsion Energy =            523.2918502538037728
    One-Electron Energy =               -1633.4864628163475118
    Two-Electron Energy =                 671.3706329984386230
    Total Energy =                       -438.8239795641050023
  Basis Set: (AUG-CC-PVTZ AUX)
    Blend: AUG-CC-PVTZ-RI
    Molecular point group: c1

    Geometry (in Angstrom), charge = 0, multiplicity = 1:

       Center              X                  Y                   Z               Mass
    ------------   -----------------  -----------------  -----------------  -----------------
         O            2.669656610134    -0.693534179178    -0.012261921395    15.994914619570
         N            0.610694610134    -1.677655179178     0.006539078605    14.003074004430
         C           -0.671407389866     0.738307820822    -0.010251921395    12.000000000000
         C            0.709639610134     0.710128820822     0.003893078605    12.000000000000
         C           -1.435791389866    -0.478846179178     0.002226078605    12.000000000000
         C            1.436325610134    -0.554274179178    -0.004076921395    12.000000000000
         C           -0.704987989866    -1.664362279178     0.007066078605    12.000000000000
         C           -1.422914389866     2.044639820822    -0.004462921395    12.000000000000
         C            1.567698610134     1.946290820822     0.012091078605    12.000000000000
         C           -2.939771389866    -0.472997179178    -0.002018921395    12.000000000000
         H           -1.245255389866    -2.633299179178     0.016281078605     1.007825032230
         H           -2.201993389866     2.050647820822    -0.772902921395     1.007825032230
         H           -0.763577389866     2.892952820822    -0.188449921395     1.007825032230
         H           -1.919182389866     2.205832820822     0.959795078605     1.007825032230
         H            1.116948610134    -2.559126179178     0.005907078605     1.007825032230
         H            1.450425610134     2.523858820822    -0.910981921395     1.007825032230
         H            2.612544610134     1.645579820822     0.097160078605     1.007825032230
         H            1.320463610134     2.602839820822     0.851633078605     1.007825032230
         H           -3.325299389866    -1.494621179178     0.062803078605     1.007825032230
         H           -3.343043389866    -0.023376179178    -0.915667921395     1.007825032230
         H           -3.344604389866     0.090275820822     0.845001078605     1.007825032230

  Basis Set: AUG-CC-PVTZ
    Blend: AUG-CC-PVTZ
  Basis Set: (AUG-CC-PVTZ AUX)
    Blend: AUG-CC-PVTZ-JKFIT
	 Reference Energy          =    -438.8239795641050023 [Eh]
	 Singles Energy            =      -0.0000000000000000 [Eh]
	 Same-Spin Energy          =      -0.4709682178794820 [Eh]
	 Opposite-Spin Energy      =      -1.4992879543287565 [Eh]
	 Correlation Energy        =      -1.9702561722082386 [Eh]
	 Total Energy              =    -440.7942357363132260 [Eh]

	 ================> DF-SCS-MP2 Energies <==================
	-----------------------------------------------------------
	 SCS Same-Spin Scale       =       0.3333333333333333 [-]
	 SCS Opposite-Spin Scale   =       1.2000000000000000 [-]
	 SCS Same-Spin Energy      =      -0.1569894059598273 [Eh]
	 SCS Opposite-Spin Energy  =      -1.7991455451945078 [Eh]
	 SCS Correlation Energy    =      -1.9561349511543351 [Eh]
	 SCS Total Energy          =    -440.7801145152593563 [Eh]
	-----------------------------------------------------------

  Dipole Moment: [D]
     X:    -4.4003      Y:    -0.4127      Z:     0.0426     Total:     4.4198

*** Psi4 exiting successfully. Buy a developer a beer!
