                               Psi4 1.4a3.dev225

  ==> Input File <==

--------------------------------------------------------------------------
#psi4
#
memory 32 gb

molecule  {
0 1
  O        2.7382740    -0.7425350    -0.0126020
  N        0.6793120    -1.7266560     0.0061990
  C       -0.6027900     0.6893070    -0.0105920
  C        0.7782570     0.6611280     0.0035530
  C       -1.3671740    -0.5278470     0.0018860
  C        1.5049430    -0.6032750    -0.0044170
  C       -0.6863680    -1.7128580     0.0067460
  C       -1.3542970     1.9956390    -0.0048030
  C        1.6363160     1.8972900     0.0117510
  C       -2.8711540    -0.5219980    -0.0023590
  H       -1.1766380    -2.6823000     0.0159410
  H       -2.1333760     2.0016470    -0.7732430
  H       -0.6949600     2.8439520    -0.1887900
  H       -1.8505650     2.1568320     0.9594550
  H        1.1855660    -2.6081270     0.0055670
  H        1.5190430     2.4748580    -0.9113220
  H        2.6811620     1.5965790     0.0968200
  H        1.3890810     2.5538390     0.8512930
  H       -3.2566820    -1.5436220     0.0624630
  H       -3.2744260    -0.0723770    -0.9160080
  H       -3.3129645     0.0927244     0.9220278
units angstrom
no_reorient  #important for SAPT in psi4, default
symmetry c1  #important for SAPT in psi4, default
}

set PROPERTIES_ORIGIN ["COM"]
properties('MP2/aug-cc-pvtz', properties = ['dipole'])
--------------------------------------------------------------------------

    Molecular point group: c1
  Charge       = 0
  Multiplicity = 1
  Basis Set: AUG-CC-PVTZ
    Blend: AUG-CC-PVTZ
  Basis Set: (AUG-CC-PVTZ AUX)
    Blend: AUG-CC-PVTZ-JKFIT

    Orbital Energies [Eh]
    ---------------------

    Doubly Occupied:

       1A    -20.500717     2A    -15.616390     3A    -11.344605
       4A    -11.297777     5A    -11.269570     6A    -11.249053
       7A    -11.244035     8A    -11.238801     9A    -11.236727
      10A    -11.212996    11A     -1.362248    12A     -1.263768
      13A     -1.131515    14A     -1.061393    15A     -0.991136
      16A     -0.943169    17A     -0.934170    18A     -0.830602
      19A     -0.808705    20A     -0.725820    21A     -0.705807
      22A     -0.645823    23A     -0.619362    24A     -0.598610
      25A     -0.586553    26A     -0.580818    27A     -0.570307
      28A     -0.564507    29A     -0.560242    30A     -0.548133
      31A     -0.528800    32A     -0.505960    33A     -0.499800
      34A     -0.468337    35A     -0.416130    36A     -0.387820
      37A     -0.295898

  @DF-RHF Final Energy:  -438.82124982017899

   => Energetics <=

    Nuclear Repulsion Energy =            522.4081541654620651
    One-Electron Energy =               -1631.7665958884203974
    Two-Electron Energy =                 670.5371919027793410
    Total Energy =                       -438.8212498201789913
  Basis Set: (AUG-CC-PVTZ AUX)
    Blend: AUG-CC-PVTZ-RI
    Molecular point group: c1

    Geometry (in Angstrom), charge = 0, multiplicity = 1:

       Center              X                  Y                   Z               Mass
    ------------   -----------------  -----------------  -----------------  -----------------
         O            2.674305112896    -0.693956643989    -0.012832463261    15.994914619570
         N            0.615343112896    -1.678077643989     0.005968536739    14.003074004430
         C           -0.666758887104     0.737885356011    -0.010822463261    12.000000000000
         C            0.714288112896     0.709706356011     0.003322536739    12.000000000000
         C           -1.431142887104    -0.479268643989     0.001655536739    12.000000000000
         C            1.440974112896    -0.554696643989    -0.004647463261    12.000000000000
         C           -0.750336887104    -1.664279643989     0.006515536739    12.000000000000
         C           -1.418265887104     2.044217356011    -0.005033463261    12.000000000000
         C            1.572347112896     1.945868356011     0.011520536739    12.000000000000
         C           -2.935122887104    -0.473419643989    -0.002589463261    12.000000000000
         H           -1.240606887104    -2.633721643989     0.015710536739     1.007825032230
         H           -2.197344887104     2.050225356011    -0.773473463261     1.007825032230
         H           -0.758928887104     2.892530356011    -0.189020463261     1.007825032230
         H           -1.914533887104     2.205410356011     0.959224536739     1.007825032230
         H            1.121597112896    -2.559548643989     0.005336536739     1.007825032230
         H            1.455074112896     2.523436356011    -0.911552463261     1.007825032230
         H            2.617193112896     1.645157356011     0.096589536739     1.007825032230
         H            1.325112112896     2.602417356011     0.851062536739     1.007825032230
         H           -3.320650887104    -1.495043643989     0.062232536739     1.007825032230
         H           -3.338394887104    -0.023798643989    -0.916238463261     1.007825032230
         H           -3.376933387104     0.141302756011     0.921797336739     1.007825032230

  Basis Set: AUG-CC-PVTZ
    Blend: AUG-CC-PVTZ
  Basis Set: (AUG-CC-PVTZ AUX)
    Blend: AUG-CC-PVTZ-JKFIT
	 Reference Energy          =    -438.8212498201789913 [Eh]
	 Singles Energy            =      -0.0000000000000000 [Eh]
	 Same-Spin Energy          =      -0.4701617945343789 [Eh]
	 Opposite-Spin Energy      =      -1.4998586573061992 [Eh]
	 Correlation Energy        =      -1.9700204518405782 [Eh]
	 Total Energy              =    -440.7912702720195739 [Eh]

	 ================> DF-SCS-MP2 Energies <==================
	-----------------------------------------------------------
	 SCS Same-Spin Scale       =       0.3333333333333333 [-]
	 SCS Opposite-Spin Scale   =       1.2000000000000000 [-]
	 SCS Same-Spin Energy      =      -0.1567205981781263 [Eh]
	 SCS Opposite-Spin Energy  =      -1.7998303887674389 [Eh]
	 SCS Correlation Energy    =      -1.9565509869455653 [Eh]
	 SCS Total Energy          =    -440.7778008071245495 [Eh]
	-----------------------------------------------------------

  Dipole Moment: [D]
     X:    -4.4036      Y:    -0.3189      Z:     0.0056     Total:     4.4151

*** Psi4 exiting successfully. Buy a developer a beer!
