                               Psi4 1.4a3.dev225

  ==> Input File <==

--------------------------------------------------------------------------
#psi4
#
memory 32 gb

molecule  {
0 1
  O        2.7382740    -0.7425350    -0.0126020
  N        0.6793120    -1.7266560     0.0061990
  C       -0.6027900     0.6893070    -0.0105920
  C        0.7782570     0.6611280     0.0035530
  C       -1.3671740    -0.5278470     0.0018860
  C        1.5049430    -0.6032750    -0.0044170
  C       -0.5662298    -1.6352019     0.0068909
  C       -1.3542970     1.9956390    -0.0048030
  C        1.6363160     1.8972900     0.0117510
  C       -2.8711540    -0.5219980    -0.0023590
  H       -1.1766380    -2.6823000     0.0159410
  H       -2.1333760     2.0016470    -0.7732430
  H       -0.6949600     2.8439520    -0.1887900
  H       -1.8505650     2.1568320     0.9594550
  H        1.1855660    -2.6081270     0.0055670
  H        1.5190430     2.4748580    -0.9113220
  H        2.6811620     1.5965790     0.0968200
  H        1.3890810     2.5538390     0.8512930
  H       -3.2566820    -1.5436220     0.0624630
  H       -3.2744260    -0.0723770    -0.9160080
  H       -3.2759870     0.0412750     0.8446610
units angstrom
no_reorient  #important for SAPT in psi4, default
symmetry c1  #important for SAPT in psi4, default
}

set PROPERTIES_ORIGIN ["COM"]
properties('MP2/aug-cc-pvtz', properties = ['dipole'])
--------------------------------------------------------------------------

    Molecular point group: c1
  Charge       = 0
  Multiplicity = 1
  Basis Set: AUG-CC-PVTZ
    Blend: AUG-CC-PVTZ
  Basis Set: (AUG-CC-PVTZ AUX)
    Blend: AUG-CC-PVTZ-JKFIT

    Orbital Energies [Eh]
    ---------------------

    Doubly Occupied:

       1A    -20.501682     2A    -15.627249     3A    -11.344575
       4A    -11.303248     5A    -11.267612     6A    -11.238267
       7A    -11.235010     8A    -11.234432     9A    -11.230713
      10A    -11.210148    11A     -1.377043    12A     -1.300953
      13A     -1.133995    14A     -1.056002    15A     -0.988990
      16A     -0.953033    17A     -0.937029    18A     -0.832736
      19A     -0.822756    20A     -0.747358    21A     -0.708407
      22A     -0.632877    23A     -0.627048    24A     -0.591250
      25A     -0.590096    26A     -0.582913    27A     -0.570942
      28A     -0.567059    29A     -0.553909    30A     -0.550669
      31A     -0.536550    32A     -0.506835    33A     -0.485628
      34A     -0.480275    35A     -0.414144    36A     -0.390465
      37A     -0.287785

  @DF-RHF Final Energy:  -438.80237271114953

   => Energetics <=

    Nuclear Repulsion Energy =            525.4378914842502581
    One-Electron Energy =               -1637.6411595182464680
    Two-Electron Energy =                 673.4008953228466225
    Total Energy =                       -438.8023727111495873
  Basis Set: (AUG-CC-PVTZ AUX)
    Blend: AUG-CC-PVTZ-RI
    Molecular point group: c1

    Geometry (in Angstrom), charge = 0, multiplicity = 1:

       Center              X                  Y                   Z               Mass
    ------------   -----------------  -----------------  -----------------  -----------------
         O            2.663516657935    -0.700376217361    -0.012276356333    15.994914619570
         N            0.604554657935    -1.684497217361     0.006524643667    14.003074004430
         C           -0.677547342065     0.731465782639    -0.010266356333    12.000000000000
         C            0.703499657935     0.703286782639     0.003878643667    12.000000000000
         C           -1.441931342065    -0.485688217361     0.002211643667    12.000000000000
         C            1.430185657935    -0.561116217361    -0.004091356333    12.000000000000
         C           -0.640987142065    -1.593043117361     0.007216543667    12.000000000000
         C           -1.429054342065     2.037797782639    -0.004477356333    12.000000000000
         C            1.561558657935     1.939448782639     0.012076643667    12.000000000000
         C           -2.945911342065    -0.479839217361    -0.002033356333    12.000000000000
         H           -1.251395342065    -2.640141217361     0.016266643667     1.007825032230
         H           -2.208133342065     2.043805782639    -0.772917356333     1.007825032230
         H           -0.769717342065     2.886110782639    -0.188464356333     1.007825032230
         H           -1.925322342065     2.198990782639     0.959780643667     1.007825032230
         H            1.110808657935    -2.565968217361     0.005892643667     1.007825032230
         H            1.444285657935     2.517016782639    -0.910996356333     1.007825032230
         H            2.606404657935     1.638737782639     0.097145643667     1.007825032230
         H            1.314323657935     2.595997782639     0.851618643667     1.007825032230
         H           -3.331439342065    -1.501463217361     0.062788643667     1.007825032230
         H           -3.349183342065    -0.030218217361    -0.915682356333     1.007825032230
         H           -3.350744342065     0.083433782639     0.844986643667     1.007825032230

  Basis Set: AUG-CC-PVTZ
    Blend: AUG-CC-PVTZ
  Basis Set: (AUG-CC-PVTZ AUX)
    Blend: AUG-CC-PVTZ-JKFIT
	 Reference Energy          =    -438.8023727111495305 [Eh]
	 Singles Energy            =      -0.0000000000000000 [Eh]
	 Same-Spin Energy          =      -0.4713098262921991 [Eh]
	 Opposite-Spin Energy      =      -1.4989083811932771 [Eh]
	 Correlation Energy        =      -1.9702182074854762 [Eh]
	 Total Energy              =    -440.7725909186349895 [Eh]

	 ================> DF-SCS-MP2 Energies <==================
	-----------------------------------------------------------
	 SCS Same-Spin Scale       =       0.3333333333333333 [-]
	 SCS Opposite-Spin Scale   =       1.2000000000000000 [-]
	 SCS Same-Spin Energy      =      -0.1571032754307330 [Eh]
	 SCS Opposite-Spin Energy  =      -1.7986900574319324 [Eh]
	 SCS Correlation Energy    =      -1.9557933328626655 [Eh]
	 SCS Total Energy          =    -440.7581660440121709 [Eh]
	-----------------------------------------------------------

  Dipole Moment: [D]
     X:    -4.2614      Y:    -0.4872      Z:     0.0429     Total:     4.2894

*** Psi4 exiting successfully. Buy a developer a beer!
