                               Psi4 1.4a3.dev225

  ==> Input File <==

--------------------------------------------------------------------------
#psi4
#
memory 32 gb

molecule  {
0 1
  O        2.7382740    -0.7425350    -0.0126020
  N        0.6793120    -1.7266560     0.0061990
  C       -0.6027900     0.6893070    -0.0105920
  C        0.7782570     0.6611280     0.0035530
  C       -1.3242325    -0.5537854     0.0014291
  C        1.5049430    -0.6032750    -0.0044170
  C       -0.6863680    -1.7128580     0.0067460
  C       -1.3542970     1.9956390    -0.0048030
  C        1.6363160     1.8972900     0.0117510
  C       -2.8711540    -0.5219980    -0.0023590
  H       -1.1766380    -2.6823000     0.0159410
  H       -2.1333760     2.0016470    -0.7732430
  H       -0.6949600     2.8439520    -0.1887900
  H       -1.8505650     2.1568320     0.9594550
  H        1.1855660    -2.6081270     0.0055670
  H        1.5190430     2.4748580    -0.9113220
  H        2.6811620     1.5965790     0.0968200
  H        1.3890810     2.5538390     0.8512930
  H       -3.2566820    -1.5436220     0.0624630
  H       -3.2744260    -0.0723770    -0.9160080
  H       -3.2759870     0.0412750     0.8446610
units angstrom
no_reorient  #important for SAPT in psi4, default
symmetry c1  #important for SAPT in psi4, default
}

set PROPERTIES_ORIGIN ["COM"]
properties('MP2/aug-cc-pvtz', properties = ['dipole'])
--------------------------------------------------------------------------

    Molecular point group: c1
  Charge       = 0
  Multiplicity = 1
  Basis Set: AUG-CC-PVTZ
    Blend: AUG-CC-PVTZ
  Basis Set: (AUG-CC-PVTZ AUX)
    Blend: AUG-CC-PVTZ-JKFIT

    Orbital Energies [Eh]
    ---------------------

    Doubly Occupied:

       1A    -20.500742     2A    -15.611948     3A    -11.344464
       4A    -11.289150     5A    -11.269543     6A    -11.239570
       7A    -11.239453     8A    -11.238539     9A    -11.238353
      10A    -11.213127    11A     -1.361826    12A     -1.263810
      13A     -1.130847    14A     -1.061996    15A     -0.992706
      16A     -0.947091    17A     -0.934830    18A     -0.831391
      19A     -0.809978    20A     -0.726348    21A     -0.704818
      22A     -0.646875    23A     -0.620570    24A     -0.599087
      25A     -0.582304    26A     -0.581543    27A     -0.570515
      28A     -0.567732    29A     -0.561902    30A     -0.550280
      31A     -0.534582    32A     -0.506580    33A     -0.494749
      34A     -0.471152    35A     -0.416161    36A     -0.388885
      37A     -0.300814

  @DF-RHF Final Energy:  -438.82647281941604

   => Energetics <=

    Nuclear Repulsion Energy =            523.2529016688860111
    One-Electron Energy =               -1633.4702319125374288
    Two-Electron Energy =                 671.3908574242352643
    Total Energy =                       -438.8264728194160398
  Basis Set: (AUG-CC-PVTZ AUX)
    Blend: AUG-CC-PVTZ-RI
    Molecular point group: c1

    Geometry (in Angstrom), charge = 0, multiplicity = 1:

       Center              X                  Y                   Z               Mass
    ------------   -----------------  -----------------  -----------------  -----------------
         O            2.670274266173    -0.691307810983    -0.012223676249    15.994914619570
         N            0.611312266173    -1.675428810983     0.006577323751    14.003074004430
         C           -0.670789733827     0.740534189017    -0.010213676249    12.000000000000
         C            0.710257266173     0.712355189017     0.003931323751    12.000000000000
         C           -1.392232233827    -0.502558210983     0.001807423751    12.000000000000
         C            1.436943266173    -0.552047810983    -0.004038676249    12.000000000000
         C           -0.754367733827    -1.661630810983     0.007124323751    12.000000000000
         C           -1.422296733827     2.046866189017    -0.004424676249    12.000000000000
         C            1.568316266173     1.948517189017     0.012129323751    12.000000000000
         C           -2.939153733827    -0.470770810983    -0.001980676249    12.000000000000
         H           -1.244637733827    -2.631072810983     0.016319323751     1.007825032230
         H           -2.201375733827     2.052874189017    -0.772864676249     1.007825032230
         H           -0.762959733827     2.895179189017    -0.188411676249     1.007825032230
         H           -1.918564733827     2.208059189017     0.959833323751     1.007825032230
         H            1.117566266173    -2.556899810983     0.005945323751     1.007825032230
         H            1.451043266173     2.526085189017    -0.910943676249     1.007825032230
         H            2.613162266173     1.647806189017     0.097198323751     1.007825032230
         H            1.321081266173     2.605066189017     0.851671323751     1.007825032230
         H           -3.324681733827    -1.492394810983     0.062841323751     1.007825032230
         H           -3.342425733827    -0.021149810983    -0.915629676249     1.007825032230
         H           -3.343986733827     0.092502189017     0.845039323751     1.007825032230

  Basis Set: AUG-CC-PVTZ
    Blend: AUG-CC-PVTZ
  Basis Set: (AUG-CC-PVTZ AUX)
    Blend: AUG-CC-PVTZ-JKFIT
	 Reference Energy          =    -438.8264728194160398 [Eh]
	 Singles Energy            =      -0.0000000000000000 [Eh]
	 Same-Spin Energy          =      -0.4692608926573263 [Eh]
	 Opposite-Spin Energy      =      -1.4980953228229377 [Eh]
	 Correlation Energy        =      -1.9673562154802640 [Eh]
	 Total Energy              =    -440.7938290348963051 [Eh]

	 ================> DF-SCS-MP2 Energies <==================
	-----------------------------------------------------------
	 SCS Same-Spin Scale       =       0.3333333333333333 [-]
	 SCS Opposite-Spin Scale   =       1.2000000000000000 [-]
	 SCS Same-Spin Energy      =      -0.1564202975524421 [Eh]
	 SCS Opposite-Spin Energy  =      -1.7977143873875252 [Eh]
	 SCS Correlation Energy    =      -1.9541346849399672 [Eh]
	 SCS Total Energy          =    -440.7806075043559986 [Eh]
	-----------------------------------------------------------

  Dipole Moment: [D]
     X:    -4.4218      Y:    -0.2362      Z:     0.0416     Total:     4.4283

*** Psi4 exiting successfully. Buy a developer a beer!
