                               Psi4 1.3.2 release

  ==> Input File <==

--------------------------------------------------------------------------
#psi4
#
memory 32 gb

molecule  {
0 1
  F        2.1226300     0.9082170     0.7600610
  F       -2.1226300     0.9082210    -0.7600560
  O        2.8120520    -0.8324970    -0.4615260
  O       -2.8120520    -0.8324980     0.4615220
  C        0.5324861     0.0120285    -0.7437390
  C       -0.4856120    -0.1117600     0.5938040
  C        1.9157900    -0.1063220    -0.1389790
  C       -1.9157900    -0.1063230     0.1389780
  H        0.3463190    -0.9890650    -1.2292190
  H        0.3197670     0.7835690    -1.2005600
  H       -0.3197660     0.7835590     1.2005670
  H       -0.3463190    -0.9890750     1.2292110
units angstrom
no_reorient  #important for SAPT in psi4, default
symmetry c1  #important for SAPT in psi4, default
}

set PROPERTIES_ORIGIN ["COM"]
properties('MP2/aug-cc-pvtz', properties = ['dipole'])
--------------------------------------------------------------------------

    Molecular point group: c1
  Charge       = 0
  Multiplicity = 1
  Basis Set: AUG-CC-PVTZ
    Blend: AUG-CC-PVTZ
  Basis Set: (AUG-CC-PVTZ AUX)
    Blend: AUG-CC-PVTZ-JKFIT

    Orbital Energies [Eh]
    ---------------------

    Doubly Occupied:

       1A    -26.348438     2A    -26.346890     3A    -20.607270
       4A    -20.602945     5A    -11.452525     6A    -11.447906
       7A    -11.307409     8A    -11.301963     9A     -1.666716
      10A     -1.665187    11A     -1.444259    12A     -1.440941
      13A     -1.124185    14A     -1.010547    15A     -0.867695
      16A     -0.858272    17A     -0.780670    18A     -0.750508
      19A     -0.741065    20A     -0.736354    21A     -0.733373
      22A     -0.718095    23A     -0.684788    24A     -0.635031
      25A     -0.617904    26A     -0.601274    27A     -0.573703
      28A     -0.558317    29A     -0.529562    30A     -0.518976
      31A     -0.488993

  @DF-RHF Final Energy:  -502.57682200939450

   => Energetics <=

    Nuclear Repulsion Energy =            361.8389432569881592
    One-Electron Energy =               -1410.5080097905324692
    Two-Electron Energy =                 546.0922445241498053
    Total Energy =                       -502.5768220093945047
  Basis Set: (AUG-CC-PVTZ AUX)
    Blend: AUG-CC-PVTZ-RI
    Molecular point group: c1

    Geometry (in Angstrom), charge = 0, multiplicity = 1:

       Center              X                  Y                   Z               Mass
    ------------   -----------------  -----------------  -----------------  -----------------
         F            2.118020102245     0.877768833722     0.774806389563    18.998403162730
         F           -2.127239897755     0.877772833722    -0.745310610437    18.998403162730
         O            2.807442102245    -0.862945166278    -0.446780610437    15.994914619570
         O           -2.816661897755    -0.862946166278     0.476267389563    15.994914619570
         C            0.527876202245    -0.018419666278    -0.728993610437    12.000000000000
         C           -0.490221897755    -0.142208166278     0.608549389563    12.000000000000
         C            1.911180102245    -0.136770166278    -0.124233610437    12.000000000000
         C           -1.920399897755    -0.136771166278     0.153723389563    12.000000000000
         H            0.341709102245    -1.019513166278    -1.214473610437     1.007825032230
         H            0.315157102245     0.753120833722    -1.185814610437     1.007825032230
         H           -0.324375897755     0.753110833722     1.215312389563     1.007825032230
         H           -0.350928897755    -1.019523166278     1.243956389563     1.007825032230

  Basis Set: AUG-CC-PVTZ
    Blend: AUG-CC-PVTZ
  Basis Set: (AUG-CC-PVTZ AUX)
    Blend: AUG-CC-PVTZ-JKFIT
	 Reference Energy          =    -502.5768220093945047 [Eh]
	 Singles Energy            =      -0.0000000000000000 [Eh]
	 Same-Spin Energy          =      -0.4439305390229700 [Eh]
	 Opposite-Spin Energy      =      -1.3271171360512120 [Eh]
	 Correlation Energy        =      -1.7710476750741819 [Eh]
	 Total Energy              =    -504.3478696844686624 [Eh]

	 ================> DF-SCS-MP2 Energies <==================
	-----------------------------------------------------------
	 SCS Same-Spin Scale       =       0.3333333333333333 [-]
	 SCS Opposite-Spin Scale   =       1.2000000000000000 [-]
	 SCS Same-Spin Energy      =      -0.1479768463409900 [Eh]
	 SCS Opposite-Spin Energy  =      -1.5925405632614542 [Eh]
	 SCS Correlation Energy    =      -1.7405174096024443 [Eh]
	 SCS Total Energy          =    -504.3173394189969372 [Eh]
	-----------------------------------------------------------

  Dipole Moment: [D]
     X:     0.1164      Y:     0.6265      Z:    -0.0160     Total:     0.6374

*** Psi4 exiting successfully. Buy a developer a beer!
