                               Psi4 1.3.2 release

  ==> Input File <==

--------------------------------------------------------------------------
#psi4
#
memory 32 gb

molecule  {
0 1
  F        2.1226300     0.9082170     0.7600610
  F       -2.1226300     0.9082210    -0.7600560
  O        2.8120520    -0.8324970    -0.4615260
  O       -2.8120520    -0.8324980     0.4615220
  C        0.5207676    -0.0189176    -0.7062555
  C       -0.4856120    -0.1117600     0.5938040
  C        1.9157900    -0.1063220    -0.1389790
  C       -1.9157900    -0.1063230     0.1389780
  H        0.3463190    -0.9890650    -1.2292190
  H        0.3197670     0.7835690    -1.2005600
  H       -0.3197660     0.7835590     1.2005670
  H       -0.3463190    -0.9890750     1.2292110
units angstrom
no_reorient  #important for SAPT in psi4, default
symmetry c1  #important for SAPT in psi4, default
}

set PROPERTIES_ORIGIN ["COM"]
properties('MP2/aug-cc-pvtz', properties = ['dipole'])
--------------------------------------------------------------------------

    Molecular point group: c1
  Charge       = 0
  Multiplicity = 1
  Basis Set: AUG-CC-PVTZ
    Blend: AUG-CC-PVTZ
  Basis Set: (AUG-CC-PVTZ AUX)
    Blend: AUG-CC-PVTZ-JKFIT

    Orbital Energies [Eh]
    ---------------------

    Doubly Occupied:

       1A    -26.348351     2A    -26.347261     3A    -20.606710
       4A    -20.603522     5A    -11.451355     6A    -11.448352
       7A    -11.306067     8A    -11.300951     9A     -1.666666
      10A     -1.665545    11A     -1.443846    12A     -1.441412
      13A     -1.127648    14A     -1.009216    15A     -0.865875
      16A     -0.858040    17A     -0.777200    18A     -0.750684
      19A     -0.740930    20A     -0.735806    21A     -0.732638
      22A     -0.718202    23A     -0.682457    24A     -0.635601
      25A     -0.619891    26A     -0.598320    27A     -0.577876
      28A     -0.557458    29A     -0.532093    30A     -0.520371
      31A     -0.492327

  @DF-RHF Final Energy:  -502.59696550143212

   => Energetics <=

    Nuclear Repulsion Energy =            362.2419639401671247
    One-Electron Energy =               -1411.3525213136763341
    Two-Electron Energy =                 546.5135918720770860
    Total Energy =                       -502.5969655014321233
  Basis Set: (AUG-CC-PVTZ AUX)
    Blend: AUG-CC-PVTZ-RI
    Molecular point group: c1

    Geometry (in Angstrom), charge = 0, multiplicity = 1:

       Center              X                  Y                   Z               Mass
    ------------   -----------------  -----------------  -----------------  -----------------
         F            2.119172572160     0.880812264983     0.771120029870    18.998403162730
         F           -2.126087427840     0.880816264983    -0.748996970130    18.998403162730
         O            2.808594572160    -0.859901735017    -0.450466970130    15.994914619570
         O           -2.815509427840    -0.859902735017     0.472581029870    15.994914619570
         C            0.517310172160    -0.046322335017    -0.695196470130    12.000000000000
         C           -0.489069427840    -0.139164735017     0.604863029870    12.000000000000
         C            1.912332572160    -0.133726735017    -0.127919970130    12.000000000000
         C           -1.919247427840    -0.133727735017     0.150037029870    12.000000000000
         H            0.342861572160    -1.016469735017    -1.218159970130     1.007825032230
         H            0.316309572160     0.756164264983    -1.189500970130     1.007825032230
         H           -0.323223427840     0.756154264983     1.211626029870     1.007825032230
         H           -0.349776427840    -1.016479735017     1.240270029870     1.007825032230

  Basis Set: AUG-CC-PVTZ
    Blend: AUG-CC-PVTZ
  Basis Set: (AUG-CC-PVTZ AUX)
    Blend: AUG-CC-PVTZ-JKFIT
	 Reference Energy          =    -502.5969655014321233 [Eh]
	 Singles Energy            =      -0.0000000000000000 [Eh]
	 Same-Spin Energy          =      -0.4437605863925792 [Eh]
	 Opposite-Spin Energy      =      -1.3262684812510832 [Eh]
	 Correlation Energy        =      -1.7700290676436623 [Eh]
	 Total Energy              =    -504.3669945690758141 [Eh]

	 ================> DF-SCS-MP2 Energies <==================
	-----------------------------------------------------------
	 SCS Same-Spin Scale       =       0.3333333333333333 [-]
	 SCS Opposite-Spin Scale   =       1.2000000000000000 [-]
	 SCS Same-Spin Energy      =      -0.1479201954641930 [Eh]
	 SCS Opposite-Spin Energy  =      -1.5915221775012998 [Eh]
	 SCS Correlation Energy    =      -1.7394423729654929 [Eh]
	 SCS Total Energy          =    -504.3364078743975938 [Eh]
	-----------------------------------------------------------

  Dipole Moment: [D]
     X:     0.0878      Y:     0.6244      Z:    -0.0176     Total:     0.6308

*** Psi4 exiting successfully. Buy a developer a beer!
