                               Psi4 1.3.2 release

  ==> Input File <==

--------------------------------------------------------------------------
#psi4
#
memory 32 gb

molecule  {
0 1
  F        2.1226300     0.9082170     0.7600610
  F       -2.1226300     0.9082210    -0.7600560
  O        2.8120520    -0.8324970    -0.4615260
  O       -2.8120520    -0.8324980     0.4615220
  C        0.5442046     0.0429747    -0.7812225
  C       -0.4856120    -0.1117600     0.5938040
  C        1.9157900    -0.1063220    -0.1389790
  C       -1.9157900    -0.1063230     0.1389780
  H        0.3463190    -0.9890650    -1.2292190
  H        0.3197670     0.7835690    -1.2005600
  H       -0.3197660     0.7835590     1.2005670
  H       -0.3463190    -0.9890750     1.2292110
units angstrom
no_reorient  #important for SAPT in psi4, default
symmetry c1  #important for SAPT in psi4, default
}

set PROPERTIES_ORIGIN ["COM"]
properties('MP2/aug-cc-pvtz', properties = ['dipole'])
--------------------------------------------------------------------------

    Molecular point group: c1
  Charge       = 0
  Multiplicity = 1
  Basis Set: AUG-CC-PVTZ
    Blend: AUG-CC-PVTZ
  Basis Set: (AUG-CC-PVTZ AUX)
    Blend: AUG-CC-PVTZ-JKFIT

    Orbital Energies [Eh]
    ---------------------

    Doubly Occupied:

       1A    -26.348570     2A    -26.346489     3A    -20.607906
       4A    -20.602391     5A    -11.454059     6A    -11.447496
       7A    -11.308676     8A    -11.303683     9A     -1.666795
      10A     -1.664794    11A     -1.444744    12A     -1.440485
      13A     -1.121271    14A     -1.012046    15A     -0.870834
      16A     -0.858118    17A     -0.785315    18A     -0.750414
      19A     -0.741672    20A     -0.736794    21A     -0.733646
      22A     -0.717804    23A     -0.686392    24A     -0.634496
      25A     -0.616012    26A     -0.603219    27A     -0.569952
      28A     -0.558965    29A     -0.527639    30A     -0.516997
      31A     -0.484469

  @DF-RHF Final Energy:  -502.54918793929590

   => Energetics <=

    Nuclear Repulsion Energy =            361.4256338722569240
    One-Electron Energy =               -1409.6253537932914242
    Two-Electron Energy =                 545.6505319817385953
    Total Energy =                       -502.5491879392959618
  Basis Set: (AUG-CC-PVTZ AUX)
    Blend: AUG-CC-PVTZ-RI
    Molecular point group: c1

    Geometry (in Angstrom), charge = 0, multiplicity = 1:

       Center              X                  Y                   Z               Mass
    ------------   -----------------  -----------------  -----------------  -----------------
         F            2.116867632330     0.874725392625     0.778492749256    18.998403162730
         F           -2.128392367670     0.874729392625    -0.741624250744    18.998403162730
         O            2.806289632330    -0.865988607375    -0.443094250744    15.994914619570
         O           -2.817814367670    -0.865989607375     0.479953749256    15.994914619570
         C            0.538442232330     0.009483092625    -0.762790750744    12.000000000000
         C           -0.491374367670    -0.145251607375     0.612235749256    12.000000000000
         C            1.910027632330    -0.139813607375    -0.120547250744    12.000000000000
         C           -1.921552367670    -0.139814607375     0.157409749256    12.000000000000
         H            0.340556632330    -1.022556607375    -1.210787250744     1.007825032230
         H            0.314004632330     0.750077392625    -1.182128250744     1.007825032230
         H           -0.325528367670     0.750067392625     1.218998749256     1.007825032230
         H           -0.352081367670    -1.022566607375     1.247642749256     1.007825032230

  Basis Set: AUG-CC-PVTZ
    Blend: AUG-CC-PVTZ
  Basis Set: (AUG-CC-PVTZ AUX)
    Blend: AUG-CC-PVTZ-JKFIT
	 Reference Energy          =    -502.5491879392959049 [Eh]
	 Singles Energy            =      -0.0000000000000000 [Eh]
	 Same-Spin Energy          =      -0.4442243485202766 [Eh]
	 Opposite-Spin Energy      =      -1.3282901588838452 [Eh]
	 Correlation Energy        =      -1.7725145074041218 [Eh]
	 Total Energy              =    -504.3217024467000442 [Eh]

	 ================> DF-SCS-MP2 Energies <==================
	-----------------------------------------------------------
	 SCS Same-Spin Scale       =       0.3333333333333333 [-]
	 SCS Opposite-Spin Scale   =       1.2000000000000000 [-]
	 SCS Same-Spin Energy      =      -0.1480747828400922 [Eh]
	 SCS Opposite-Spin Energy  =      -1.5939481906606141 [Eh]
	 SCS Correlation Energy    =      -1.7420229735007062 [Eh]
	 SCS Total Energy          =    -504.2912109127966005 [Eh]
	-----------------------------------------------------------

  Dipole Moment: [D]
     X:     0.1447      Y:     0.6264      Z:    -0.0103     Total:     0.6430

*** Psi4 exiting successfully. Buy a developer a beer!
