                               Psi4 1.3.2 release

  ==> Input File <==

--------------------------------------------------------------------------
#psi4
#
memory 32 gb

molecule  {
0 1
  F        2.1226300     0.9082170     0.7600610
  F       -2.1226300     0.9082210    -0.7600560
  O        2.8120520    -0.8324970    -0.4615260
  O       -2.8120520    -0.8324980     0.4615220
  C        0.4973305    -0.0808099    -0.6312885
  C       -0.4856120    -0.1117600     0.5938040
  C        1.9157900    -0.1063220    -0.1389790
  C       -1.9157900    -0.1063230     0.1389780
  H        0.3463190    -0.9890650    -1.2292190
  H        0.3197670     0.7835690    -1.2005600
  H       -0.3197660     0.7835590     1.2005670
  H       -0.3463190    -0.9890750     1.2292110
units angstrom
no_reorient  #important for SAPT in psi4, default
symmetry c1  #important for SAPT in psi4, default
}

set PROPERTIES_ORIGIN ["COM"]
properties('MP2/aug-cc-pvtz', properties = ['dipole'])
--------------------------------------------------------------------------

    Molecular point group: c1
  Charge       = 0
  Multiplicity = 1
  Basis Set: AUG-CC-PVTZ
    Blend: AUG-CC-PVTZ
  Basis Set: (AUG-CC-PVTZ AUX)
    Blend: AUG-CC-PVTZ-JKFIT

    Orbital Energies [Eh]
    ---------------------

    Doubly Occupied:

       1A    -26.348266     2A    -26.347933     3A    -20.605780
       4A    -20.604742     5A    -11.450076     6A    -11.449365
       7A    -11.303236     8A    -11.300848     9A     -1.666641
      10A     -1.666145    11A     -1.443215    12A     -1.442397
      13A     -1.136092    14A     -1.006750    15A     -0.865452
      16A     -0.856518    17A     -0.773869    18A     -0.751331
      19A     -0.742145    20A     -0.735383    21A     -0.730875
      22A     -0.717660    23A     -0.676599    24A     -0.636822
      25A     -0.624578    26A     -0.592647    27A     -0.583538
      28A     -0.554620    29A     -0.537602    30A     -0.521134
      31A     -0.496111

  @DF-RHF Final Energy:  -502.61790543104684

   => Energetics <=

    Nuclear Repulsion Energy =            363.0094312943850241
    One-Electron Energy =               -1412.9179353692611585
    Two-Electron Energy =                 547.2905986438292985
    Total Energy =                       -502.6179054310468928
  Basis Set: (AUG-CC-PVTZ AUX)
    Blend: AUG-CC-PVTZ-RI
    Molecular point group: c1

    Geometry (in Angstrom), charge = 0, multiplicity = 1:

       Center              X                  Y                   Z               Mass
    ------------   -----------------  -----------------  -----------------  -----------------
         F            2.121477521825     0.886899137342     0.763747310483    18.998403162730
         F           -2.123782478175     0.886903137342    -0.756369689517    18.998403162730
         O            2.810899521825    -0.853814862658    -0.457839689517    15.994914619570
         O           -2.813204478175    -0.853815862658     0.465208310483    15.994914619570
         C            0.496178021825    -0.102127762658    -0.627602189517    12.000000000000
         C           -0.486764478175    -0.133077862658     0.597490310483    12.000000000000
         C            1.914637521825    -0.127639862658    -0.135292689517    12.000000000000
         C           -1.916942478175    -0.127640862658     0.142664310483    12.000000000000
         H            0.345166521825    -1.010382862658    -1.225532689517     1.007825032230
         H            0.318614521825     0.762251137342    -1.196873689517     1.007825032230
         H           -0.320918478175     0.762241137342     1.204253310483     1.007825032230
         H           -0.347471478175    -1.010392862658     1.232897310483     1.007825032230

  Basis Set: AUG-CC-PVTZ
    Blend: AUG-CC-PVTZ
  Basis Set: (AUG-CC-PVTZ AUX)
    Blend: AUG-CC-PVTZ-JKFIT
	 Reference Energy          =    -502.6179054310468359 [Eh]
	 Singles Energy            =      -0.0000000000000000 [Eh]
	 Same-Spin Energy          =      -0.4437909076166139 [Eh]
	 Opposite-Spin Energy      =      -1.3255236567539379 [Eh]
	 Correlation Energy        =      -1.7693145643705517 [Eh]
	 Total Energy              =    -504.3872199954174107 [Eh]

	 ================> DF-SCS-MP2 Energies <==================
	-----------------------------------------------------------
	 SCS Same-Spin Scale       =       0.3333333333333333 [-]
	 SCS Opposite-Spin Scale   =       1.2000000000000000 [-]
	 SCS Same-Spin Energy      =      -0.1479303025388713 [Eh]
	 SCS Opposite-Spin Energy  =      -1.5906283881047254 [Eh]
	 SCS Correlation Energy    =      -1.7385586906435968 [Eh]
	 SCS Total Energy          =    -504.3564641216904079 [Eh]
	-----------------------------------------------------------

  Dipole Moment: [D]
     X:     0.0299      Y:     0.6132      Z:    -0.0096     Total:     0.6140

*** Psi4 exiting successfully. Buy a developer a beer!
