                               Psi4 1.3.2 release

  ==> Input File <==

--------------------------------------------------------------------------
#psi4
#
memory 32 gb

molecule  {
0 1
  F        2.1226300     0.9082170     0.7600610
  F       -2.1226300     0.9082210    -0.7600560
  O        2.8120520    -0.8324970    -0.4615260
  O       -2.8120520    -0.8324980     0.4615220
  C        0.4856120    -0.1117560    -0.5938050
  C       -0.4856120    -0.1117600     0.5938040
  C        1.9157900    -0.1063220    -0.1389790
  C       -1.9157900    -0.1063230     0.1389780
  H        0.3463190    -0.9890650    -1.2292190
  H        0.3197670     0.7835690    -1.2005600
  H       -0.3197660     0.7835590     1.2005670
  H       -0.3463190    -0.9890750     1.2292110
units angstrom
no_reorient  #important for SAPT in psi4, default
symmetry c1  #important for SAPT in psi4, default
}

set PROPERTIES_ORIGIN ["COM"]
properties('MP2/aug-cc-pvtz', properties = ['dipole'])
--------------------------------------------------------------------------

    Molecular point group: c1
  Charge       = 0
  Multiplicity = 1
  Basis Set: AUG-CC-PVTZ
    Blend: AUG-CC-PVTZ
  Basis Set: (AUG-CC-PVTZ AUX)
    Blend: AUG-CC-PVTZ-JKFIT

    Orbital Energies [Eh]
    ---------------------

    Doubly Occupied:

       1A    -26.348250     2A    -26.348250     3A    -20.605389
       4A    -20.605389     5A    -11.449945     6A    -11.449944
       7A    -11.302042     8A    -11.301449     9A     -1.666712
      10A     -1.666338    11A     -1.443076    12A     -1.442822
      13A     -1.141068    14A     -1.005484    15A     -0.866156
      16A     -0.855628    17A     -0.773508    18A     -0.751880
      19A     -0.743335    20A     -0.735351    21A     -0.730633
      22A     -0.717145    23A     -0.673942    24A     -0.637475
      25A     -0.627767    26A     -0.594644    27A     -0.580235
      28A     -0.552446    29A     -0.539571    30A     -0.520451
      31A     -0.496886

  @DF-RHF Final Energy:  -502.61998602845938

   => Energetics <=

    Nuclear Repulsion Energy =            363.3703568327291578
    One-Electron Energy =               -1413.6342615884750558
    Two-Electron Energy =                 547.6439187272865183
    Total Energy =                       -502.6199860284593797
  Basis Set: (AUG-CC-PVTZ AUX)
    Blend: AUG-CC-PVTZ-RI
    Molecular point group: c1

    Geometry (in Angstrom), charge = 0, multiplicity = 1:

       Center              X                  Y                   Z               Mass
    ------------   -----------------  -----------------  -----------------  -----------------
         F            2.122629991740     0.889942568604     0.760060950790    18.998403162730
         F           -2.122630008260     0.889946568604    -0.760056049210    18.998403162730
         O            2.812051991740    -0.850771431396    -0.461526049210    15.994914619570
         O           -2.812052008260    -0.850772431396     0.461521950790    15.994914619570
         C            0.485611991740    -0.130030431396    -0.593805049210    12.000000000000
         C           -0.485612008260    -0.130034431396     0.593803950790    12.000000000000
         C            1.915789991740    -0.124596431396    -0.138979049210    12.000000000000
         C           -1.915790008260    -0.124597431396     0.138977950790    12.000000000000
         H            0.346318991740    -1.007339431396    -1.229219049210     1.007825032230
         H            0.319766991740     0.765294568604    -1.200560049210     1.007825032230
         H           -0.319766008260     0.765284568604     1.200566950790     1.007825032230
         H           -0.346319008260    -1.007349431396     1.229210950790     1.007825032230

  Basis Set: AUG-CC-PVTZ
    Blend: AUG-CC-PVTZ
  Basis Set: (AUG-CC-PVTZ AUX)
    Blend: AUG-CC-PVTZ-JKFIT
	 Reference Energy          =    -502.6199860284593797 [Eh]
	 Singles Energy            =      -0.0000000000000000 [Eh]
	 Same-Spin Energy          =      -0.4439904531715807 [Eh]
	 Opposite-Spin Energy      =      -1.3256131521721186 [Eh]
	 Correlation Energy        =      -1.7696036053436992 [Eh]
	 Total Energy              =    -504.3895896338030980 [Eh]

	 ================> DF-SCS-MP2 Energies <==================
	-----------------------------------------------------------
	 SCS Same-Spin Scale       =       0.3333333333333333 [-]
	 SCS Opposite-Spin Scale   =       1.2000000000000000 [-]
	 SCS Same-Spin Energy      =      -0.1479968177238602 [Eh]
	 SCS Opposite-Spin Energy  =      -1.5907357826065422 [Eh]
	 SCS Correlation Energy    =      -1.7387326003304024 [Eh]
	 SCS Total Energy          =    -504.3587186287898021 [Eh]
	-----------------------------------------------------------

  Dipole Moment: [D]
     X:    -0.0000      Y:     0.6039      Z:     0.0000     Total:     0.6039

*** Psi4 exiting successfully. Buy a developer a beer!
