                               Psi4 1.3.2 release

  ==> Input File <==

--------------------------------------------------------------------------
#psi4
#
memory 32 gb

molecule  {
0 1
  F        2.1226300     0.9082170     0.7600610
  F       -2.1226300     0.9082210    -0.7600560
  O        2.8120520    -0.8324970    -0.4615260
  O       -2.8120520    -0.8324980     0.4615220
  C        0.5090490    -0.0498637    -0.6687720
  C       -0.4856120    -0.1117600     0.5938040
  C        1.9157900    -0.1063220    -0.1389790
  C       -1.9157900    -0.1063230     0.1389780
  H        0.3463190    -0.9890650    -1.2292190
  H        0.3197670     0.7835690    -1.2005600
  H       -0.3197660     0.7835590     1.2005670
  H       -0.3463190    -0.9890750     1.2292110
units angstrom
no_reorient  #important for SAPT in psi4, default
symmetry c1  #important for SAPT in psi4, default
}

set PROPERTIES_ORIGIN ["COM"]
properties('MP2/aug-cc-pvtz', properties = ['dipole'])
--------------------------------------------------------------------------

    Molecular point group: c1
  Charge       = 0
  Multiplicity = 1
  Basis Set: AUG-CC-PVTZ
    Blend: AUG-CC-PVTZ
  Basis Set: (AUG-CC-PVTZ AUX)
    Blend: AUG-CC-PVTZ-JKFIT

    Orbital Energies [Eh]
    ---------------------

    Doubly Occupied:

       1A    -26.348297     2A    -26.347606     3A    -20.606217
       4A    -20.604120     5A    -11.450542     6A    -11.448836
       7A    -11.304666     8A    -11.300594     9A     -1.666639
      10A     -1.665867    11A     -1.443500    12A     -1.441898
      13A     -1.131621    14A     -1.007974    15A     -0.865248
      16A     -0.857388    17A     -0.775003    18A     -0.750951
      19A     -0.741323    20A     -0.735496    21A     -0.731616
      22A     -0.718052    23A     -0.679591    24A     -0.636199
      25A     -0.622044    26A     -0.594729    27A     -0.581923
      28A     -0.556275    29A     -0.534934    30A     -0.521079
      31A     -0.494636

  @DF-RHF Final Energy:  -502.61042672709976

   => Energetics <=

    Nuclear Repulsion Energy =            362.6327405123636822
    One-Electron Energy =               -1412.1566015156902267
    Two-Electron Energy =                 546.9134342762267806
    Total Energy =                       -502.6104267270998207
  Basis Set: (AUG-CC-PVTZ AUX)
    Blend: AUG-CC-PVTZ-RI
    Molecular point group: c1

    Geometry (in Angstrom), charge = 0, multiplicity = 1:

       Center              X                  Y                   Z               Mass
    ------------   -----------------  -----------------  -----------------  -----------------
         F            2.120325051910     0.883855696245     0.767433670176    18.998403162730
         F           -2.124934948090     0.883859696245    -0.752683329824    18.998403162730
         O            2.809747051910    -0.856858303755    -0.454153329824    15.994914619570
         O           -2.814356948090    -0.856859303755     0.468894670176    15.994914619570
         C            0.506744051910    -0.074225003755    -0.661399329824    12.000000000000
         C           -0.487916948090    -0.136121303755     0.601176670176    12.000000000000
         C            1.913485051910    -0.130683303755    -0.131606329824    12.000000000000
         C           -1.918094948090    -0.130684303755     0.146350670176    12.000000000000
         H            0.344014051910    -1.013426303755    -1.221846329824     1.007825032230
         H            0.317462051910     0.759207696245    -1.193187329824     1.007825032230
         H           -0.322070948090     0.759197696245     1.207939670176     1.007825032230
         H           -0.348623948090    -1.013436303755     1.236583670176     1.007825032230

  Basis Set: AUG-CC-PVTZ
    Blend: AUG-CC-PVTZ
  Basis Set: (AUG-CC-PVTZ AUX)
    Blend: AUG-CC-PVTZ-JKFIT
	 Reference Energy          =    -502.6104267270997639 [Eh]
	 Singles Energy            =      -0.0000000000000000 [Eh]
	 Same-Spin Energy          =      -0.4437141503681303 [Eh]
	 Opposite-Spin Energy      =      -1.3257394729531891 [Eh]
	 Correlation Energy        =      -1.7694536233213194 [Eh]
	 Total Energy              =    -504.3798803504211037 [Eh]

	 ================> DF-SCS-MP2 Energies <==================
	-----------------------------------------------------------
	 SCS Same-Spin Scale       =       0.3333333333333333 [-]
	 SCS Opposite-Spin Scale   =       1.2000000000000000 [-]
	 SCS Same-Spin Energy      =      -0.1479047167893768 [Eh]
	 SCS Opposite-Spin Energy  =      -1.5908873675438269 [Eh]
	 SCS Correlation Energy    =      -1.7387920843332036 [Eh]
	 SCS Total Energy          =    -504.3492188114329906 [Eh]
	-----------------------------------------------------------

  Dipole Moment: [D]
     X:     0.0591      Y:     0.6199      Z:    -0.0154     Total:     0.6229

*** Psi4 exiting successfully. Buy a developer a beer!
