                               Psi4 1.4a3.dev225

  ==> Input File <==

--------------------------------------------------------------------------
#psi4
#
memory 32 gb

molecule  {
0 1
 Br        2.8426960    -0.9006560     0.0010230
 Br       -2.8426960    -0.9006560     0.0010230
  C        0.0000000     2.1518200    -0.0164640
  C       -1.2077220     1.4432500    -0.0102500
  C        1.2077220     1.4432500    -0.0102500
  C        0.0000000     3.6581740     0.0136870
  C        1.1904140     0.0494840    -0.0007470
  C       -1.2150132     0.0074980    -0.0006521
  C        0.0000000    -0.6761360     0.0051700
  H       -2.1574180     1.9720780    -0.0184260
  H        2.1574190     1.9720770    -0.0184250
  H        0.0000100     4.0273730     1.0446560
  H        0.8857670     4.0597820    -0.4855720
  H       -0.8857760     4.0597820    -0.4855540
  H       -0.0000010    -1.7611180     0.0093060
units angstrom
no_reorient  #important for SAPT in psi4, default
symmetry c1  #important for SAPT in psi4, default
}

set PROPERTIES_ORIGIN ["COM"]
properties('MP2/aug-cc-pvtz', properties = ['dipole'])
--------------------------------------------------------------------------

    Molecular point group: c1
  Charge       = 0
  Multiplicity = 1
  Basis Set: AUG-CC-PVTZ
    Blend: AUG-CC-PVTZ
  Basis Set: (AUG-CC-PVTZ AUX)
    Blend: AUG-CC-PVTZ-JKFIT

    Orbital Energies [Eh]
    ---------------------

    Doubly Occupied:

       1A   -490.035849     2A   -490.031371     3A    -65.175733
       4A    -65.171068     5A    -58.531034     6A    -58.529650
       7A    -58.529615     8A    -58.526396     9A    -58.524986
      10A    -58.524958    11A    -11.315667    12A    -11.313712
      13A    -11.270801    14A    -11.263508    15A    -11.261454
      16A    -11.258460    17A    -11.241997    18A     -9.848739
      19A     -9.843759    20A     -7.460488    21A     -7.455401
      22A     -7.453522    23A     -7.453438    24A     -7.448516
      25A     -7.448473    26A     -3.204336    27A     -3.200655
      28A     -3.200378    29A     -3.199198    30A     -3.195625
      31A     -3.195409    32A     -3.191586    33A     -3.191577
      34A     -3.186615    35A     -3.186606    36A     -1.190771
      37A     -1.098436    38A     -1.087661    39A     -1.006006
      40A     -0.974098    41A     -0.956210    42A     -0.817496
      43A     -0.809191    44A     -0.705701    45A     -0.674291
      46A     -0.604338    47A     -0.596438    48A     -0.589352
      49A     -0.578184    50A     -0.559758    51A     -0.540109
      52A     -0.510096    53A     -0.496561    54A     -0.469476
      55A     -0.427166    56A     -0.423410    57A     -0.420422
      58A     -0.345469    59A     -0.334182

  @DF-RHF Final Energy: -5413.57992917121283

   => Energetics <=

    Nuclear Repulsion Energy =            881.9895667297214459
    One-Electron Energy =               -9284.9681910502094979
    Two-Electron Energy =                2989.3986951492743174
    Total Energy =                      -5413.5799291712128252
  Basis Set: (AUG-CC-PVTZ AUX)
    Blend: AUG-CC-PVTZ-RI
    Molecular point group: c1

    Geometry (in Angstrom), charge = 0, multiplicity = 1:

       Center              X                  Y                   Z               Mass
    ------------   -----------------  -----------------  -----------------  -----------------
         BR           2.843886838611    -0.776459163756     0.001128942646    78.918337600000
         BR          -2.841505161389    -0.776459163756     0.001128942646    78.918337600000
         C            0.001190838611     2.276016836244    -0.016358057354    12.000000000000
         C           -1.206531161389     1.567446836244    -0.010144057354    12.000000000000
         C            1.208912838611     1.567446836244    -0.010144057354    12.000000000000
         C            0.001190838611     3.782370836244     0.013792942646    12.000000000000
         C            1.191604838611     0.173680836244    -0.000641057354    12.000000000000
         C           -1.213822361389     0.131694836244    -0.000546157354    12.000000000000
         C            0.001190838611    -0.551939163756     0.005275942646    12.000000000000
         H           -2.156227161389     2.096274836244    -0.018320057354     1.007825032230
         H            2.158609838611     2.096273836244    -0.018319057354     1.007825032230
         H            0.001200838611     4.151569836244     1.044761942646     1.007825032230
         H            0.886957838611     4.183978836244    -0.485466057354     1.007825032230
         H           -0.884585161389     4.183978836244    -0.485448057354     1.007825032230
         H            0.001189838611    -1.636921163756     0.009411942646     1.007825032230

  Basis Set: AUG-CC-PVTZ
    Blend: AUG-CC-PVTZ
  Basis Set: (AUG-CC-PVTZ AUX)
    Blend: AUG-CC-PVTZ-JKFIT
	 Reference Energy          =   -5413.5799291712128252 [Eh]
	 Singles Energy            =      -0.0000000000000000 [Eh]
	 Same-Spin Energy          =      -0.4884854831474583 [Eh]
	 Opposite-Spin Energy      =      -1.3651685029510601 [Eh]
	 Correlation Energy        =      -1.8536539860985184 [Eh]
	 Total Energy              =   -5415.4335831573116593 [Eh]

	 ================> DF-SCS-MP2 Energies <==================
	-----------------------------------------------------------
	 SCS Same-Spin Scale       =       0.3333333333333333 [-]
	 SCS Opposite-Spin Scale   =       1.2000000000000000 [-]
	 SCS Same-Spin Energy      =      -0.1628284943824861 [Eh]
	 SCS Opposite-Spin Energy  =      -1.6382022035412720 [Eh]
	 SCS Correlation Energy    =      -1.8010306979237580 [Eh]
	 SCS Total Energy          =   -5415.3809598691368592 [Eh]
	-----------------------------------------------------------

  Dipole Moment: [D]
     X:    -0.1782      Y:     2.0654      Z:     0.0364     Total:     2.0734

*** Psi4 exiting successfully. Buy a developer a beer!
