                               Psi4 1.4a3.dev225

  ==> Input File <==

--------------------------------------------------------------------------
#psi4
#
memory 32 gb

molecule  {
0 1
 Br        2.9049492    -0.7830861     0.0003075
 Br       -2.8426960    -0.9006560     0.0010230
  C        0.0000000     2.1518200    -0.0164640
  C       -1.2077220     1.4432500    -0.0102500
  C        1.2077220     1.4432500    -0.0102500
  C        0.0000000     3.6581740     0.0136870
  C        1.1904140     0.0494840    -0.0007470
  C       -1.1904140     0.0494850    -0.0007470
  C        0.0000000    -0.6761360     0.0051700
  H       -2.1574180     1.9720780    -0.0184260
  H        2.1574190     1.9720770    -0.0184250
  H        0.0000100     4.0273730     1.0446560
  H        0.8857670     4.0597820    -0.4855720
  H       -0.8857760     4.0597820    -0.4855540
  H       -0.0000010    -1.7611180     0.0093060
units angstrom
no_reorient  #important for SAPT in psi4, default
symmetry c1  #important for SAPT in psi4, default
}

set PROPERTIES_ORIGIN ["COM"]
properties('MP2/aug-cc-pvtz', properties = ['dipole'])
--------------------------------------------------------------------------

    Molecular point group: c1
  Charge       = 0
  Multiplicity = 1
  Basis Set: AUG-CC-PVTZ
    Blend: AUG-CC-PVTZ
  Basis Set: (AUG-CC-PVTZ AUX)
    Blend: AUG-CC-PVTZ-JKFIT

    Orbital Energies [Eh]
    ---------------------

    Doubly Occupied:

       1A   -490.032337     2A   -490.031917     3A    -65.172039
       4A    -65.171631     5A    -58.527366     6A    -58.526957
       7A    -58.525956     8A    -58.525927     9A    -58.525547
      10A    -58.525516    11A    -11.315486    12A    -11.314886
      13A    -11.271763    14A    -11.266121    15A    -11.258816
      16A    -11.257379    17A    -11.242556    18A     -9.844734
      19A     -9.844338    20A     -7.456375    21A     -7.455980
      22A     -7.449492    23A     -7.449444    24A     -7.449098
      25A     -7.449046    26A     -3.200171    27A     -3.199775
      28A     -3.196598    29A     -3.196380    30A     -3.196207
      31A     -3.195981    32A     -3.187589    33A     -3.187580
      34A     -3.187190    35A     -3.187181    36A     -1.195032
      37A     -1.096075    38A     -1.087496    39A     -1.005522
      40A     -0.975440    41A     -0.959388    42A     -0.816762
      43A     -0.812938    44A     -0.709030    45A     -0.677499
      46A     -0.603798    47A     -0.597748    48A     -0.589245
      49A     -0.582593    50A     -0.560006    51A     -0.542035
      52A     -0.509658    53A     -0.491875    54A     -0.467738
      55A     -0.425674    56A     -0.422845    57A     -0.420091
      58A     -0.346433    59A     -0.339105

  @DF-RHF Final Energy: -5413.58200544092415

   => Energetics <=

    Nuclear Repulsion Energy =            880.8726393636748071
    One-Electron Energy =               -9282.7905230917949666
    Two-Electron Energy =                2988.3358782871955555
    Total Energy =                      -5413.5820054409241493
  Basis Set: (AUG-CC-PVTZ AUX)
    Blend: AUG-CC-PVTZ-RI
    Molecular point group: c1

    Geometry (in Angstrom), charge = 0, multiplicity = 1:

       Center              X                  Y                   Z               Mass
    ------------   -----------------  -----------------  -----------------  -----------------
         BR           2.885129738128    -0.698352399105     0.000645829398    78.918337600000
         BR          -2.862515461872    -0.815922299105     0.001361329398    78.918337600000
         C           -0.019819461872     2.236553700895    -0.016125670602    12.000000000000
         C           -1.227541461872     1.527983700895    -0.009911670602    12.000000000000
         C            1.187902538128     1.527983700895    -0.009911670602    12.000000000000
         C           -0.019819461872     3.742907700895     0.014025329398    12.000000000000
         C            1.170594538128     0.134217700895    -0.000408670602    12.000000000000
         C           -1.210233461872     0.134218700895    -0.000408670602    12.000000000000
         C           -0.019819461872    -0.591402299105     0.005508329398    12.000000000000
         H           -2.177237461872     2.056811700895    -0.018087670602     1.007825032230
         H            2.137599538128     2.056810700895    -0.018086670602     1.007825032230
         H           -0.019809461872     4.112106700895     1.044994329398     1.007825032230
         H            0.865947538128     4.144515700895    -0.485233670602     1.007825032230
         H           -0.905595461872     4.144515700895    -0.485215670602     1.007825032230
         H           -0.019820461872    -1.676384299105     0.009644329398     1.007825032230

  Basis Set: AUG-CC-PVTZ
    Blend: AUG-CC-PVTZ
  Basis Set: (AUG-CC-PVTZ AUX)
    Blend: AUG-CC-PVTZ-JKFIT
	 Reference Energy          =   -5413.5820054409241493 [Eh]
	 Singles Energy            =      -0.0000000000000000 [Eh]
	 Same-Spin Energy          =      -0.4880900417128414 [Eh]
	 Opposite-Spin Energy      =      -1.3644080956502531 [Eh]
	 Correlation Energy        =      -1.8524981373630944 [Eh]
	 Total Energy              =   -5415.4345035782871491 [Eh]

	 ================> DF-SCS-MP2 Energies <==================
	-----------------------------------------------------------
	 SCS Same-Spin Scale       =       0.3333333333333333 [-]
	 SCS Opposite-Spin Scale   =       1.2000000000000000 [-]
	 SCS Same-Spin Energy      =      -0.1626966805709471 [Eh]
	 SCS Opposite-Spin Energy  =      -1.6372897147803036 [Eh]
	 SCS Correlation Energy    =      -1.7999863953512507 [Eh]
	 SCS Total Energy          =   -5415.3819918362751196 [Eh]
	-----------------------------------------------------------

  Dipole Moment: [D]
     X:    -0.0281      Y:     2.1431      Z:     0.0368     Total:     2.1436

*** Psi4 exiting successfully. Buy a developer a beer!
