                               Psi4 1.4a3.dev225

  ==> Input File <==

--------------------------------------------------------------------------
#psi4
#
memory 32 gb

molecule  {
0 1
 Br        2.8426960    -0.9006560     0.0010230
 Br       -2.8426960    -0.9006560     0.0010230
  C        0.0000000     2.1518200    -0.0164640
  C       -1.2077220     1.4432500    -0.0102500
  C        1.2077220     1.4432500    -0.0102500
  C        0.0000000     3.6581740     0.0136870
  C        1.1904140     0.0494840    -0.0007470
  C       -1.1897932    -0.0005100    -0.0004061
  C        0.0000000    -0.6761360     0.0051700
  H       -2.1574180     1.9720780    -0.0184260
  H        2.1574190     1.9720770    -0.0184250
  H        0.0000100     4.0273730     1.0446560
  H        0.8857670     4.0597820    -0.4855720
  H       -0.8857760     4.0597820    -0.4855540
  H       -0.0000010    -1.7611180     0.0093060
units angstrom
no_reorient  #important for SAPT in psi4, default
symmetry c1  #important for SAPT in psi4, default
}

set PROPERTIES_ORIGIN ["COM"]
properties('MP2/aug-cc-pvtz', properties = ['dipole'])
--------------------------------------------------------------------------

    Molecular point group: c1
  Charge       = 0
  Multiplicity = 1
  Basis Set: AUG-CC-PVTZ
    Blend: AUG-CC-PVTZ
  Basis Set: (AUG-CC-PVTZ AUX)
    Blend: AUG-CC-PVTZ-JKFIT

    Orbital Energies [Eh]
    ---------------------

    Doubly Occupied:

       1A   -490.034179     2A   -490.031829     3A    -65.173979
       4A    -65.171525     5A    -58.529292     6A    -58.527896
       7A    -58.527863     8A    -58.526853     9A    -58.525443
      10A    -58.525413    11A    -11.314893    12A    -11.314418
      13A    -11.271037    14A    -11.262474    15A    -11.261355
      16A    -11.258997    17A    -11.242196    18A     -9.846841
      19A     -9.844216    20A     -7.458542    21A     -7.455856
      22A     -7.451613    23A     -7.451544    24A     -7.448976
      25A     -7.448926    26A     -3.202367    27A     -3.199652
      28A     -3.198735    29A     -3.198483    30A     -3.196085
      31A     -3.195860    32A     -3.189690    33A     -3.189680
      34A     -3.187073    35A     -3.187064    36A     -1.192873
      37A     -1.096351    38A     -1.088604    39A     -1.006757
      40A     -0.973500    41A     -0.957421    42A     -0.820387
      43A     -0.807925    44A     -0.707157    45A     -0.675537
      46A     -0.603171    47A     -0.597043    48A     -0.591220
      49A     -0.578977    50A     -0.560004    51A     -0.541582
      52A     -0.507238    53A     -0.496394    54A     -0.467955
      55A     -0.426237    56A     -0.423212    57A     -0.420649
      58A     -0.348849    59A     -0.333982

  @DF-RHF Final Energy: -5413.57997968044765

   => Energetics <=

    Nuclear Repulsion Energy =            881.9154998582916960
    One-Electron Energy =               -9284.8432202200165193
    Two-Electron Energy =                2989.3477406812771733
    Total Energy =                      -5413.5799796804467405
  Basis Set: (AUG-CC-PVTZ AUX)
    Blend: AUG-CC-PVTZ-RI
    Molecular point group: c1

    Geometry (in Angstrom), charge = 0, multiplicity = 1:

       Center              X                  Y                   Z               Mass
    ------------   -----------------  -----------------  -----------------  -----------------
         BR           2.842665943122    -0.776071497972     0.001117033832    78.918337600000
         BR          -2.842726056878    -0.776071497972     0.001117033832    78.918337600000
         C           -0.000030056878     2.276404502028    -0.016369966168    12.000000000000
         C           -1.207752056878     1.567834502028    -0.010155966168    12.000000000000
         C            1.207691943122     1.567834502028    -0.010155966168    12.000000000000
         C           -0.000030056878     3.782758502028     0.013781033832    12.000000000000
         C            1.190383943122     0.174068502028    -0.000652966168    12.000000000000
         C           -1.189823256878     0.124074502028    -0.000312066168    12.000000000000
         C           -0.000030056878    -0.551551497972     0.005264033832    12.000000000000
         H           -2.157448056878     2.096662502028    -0.018331966168     1.007825032230
         H            2.157388943122     2.096661502028    -0.018330966168     1.007825032230
         H           -0.000020056878     4.151957502028     1.044750033832     1.007825032230
         H            0.885736943122     4.184366502028    -0.485477966168     1.007825032230
         H           -0.885806056878     4.184366502028    -0.485459966168     1.007825032230
         H           -0.000031056878    -1.636533497972     0.009400033832     1.007825032230

  Basis Set: AUG-CC-PVTZ
    Blend: AUG-CC-PVTZ
  Basis Set: (AUG-CC-PVTZ AUX)
    Blend: AUG-CC-PVTZ-JKFIT
	 Reference Energy          =   -5413.5799796804476500 [Eh]
	 Singles Energy            =      -0.0000000000000000 [Eh]
	 Same-Spin Energy          =      -0.4881879613656873 [Eh]
	 Opposite-Spin Energy      =      -1.3648127742798966 [Eh]
	 Correlation Energy        =      -1.8530007356455838 [Eh]
	 Total Energy              =   -5415.4329804160934145 [Eh]

	 ================> DF-SCS-MP2 Energies <==================
	-----------------------------------------------------------
	 SCS Same-Spin Scale       =       0.3333333333333333 [-]
	 SCS Opposite-Spin Scale   =       1.2000000000000000 [-]
	 SCS Same-Spin Energy      =      -0.1627293204552291 [Eh]
	 SCS Opposite-Spin Energy  =      -1.6377753291358759 [Eh]
	 SCS Correlation Energy    =      -1.8005046495911050 [Eh]
	 SCS Total Energy          =   -5415.3804843300385983 [Eh]
	-----------------------------------------------------------

  Dipole Moment: [D]
     X:    -0.0947      Y:     2.1041      Z:     0.0366     Total:     2.1065

*** Psi4 exiting successfully. Buy a developer a beer!
