                               Psi4 1.4a3.dev225

  ==> Input File <==

--------------------------------------------------------------------------
#psi4
#
memory 32 gb

molecule  {
0 1
 Br        2.8426960    -0.9006560     0.0010230
 Br       -2.8426960    -0.9006560     0.0010230
  C        0.0456304     2.1532605    -0.0425687
  C       -1.2077220     1.4432500    -0.0102500
  C        1.2077220     1.4432500    -0.0102500
  C        0.0000000     3.6581740     0.0136870
  C        1.1904140     0.0494840    -0.0007470
  C       -1.1904140     0.0494850    -0.0007470
  C        0.0000000    -0.6761360     0.0051700
  H       -2.1574180     1.9720780    -0.0184260
  H        2.1574190     1.9720770    -0.0184250
  H        0.0000100     4.0273730     1.0446560
  H        0.8857670     4.0597820    -0.4855720
  H       -0.8857760     4.0597820    -0.4855540
  H       -0.0000010    -1.7611180     0.0093060
units angstrom
no_reorient  #important for SAPT in psi4, default
symmetry c1  #important for SAPT in psi4, default
}

set PROPERTIES_ORIGIN ["COM"]
properties('MP2/aug-cc-pvtz', properties = ['dipole'])
--------------------------------------------------------------------------

    Molecular point group: c1
  Charge       = 0
  Multiplicity = 1
  Basis Set: AUG-CC-PVTZ
    Blend: AUG-CC-PVTZ
  Basis Set: (AUG-CC-PVTZ AUX)
    Blend: AUG-CC-PVTZ-JKFIT

    Orbital Energies [Eh]
    ---------------------

    Doubly Occupied:

       1A   -490.032369     2A   -490.031571     3A    -65.172066
       4A    -65.171288     5A    -58.527394     6A    -58.526611
       7A    -58.525985     8A    -58.525954     9A    -58.525205
      10A    -58.525178    11A    -11.315436    12A    -11.314402
      13A    -11.272272    14A    -11.265035    15A    -11.262751
      16A    -11.254837    17A    -11.242983    18A     -9.844757
      19A     -9.843994    20A     -7.456396    21A     -7.455625
      22A     -7.449522    23A     -7.449463    24A     -7.448759
      25A     -7.448719    26A     -3.200193    27A     -3.199410
      28A     -3.196629    29A     -3.196396    30A     -3.195843
      31A     -3.195637    32A     -3.187615    33A     -3.187606
      34A     -3.186872    35A     -3.186862    36A     -1.195113
      37A     -1.095965    38A     -1.087931    39A     -1.004342
      40A     -0.977138    41A     -0.958850    42A     -0.820387
      43A     -0.809302    44A     -0.709044    45A     -0.677280
      46A     -0.605756    47A     -0.597487    48A     -0.588612
      49A     -0.582000    50A     -0.559989    51A     -0.542021
      52A     -0.511279    53A     -0.489278    54A     -0.467328
      55A     -0.426038    56A     -0.423345    57A     -0.419813
      58A     -0.348581    59A     -0.337271

  @DF-RHF Final Energy: -5413.58012548743136

   => Energetics <=

    Nuclear Repulsion Energy =            881.5731073946129754
    One-Electron Energy =               -9284.1949014499914483
    Two-Electron Energy =                2989.0416685679460898
    Total Energy =                      -5413.5801254874313599
  Basis Set: (AUG-CC-PVTZ AUX)
    Blend: AUG-CC-PVTZ-RI
    Molecular point group: c1

    Geometry (in Angstrom), charge = 0, multiplicity = 1:

       Center              X                  Y                   Z               Mass
    ------------   -----------------  -----------------  -----------------  -----------------
         BR           2.840487036794    -0.778561480919     0.002397260388    78.918337600000
         BR          -2.844904963206    -0.778561480919     0.002397260388    78.918337600000
         C            0.043421436794     2.275355019081    -0.041194439612    12.000000000000
         C           -1.209930963206     1.565344519081    -0.008875739612    12.000000000000
         C            1.205513036794     1.565344519081    -0.008875739612    12.000000000000
         C           -0.002208963206     3.780268519081     0.015061260388    12.000000000000
         C            1.188205036794     0.171578519081     0.000627260388    12.000000000000
         C           -1.192622963206     0.171579519081     0.000627260388    12.000000000000
         C           -0.002208963206    -0.554041480919     0.006544260388    12.000000000000
         H           -2.159626963206     2.094172519081    -0.017051739612     1.007825032230
         H            2.155210036794     2.094171519081    -0.017050739612     1.007825032230
         H           -0.002198963206     4.149467519081     1.046030260388     1.007825032230
         H            0.883558036794     4.181876519081    -0.484197739612     1.007825032230
         H           -0.887984963206     4.181876519081    -0.484179739612     1.007825032230
         H           -0.002209963206    -1.639023480919     0.010680260388     1.007825032230

  Basis Set: AUG-CC-PVTZ
    Blend: AUG-CC-PVTZ
  Basis Set: (AUG-CC-PVTZ AUX)
    Blend: AUG-CC-PVTZ-JKFIT
	 Reference Energy          =   -5413.5801254874313599 [Eh]
	 Singles Energy            =      -0.0000000000000000 [Eh]
	 Same-Spin Energy          =      -0.4879848395431640 [Eh]
	 Opposite-Spin Energy      =      -1.3644403109110139 [Eh]
	 Correlation Energy        =      -1.8524251504541780 [Eh]
	 Total Energy              =   -5415.4325506378854698 [Eh]

	 ================> DF-SCS-MP2 Energies <==================
	-----------------------------------------------------------
	 SCS Same-Spin Scale       =       0.3333333333333333 [-]
	 SCS Opposite-Spin Scale   =       1.2000000000000000 [-]
	 SCS Same-Spin Energy      =      -0.1626616131810547 [Eh]
	 SCS Opposite-Spin Energy  =      -1.6373283730932167 [Eh]
	 SCS Correlation Energy    =      -1.7999899862742714 [Eh]
	 SCS Total Energy          =   -5415.3801154737057004 [Eh]
	-----------------------------------------------------------

  Dipole Moment: [D]
     X:     0.0264      Y:     2.1710      Z:     0.0440     Total:     2.1716

*** Psi4 exiting successfully. Buy a developer a beer!
