                               Psi4 1.4a3.dev225

  ==> Input File <==

--------------------------------------------------------------------------
#psi4
#
memory 32 gb

molecule  {
0 1
 Br        2.8426960    -0.9006560     0.0010230
 Br       -2.9329600    -0.7227457    -0.0004392
  C        0.0000000     2.1518200    -0.0164640
  C       -1.2077220     1.4432500    -0.0102500
  C        1.2077220     1.4432500    -0.0102500
  C        0.0000000     3.6581740     0.0136870
  C        1.1904140     0.0494840    -0.0007470
  C       -1.1904140     0.0494850    -0.0007470
  C        0.0000000    -0.6761360     0.0051700
  H       -2.1574180     1.9720780    -0.0184260
  H        2.1574190     1.9720770    -0.0184250
  H        0.0000100     4.0273730     1.0446560
  H        0.8857670     4.0597820    -0.4855720
  H       -0.8857760     4.0597820    -0.4855540
  H       -0.0000010    -1.7611180     0.0093060
units angstrom
no_reorient  #important for SAPT in psi4, default
symmetry c1  #important for SAPT in psi4, default
}

set PROPERTIES_ORIGIN ["COM"]
properties('MP2/aug-cc-pvtz', properties = ['dipole'])
--------------------------------------------------------------------------

    Molecular point group: c1
  Charge       = 0
  Multiplicity = 1
  Basis Set: AUG-CC-PVTZ
    Blend: AUG-CC-PVTZ
  Basis Set: (AUG-CC-PVTZ AUX)
    Blend: AUG-CC-PVTZ-JKFIT

    Orbital Energies [Eh]
    ---------------------

    Doubly Occupied:

       1A   -490.032513     2A   -490.031859     3A    -65.172212
       4A    -65.171583     5A    -58.527541     6A    -58.526910
       7A    -58.526129     8A    -58.526100     9A    -58.525496
      10A    -58.525463    11A    -11.315728    12A    -11.314836
      13A    -11.271371    14A    -11.266795    15A    -11.258801
      16A    -11.256648    17A    -11.242367    18A     -9.844905
      19A     -9.844300    20A     -7.456550    21A     -7.455953
      22A     -7.449660    23A     -7.449613    24A     -7.449053
      25A     -7.448998    26A     -3.200348    27A     -3.199751
      28A     -3.196771    29A     -3.196554    30A     -3.196180
      31A     -3.195948    32A     -3.187755    33A     -3.187746
      34A     -3.187132    35A     -3.187122    36A     -1.195081
      37A     -1.096657    38A     -1.087051    39A     -1.006133
      40A     -0.974753    41A     -0.959322    42A     -0.816978
      43A     -0.812727    44A     -0.709074    45A     -0.677502
      46A     -0.603613    47A     -0.597641    48A     -0.589634
      49A     -0.582373    50A     -0.559973    51A     -0.542080
      52A     -0.509123    53A     -0.492129    54A     -0.468000
      55A     -0.425427    56A     -0.422645    57A     -0.420002
      58A     -0.346790    59A     -0.338746

  @DF-RHF Final Energy: -5413.58072407018426

   => Energetics <=

    Nuclear Repulsion Energy =            880.6867609254716172
    One-Electron Energy =               -9282.4146891080581554
    Two-Electron Energy =                2988.1472041124025054
    Total Energy =                      -5413.5807240701842602
  Basis Set: (AUG-CC-PVTZ AUX)
    Blend: AUG-CC-PVTZ-RI
    Molecular point group: c1

    Geometry (in Angstrom), charge = 0, multiplicity = 1:

       Center              X                  Y                   Z               Mass
    ------------   -----------------  -----------------  -----------------  -----------------
         BR           2.871433210076    -0.835132781648     0.001599055156    78.918337600000
         BR          -2.904222789924    -0.657222481648     0.000136855156    78.918337600000
         C            0.028737210076     2.217343218352    -0.015887944844    12.000000000000
         C           -1.178984789924     1.508773218352    -0.009673944844    12.000000000000
         C            1.236459210076     1.508773218352    -0.009673944844    12.000000000000
         C            0.028737210076     3.723697218352     0.014263055156    12.000000000000
         C            1.219151210076     0.115007218352    -0.000170944844    12.000000000000
         C           -1.161676789924     0.115008218352    -0.000170944844    12.000000000000
         C            0.028737210076    -0.610612781648     0.005746055156    12.000000000000
         H           -2.128680789924     2.037601218352    -0.017849944844     1.007825032230
         H            2.186156210076     2.037600218352    -0.017848944844     1.007825032230
         H            0.028747210076     4.092896218352     1.045232055156     1.007825032230
         H            0.914504210076     4.125305218352    -0.484995944844     1.007825032230
         H           -0.857038789924     4.125305218352    -0.484977944844     1.007825032230
         H            0.028736210076    -1.695594781648     0.009882055156     1.007825032230

  Basis Set: AUG-CC-PVTZ
    Blend: AUG-CC-PVTZ
  Basis Set: (AUG-CC-PVTZ AUX)
    Blend: AUG-CC-PVTZ-JKFIT
	 Reference Energy          =   -5413.5807240701842602 [Eh]
	 Singles Energy            =      -0.0000000000000000 [Eh]
	 Same-Spin Energy          =      -0.4881666945592722 [Eh]
	 Opposite-Spin Energy      =      -1.3645573967843236 [Eh]
	 Correlation Energy        =      -1.8527240913435958 [Eh]
	 Total Energy              =   -5415.4334481615278492 [Eh]

	 ================> DF-SCS-MP2 Energies <==================
	-----------------------------------------------------------
	 SCS Same-Spin Scale       =       0.3333333333333333 [-]
	 SCS Opposite-Spin Scale   =       1.2000000000000000 [-]
	 SCS Same-Spin Energy      =      -0.1627222315197574 [Eh]
	 SCS Opposite-Spin Energy  =      -1.6374688761411884 [Eh]
	 SCS Correlation Energy    =      -1.8001911076609458 [Eh]
	 SCS Total Energy          =   -5415.3809151778450541 [Eh]
	-----------------------------------------------------------

  Dipole Moment: [D]
     X:     0.0428      Y:     2.1258      Z:     0.0370     Total:     2.1266

*** Psi4 exiting successfully. Buy a developer a beer!
