                               Psi4 1.4a3.dev225

  ==> Input File <==

--------------------------------------------------------------------------
#psi4
#
memory 32 gb

molecule  {
0 1
 Br        2.8426960    -0.9006560     0.0010230
 Br       -2.8426960    -0.9006560     0.0010230
  C        0.0000000     2.1518200    -0.0164640
  C       -1.2077220     1.4432500    -0.0102500
  C        1.2249721     1.4331294    -0.0101612
  C        0.0000000     3.6581740     0.0136870
  C        1.1904140     0.0494840    -0.0007470
  C       -1.1904140     0.0494850    -0.0007470
  C        0.0000000    -0.6761360     0.0051700
  H       -2.1574180     1.9720780    -0.0184260
  H        2.1574190     1.9720770    -0.0184250
  H        0.0000100     4.0273730     1.0446560
  H        0.8857670     4.0597820    -0.4855720
  H       -0.8857760     4.0597820    -0.4855540
  H       -0.0000010    -1.7611180     0.0093060
units angstrom
no_reorient  #important for SAPT in psi4, default
symmetry c1  #important for SAPT in psi4, default
}

set PROPERTIES_ORIGIN ["COM"]
properties('MP2/aug-cc-pvtz', properties = ['dipole'])
--------------------------------------------------------------------------

    Molecular point group: c1
  Charge       = 0
  Multiplicity = 1
  Basis Set: AUG-CC-PVTZ
    Blend: AUG-CC-PVTZ
  Basis Set: (AUG-CC-PVTZ AUX)
    Blend: AUG-CC-PVTZ-JKFIT

    Orbital Energies [Eh]
    ---------------------

    Doubly Occupied:

       1A   -490.032133     2A   -490.031051     3A    -65.171840
       4A    -65.170787     5A    -58.527166     6A    -58.526106
       7A    -58.525759     8A    -58.525728     9A    -58.524706
      10A    -58.524677    11A    -11.315350    12A    -11.314272
      13A    -11.275042    14A    -11.264699    15A    -11.259235
      16A    -11.258698    17A    -11.243335    18A     -9.844539
      19A     -9.843512    20A     -7.456174    21A     -7.455137
      22A     -7.449305    23A     -7.449252    24A     -7.448288
      25A     -7.448241    26A     -3.199966    27A     -3.198914
      28A     -3.196402    29A     -3.196177    30A     -3.195360
      31A     -3.195143    32A     -3.187406    33A     -3.187397
      34A     -3.186404    35A     -3.186395    36A     -1.194458
      37A     -1.096114    38A     -1.086829    39A     -1.004195
      40A     -0.977099    41A     -0.959534    42A     -0.816473
      43A     -0.812545    44A     -0.710222    45A     -0.677278
      46A     -0.603840    47A     -0.597853    48A     -0.589823
      49A     -0.584617    50A     -0.560318    51A     -0.542232
      52A     -0.511265    53A     -0.489742    54A     -0.467549
      55A     -0.425731    56A     -0.422302    57A     -0.419595
      58A     -0.344406    59A     -0.340540

  @DF-RHF Final Energy: -5413.58247844983634

   => Energetics <=

    Nuclear Repulsion Energy =            881.5861254815579287
    One-Electron Energy =               -9284.2388943876412668
    Two-Electron Energy =                2989.0702904562476760
    Total Energy =                      -5413.5824784498363442
  Basis Set: (AUG-CC-PVTZ AUX)
    Blend: AUG-CC-PVTZ-RI
    Molecular point group: c1

    Geometry (in Angstrom), charge = 0, multiplicity = 1:

       Center              X                  Y                   Z               Mass
    ------------   -----------------  -----------------  -----------------  -----------------
         BR           2.841860921816    -0.778001810227     0.001129237946    78.918337600000
         BR          -2.843531078184    -0.778001810227     0.001129237946    78.918337600000
         C           -0.000835078184     2.274474189773    -0.016357762054    12.000000000000
         C           -1.208557078184     1.565904189773    -0.010143762054    12.000000000000
         C            1.224137021816     1.555783589773    -0.010054962054    12.000000000000
         C           -0.000835078184     3.780828189773     0.013793237946    12.000000000000
         C            1.189578921816     0.172138189773    -0.000640762054    12.000000000000
         C           -1.191249078184     0.172139189773    -0.000640762054    12.000000000000
         C           -0.000835078184    -0.553481810227     0.005276237946    12.000000000000
         H           -2.158253078184     2.094732189773    -0.018319762054     1.007825032230
         H            2.156583921816     2.094731189773    -0.018318762054     1.007825032230
         H           -0.000825078184     4.150027189773     1.044762237946     1.007825032230
         H            0.884931921816     4.182436189773    -0.485465762054     1.007825032230
         H           -0.886611078184     4.182436189773    -0.485447762054     1.007825032230
         H           -0.000836078184    -1.638463810227     0.009412237946     1.007825032230

  Basis Set: AUG-CC-PVTZ
    Blend: AUG-CC-PVTZ
  Basis Set: (AUG-CC-PVTZ AUX)
    Blend: AUG-CC-PVTZ-JKFIT
	 Reference Energy          =   -5413.5824784498363442 [Eh]
	 Singles Energy            =      -0.0000000000000000 [Eh]
	 Same-Spin Energy          =      -0.4880221077755598 [Eh]
	 Opposite-Spin Energy      =      -1.3642838961470818 [Eh]
	 Correlation Energy        =      -1.8523060039226416 [Eh]
	 Total Energy              =   -5415.4347844537587662 [Eh]

	 ================> DF-SCS-MP2 Energies <==================
	-----------------------------------------------------------
	 SCS Same-Spin Scale       =       0.3333333333333333 [-]
	 SCS Opposite-Spin Scale   =       1.2000000000000000 [-]
	 SCS Same-Spin Energy      =      -0.1626740359251866 [Eh]
	 SCS Opposite-Spin Energy  =      -1.6371406753764981 [Eh]
	 SCS Correlation Energy    =      -1.7998147113016847 [Eh]
	 SCS Total Energy          =   -5415.3822931611384774 [Eh]
	-----------------------------------------------------------

  Dipole Moment: [D]
     X:    -0.0275      Y:     2.2113      Z:     0.0369     Total:     2.2118

*** Psi4 exiting successfully. Buy a developer a beer!
