                               Psi4 1.4a3.dev225

  ==> Input File <==

--------------------------------------------------------------------------
#psi4
#
memory 32 gb

molecule  {
0 1
 Br        2.8426960    -0.9006560     0.0010230
 Br       -2.8426960    -0.9006560     0.0010230
  C        0.0000000     2.1518200    -0.0164640
  C       -1.2077220     1.4432500    -0.0102500
  C        1.2077220     1.4432500    -0.0102500
  C        0.0000000     3.6581740     0.0136870
  C        1.1904140     0.0494840    -0.0007470
  C       -1.1904140     0.0494850    -0.0007470
  C        0.0000000    -0.6761360     0.0051700
  H       -2.1574180     1.9720780    -0.0184260
  H        2.1574190     1.9720770    -0.0184250
  H        0.0000082     3.9599445     0.8563653
  H        0.8857670     4.0597820    -0.4855720
  H       -0.8857760     4.0597820    -0.4855540
  H       -0.0000010    -1.7611180     0.0093060
units angstrom
no_reorient  #important for SAPT in psi4, default
symmetry c1  #important for SAPT in psi4, default
}

set PROPERTIES_ORIGIN ["COM"]
properties('MP2/aug-cc-pvtz', properties = ['dipole'])
--------------------------------------------------------------------------

    Molecular point group: c1
  Charge       = 0
  Multiplicity = 1
  Basis Set: AUG-CC-PVTZ
    Blend: AUG-CC-PVTZ
  Basis Set: (AUG-CC-PVTZ AUX)
    Blend: AUG-CC-PVTZ-JKFIT

    Orbital Energies [Eh]
    ---------------------

    Doubly Occupied:

       1A   -490.031786     2A   -490.031786     3A    -65.171494
       4A    -65.171494     5A    -58.526819     6A    -58.526819
       7A    -58.525413     8A    -58.525413     9A    -58.525383
      10A    -58.525383    11A    -11.314711    12A    -11.314702
      13A    -11.271523    14A    -11.264513    15A    -11.258490
      16A    -11.258426    17A    -11.218688    18A     -9.844193
      19A     -9.844193    20A     -7.455826    21A     -7.455826
      22A     -7.448960    23A     -7.448960    24A     -7.448910
      25A     -7.448910    26A     -3.199617    27A     -3.199616
      28A     -3.196053    29A     -3.196053    30A     -3.195833
      31A     -3.195832    32A     -3.187065    33A     -3.187064
      34A     -3.187055    35A     -3.187055    36A     -1.195031
      37A     -1.094916    38A     -1.093229    39A     -1.008435
      40A     -0.976513    41A     -0.974550    42A     -0.820022
      43A     -0.816046    44A     -0.709601    45A     -0.677046
      46A     -0.634872    47A     -0.602412    48A     -0.588466
      49A     -0.582705    50A     -0.558604    51A     -0.546690
      52A     -0.510513    53A     -0.491003    54A     -0.467079
      55A     -0.425847    56A     -0.424057    57A     -0.419672
      58A     -0.346669    59A     -0.339501

  @DF-RHF Final Energy: -5413.54929373544019

   => Energetics <=

    Nuclear Repulsion Energy =            882.6690167635113085
    One-Electron Energy =               -9286.2499207587516139
    Two-Electron Energy =                2990.0316102598003454
    Total Energy =                      -5413.5492937354392780
  Basis Set: (AUG-CC-PVTZ AUX)
    Blend: AUG-CC-PVTZ-RI
    Molecular point group: c1

    Geometry (in Angstrom), charge = 0, multiplicity = 1:

       Center              X                  Y                   Z               Mass
    ------------   -----------------  -----------------  -----------------  -----------------
         BR           2.842696003253    -0.778217601285     0.001899073712    78.918337600000
         BR          -2.842695996747    -0.778217601285     0.001899073712    78.918337600000
         C            0.000000003253     2.274258398715    -0.015587926288    12.000000000000
         C           -1.207721996747     1.565688398715    -0.009373926288    12.000000000000
         C            1.207722003253     1.565688398715    -0.009373926288    12.000000000000
         C            0.000000003253     3.780612398715     0.014563073712    12.000000000000
         C            1.190414003253     0.171922398715     0.000129073712    12.000000000000
         C           -1.190413996747     0.171923398715     0.000129073712    12.000000000000
         C            0.000000003253    -0.553697601285     0.006046073712    12.000000000000
         H           -2.157417996747     2.094516398715    -0.017549926288     1.007825032230
         H            2.157419003253     2.094515398715    -0.017548926288     1.007825032230
         H            0.000008203253     4.082382898715     0.857241373712     1.007825032230
         H            0.885767003253     4.182220398715    -0.484695926288     1.007825032230
         H           -0.885775996747     4.182220398715    -0.484677926288     1.007825032230
         H           -0.000000996747    -1.638679601285     0.010182073712     1.007825032230

  Basis Set: AUG-CC-PVTZ
    Blend: AUG-CC-PVTZ
  Basis Set: (AUG-CC-PVTZ AUX)
    Blend: AUG-CC-PVTZ-JKFIT
	 Reference Energy          =   -5413.5492937354401874 [Eh]
	 Singles Energy            =      -0.0000000000000000 [Eh]
	 Same-Spin Energy          =      -0.4881560662771489 [Eh]
	 Opposite-Spin Energy      =      -1.3637123251790848 [Eh]
	 Correlation Energy        =      -1.8518683914562337 [Eh]
	 Total Energy              =   -5415.4011621268964518 [Eh]

	 ================> DF-SCS-MP2 Energies <==================
	-----------------------------------------------------------
	 SCS Same-Spin Scale       =       0.3333333333333333 [-]
	 SCS Opposite-Spin Scale   =       1.2000000000000000 [-]
	 SCS Same-Spin Energy      =      -0.1627186887590496 [Eh]
	 SCS Opposite-Spin Energy  =      -1.6364547902149018 [Eh]
	 SCS Correlation Energy    =      -1.7991734789739515 [Eh]
	 SCS Total Energy          =   -5415.3484672144140859 [Eh]
	-----------------------------------------------------------

  Dipole Moment: [D]
     X:     0.0000      Y:     2.2165      Z:     0.0646     Total:     2.2175

*** Psi4 exiting successfully. Buy a developer a beer!
