                               Psi4 1.4a3.dev225

  ==> Input File <==

--------------------------------------------------------------------------
#psi4
#
memory 32 gb

molecule  {
0 1
 Br        2.8426960    -0.9006560     0.0010230
 Br       -2.8426960    -0.9006560     0.0010230
  C        0.0000000     2.1518200    -0.0164640
  C       -1.2077220     1.4432500    -0.0102500
  C        1.2077220     1.4432500    -0.0102500
  C        0.0000000     3.6581740     0.0136870
  C        1.1904140     0.0494840    -0.0007470
  C       -1.1417823     0.0509397    -0.0005212
  C        0.0000000    -0.6761360     0.0051700
  H       -2.1574180     1.9720780    -0.0184260
  H        2.1574190     1.9720770    -0.0184250
  H        0.0000100     4.0273730     1.0446560
  H        0.8857670     4.0597820    -0.4855720
  H       -0.8857760     4.0597820    -0.4855540
  H       -0.0000010    -1.7611180     0.0093060
units angstrom
no_reorient  #important for SAPT in psi4, default
symmetry c1  #important for SAPT in psi4, default
}

set PROPERTIES_ORIGIN ["COM"]
properties('MP2/aug-cc-pvtz', properties = ['dipole'])
--------------------------------------------------------------------------

    Molecular point group: c1
  Charge       = 0
  Multiplicity = 1
  Basis Set: AUG-CC-PVTZ
    Blend: AUG-CC-PVTZ
  Basis Set: (AUG-CC-PVTZ AUX)
    Blend: AUG-CC-PVTZ-JKFIT

    Orbital Energies [Eh]
    ---------------------

    Doubly Occupied:

       1A   -490.033043     2A   -490.027414     3A    -65.172753
       4A    -65.166990     5A    -58.528076     6A    -58.526672
       7A    -58.526639     8A    -58.522328     9A    -58.520912
      10A    -58.520887    11A    -11.316774    12A    -11.314372
      13A    -11.273675    14A    -11.262163    15A    -11.260143
      16A    -11.259862    17A    -11.243662    18A     -9.845453
      19A     -9.839443    20A     -7.457084    21A     -7.450958
      22A     -7.450225    23A     -7.450162    24A     -7.444208
      25A     -7.444185    26A     -3.200874    27A     -3.197318
      28A     -3.197082    29A     -3.194682    30A     -3.191238
      31A     -3.191065    32A     -3.188324    33A     -3.188315
      34A     -3.182367    35A     -3.182358    36A     -1.200426
      37A     -1.093192    38A     -1.089784    39A     -1.004188
      40A     -0.975727    41A     -0.963064    42A     -0.820609
      43A     -0.812652    44A     -0.712566    45A     -0.681262
      46A     -0.605807    47A     -0.599328    48A     -0.592237
      49A     -0.583284    50A     -0.560498    51A     -0.545517
      52A     -0.509599    53A     -0.484902    54A     -0.464799
      55A     -0.425052    56A     -0.422213    57A     -0.418405
      58A     -0.351423    59A     -0.340681

  @DF-RHF Final Energy: -5413.58137994505978

   => Energetics <=

    Nuclear Repulsion Energy =            881.4326321774432245
    One-Electron Energy =               -9283.9701788060901890
    Two-Electron Energy =                2988.9561666835870710
    Total Energy =                      -5413.5813799450606894
  Basis Set: (AUG-CC-PVTZ AUX)
    Blend: AUG-CC-PVTZ-RI
    Molecular point group: c1

    Geometry (in Angstrom), charge = 0, multiplicity = 1:

       Center              X                  Y                   Z               Mass
    ------------   -----------------  -----------------  -----------------  -----------------
         BR           2.840341744422    -0.778562168338     0.001122605801    78.918337600000
         BR          -2.845050255578    -0.778562168338     0.001122605801    78.918337600000
         C           -0.002354255578     2.273913831662    -0.016364394199    12.000000000000
         C           -1.210076255578     1.565343831662    -0.010150394199    12.000000000000
         C            1.205367744422     1.565343831662    -0.010150394199    12.000000000000
         C           -0.002354255578     3.780267831662     0.013786605801    12.000000000000
         C            1.188059744422     0.171577831662    -0.000647394199    12.000000000000
         C           -1.144136555578     0.173033531662    -0.000421594199    12.000000000000
         C           -0.002354255578    -0.554042168338     0.005269605801    12.000000000000
         H           -2.159772255578     2.094171831662    -0.018326394199     1.007825032230
         H            2.155064744422     2.094170831662    -0.018325394199     1.007825032230
         H           -0.002344255578     4.149466831662     1.044755605801     1.007825032230
         H            0.883412744422     4.181875831662    -0.485472394199     1.007825032230
         H           -0.888130255578     4.181875831662    -0.485454394199     1.007825032230
         H           -0.002355255578    -1.639024168338     0.009405605801     1.007825032230

  Basis Set: AUG-CC-PVTZ
    Blend: AUG-CC-PVTZ
  Basis Set: (AUG-CC-PVTZ AUX)
    Blend: AUG-CC-PVTZ-JKFIT
	 Reference Energy          =   -5413.5813799450597799 [Eh]
	 Singles Energy            =      -0.0000000000000000 [Eh]
	 Same-Spin Energy          =      -0.4876864503571957 [Eh]
	 Opposite-Spin Energy      =      -1.3636740190296921 [Eh]
	 Correlation Energy        =      -1.8513604693868877 [Eh]
	 Total Energy              =   -5415.4327404144469256 [Eh]

	 ================> DF-SCS-MP2 Energies <==================
	-----------------------------------------------------------
	 SCS Same-Spin Scale       =       0.3333333333333333 [-]
	 SCS Opposite-Spin Scale   =       1.2000000000000000 [-]
	 SCS Same-Spin Energy      =      -0.1625621501190652 [Eh]
	 SCS Opposite-Spin Energy  =      -1.6364088228356304 [Eh]
	 SCS Correlation Energy    =      -1.7989709729546957 [Eh]
	 SCS Total Energy          =   -5415.3803509180143010 [Eh]
	-----------------------------------------------------------

  Dipole Moment: [D]
     X:     0.2047      Y:     2.2843      Z:     0.0368     Total:     2.2937

*** Psi4 exiting successfully. Buy a developer a beer!
