                               Psi4 1.4a3.dev225

  ==> Input File <==

--------------------------------------------------------------------------
#psi4
#
memory 32 gb

molecule  {
0 1
 Br        2.8426960    -0.9006560     0.0010230
 Br       -2.8426960    -0.9006560     0.0010230
  C        0.0000000     2.1518200    -0.0164640
  C       -1.2077220     1.4432500    -0.0102500
  C        1.1214716     1.4938531    -0.0106938
  C        0.0000000     3.6581740     0.0136870
  C        1.1904140     0.0494840    -0.0007470
  C       -1.1904140     0.0494850    -0.0007470
  C        0.0000000    -0.6761360     0.0051700
  H       -2.1574180     1.9720780    -0.0184260
  H        2.1574190     1.9720770    -0.0184250
  H        0.0000100     4.0273730     1.0446560
  H        0.8857670     4.0597820    -0.4855720
  H       -0.8857760     4.0597820    -0.4855540
  H       -0.0000010    -1.7611180     0.0093060
units angstrom
no_reorient  #important for SAPT in psi4, default
symmetry c1  #important for SAPT in psi4, default
}

set PROPERTIES_ORIGIN ["COM"]
properties('MP2/aug-cc-pvtz', properties = ['dipole'])
--------------------------------------------------------------------------

    Molecular point group: c1
  Charge       = 0
  Multiplicity = 1
  Basis Set: AUG-CC-PVTZ
    Blend: AUG-CC-PVTZ
  Basis Set: (AUG-CC-PVTZ AUX)
    Blend: AUG-CC-PVTZ-JKFIT

    Orbital Energies [Eh]
    ---------------------

    Doubly Occupied:

       1A   -490.036252     2A   -490.031313     3A    -65.175825
       4A    -65.171019     5A    -58.531180     6A    -58.529739
       7A    -58.529708     8A    -58.526345     9A    -58.524937
      10A    -58.524911    11A    -11.318305    12A    -11.313253
      13A    -11.265141    14A    -11.259816    15A    -11.258065
      16A    -11.255649    17A    -11.240932    18A     -9.848404
      19A     -9.843717    20A     -7.460088    21A     -7.455353
      22A     -7.453109    23A     -7.453051    24A     -7.448476
      25A     -7.448443    26A     -3.203943    27A     -3.200322
      28A     -3.200091    29A     -3.199143    30A     -3.195571
      31A     -3.195368    32A     -3.191150    33A     -3.191141
      34A     -3.186587    35A     -3.186578    36A     -1.199464
      37A     -1.098512    38A     -1.090208    39A     -1.004998
      40A     -0.975340    41A     -0.958747    42A     -0.823477
      43A     -0.809213    44A     -0.703259    45A     -0.679720
      46A     -0.606490    47A     -0.599455    48A     -0.586949
      49A     -0.571914    50A     -0.556273    51A     -0.541108
      52A     -0.508474    53A     -0.491872    54A     -0.466275
      55A     -0.429099    56A     -0.427295    57A     -0.420476
      58A     -0.355555    59A     -0.333935

  @DF-RHF Final Energy: -5413.56956175308096

   => Energetics <=

    Nuclear Repulsion Energy =            881.8326335021251907
    One-Electron Energy =               -9284.6223272894621914
    Two-Electron Energy =                2989.2201320342564941
    Total Energy =                      -5413.5695617530809614
  Basis Set: (AUG-CC-PVTZ AUX)
    Blend: AUG-CC-PVTZ-RI
    Molecular point group: c1

    Geometry (in Angstrom), charge = 0, multiplicity = 1:

       Center              X                  Y                   Z               Mass
    ------------   -----------------  -----------------  -----------------  -----------------
         BR           2.846871361686    -0.780941433201     0.001155021012    78.918337600000
         BR          -2.838520638314    -0.780941433201     0.001155021012    78.918337600000
         C            0.004175361686     2.271534566799    -0.016331978988    12.000000000000
         C           -1.203546638314     1.562964566799    -0.010117978988    12.000000000000
         C            1.125646961686     1.613567666799    -0.010561778988    12.000000000000
         C            0.004175361686     3.777888566799     0.013819021012    12.000000000000
         C            1.194589361686     0.169198566799    -0.000614978988    12.000000000000
         C           -1.186238638314     0.169199566799    -0.000614978988    12.000000000000
         C            0.004175361686    -0.556421433201     0.005302021012    12.000000000000
         H           -2.153242638314     2.091792566799    -0.018293978988     1.007825032230
         H            2.161594361686     2.091791566799    -0.018292978988     1.007825032230
         H            0.004185361686     4.147087566799     1.044788021012     1.007825032230
         H            0.889942361686     4.179496566799    -0.485439978988     1.007825032230
         H           -0.881600638314     4.179496566799    -0.485421978988     1.007825032230
         H            0.004174361686    -1.641403433201     0.009438021012     1.007825032230

  Basis Set: AUG-CC-PVTZ
    Blend: AUG-CC-PVTZ
  Basis Set: (AUG-CC-PVTZ AUX)
    Blend: AUG-CC-PVTZ-JKFIT
	 Reference Energy          =   -5413.5695617530809614 [Eh]
	 Singles Energy            =      -0.0000000000000000 [Eh]
	 Same-Spin Energy          =      -0.4879136991675763 [Eh]
	 Opposite-Spin Energy      =      -1.3648468771420457 [Eh]
	 Correlation Energy        =      -1.8527605763096220 [Eh]
	 Total Energy              =   -5415.4223223293902265 [Eh]

	 ================> DF-SCS-MP2 Energies <==================
	-----------------------------------------------------------
	 SCS Same-Spin Scale       =       0.3333333333333333 [-]
	 SCS Opposite-Spin Scale   =       1.2000000000000000 [-]
	 SCS Same-Spin Energy      =      -0.1626378997225254 [Eh]
	 SCS Opposite-Spin Energy  =      -1.6378162525704547 [Eh]
	 SCS Correlation Energy    =      -1.8004541522929802 [Eh]
	 SCS Total Energy          =   -5415.3700159053742027 [Eh]
	-----------------------------------------------------------

  Dipole Moment: [D]
     X:     0.1188      Y:     2.0111      Z:     0.0344     Total:     2.0149

*** Psi4 exiting successfully. Buy a developer a beer!
