                               Psi4 1.4a3.dev225

  ==> Input File <==

--------------------------------------------------------------------------
#psi4
#
memory 32 gb

molecule  {
0 1
 Br        2.9329608    -0.7227434    -0.0000524
 Br       -2.8426960    -0.9006560     0.0010230
  C        0.0000000     2.1518200    -0.0164640
  C       -1.2077220     1.4432500    -0.0102500
  C        1.2077220     1.4432500    -0.0102500
  C        0.0000000     3.6581740     0.0136870
  C        1.1904140     0.0494840    -0.0007470
  C       -1.1904140     0.0494850    -0.0007470
  C        0.0000000    -0.6761360     0.0051700
  H       -2.1574180     1.9720780    -0.0184260
  H        2.1574190     1.9720770    -0.0184250
  H        0.0000100     4.0273730     1.0446560
  H        0.8857670     4.0597820    -0.4855720
  H       -0.8857760     4.0597820    -0.4855540
  H       -0.0000010    -1.7611180     0.0093060
units angstrom
no_reorient  #important for SAPT in psi4, default
symmetry c1  #important for SAPT in psi4, default
}

set PROPERTIES_ORIGIN ["COM"]
properties('MP2/aug-cc-pvtz', properties = ['dipole'])
--------------------------------------------------------------------------

    Molecular point group: c1
  Charge       = 0
  Multiplicity = 1
  Basis Set: AUG-CC-PVTZ
    Blend: AUG-CC-PVTZ
  Basis Set: (AUG-CC-PVTZ AUX)
    Blend: AUG-CC-PVTZ-JKFIT

    Orbital Energies [Eh]
    ---------------------

    Doubly Occupied:

       1A   -490.032513     2A   -490.031859     3A    -65.172212
       4A    -65.171583     5A    -58.527541     6A    -58.526910
       7A    -58.526128     8A    -58.526099     9A    -58.525496
      10A    -58.525463    11A    -11.315728    12A    -11.314836
      13A    -11.271371    14A    -11.266794    15A    -11.258800
      16A    -11.256648    17A    -11.242367    18A     -9.844905
      19A     -9.844301    20A     -7.456550    21A     -7.455953
      22A     -7.449660    23A     -7.449613    24A     -7.449053
      25A     -7.448998    26A     -3.200348    27A     -3.199751
      28A     -3.196771    29A     -3.196554    30A     -3.196180
      31A     -3.195948    32A     -3.187755    33A     -3.187746
      34A     -3.187133    35A     -3.187122    36A     -1.195081
      37A     -1.096657    38A     -1.087051    39A     -1.006133
      40A     -0.974753    41A     -0.959322    42A     -0.816978
      43A     -0.812727    44A     -0.709074    45A     -0.677502
      46A     -0.603613    47A     -0.597642    48A     -0.589634
      49A     -0.582373    50A     -0.559973    51A     -0.542080
      52A     -0.509123    53A     -0.492129    54A     -0.468000
      55A     -0.425426    56A     -0.422645    57A     -0.420002
      58A     -0.346790    59A     -0.338746

  @DF-RHF Final Energy: -5413.58072406204974

   => Energetics <=

    Nuclear Repulsion Energy =            880.6867485036002563
    One-Electron Energy =               -9282.4146642946780048
    Two-Electron Energy =                2988.1471917290282363
    Total Energy =                      -5413.5807240620497396
  Basis Set: (AUG-CC-PVTZ AUX)
    Blend: AUG-CC-PVTZ-RI
    Molecular point group: c1

    Geometry (in Angstrom), charge = 0, multiplicity = 1:

       Center              X                  Y                   Z               Mass
    ------------   -----------------  -----------------  -----------------  -----------------
         BR           2.904223327098    -0.657220913895     0.000400510220    78.918337600000
         BR          -2.871433472902    -0.835133513895     0.001475910220    78.918337600000
         C           -0.028737472902     2.217342486105    -0.016011089780    12.000000000000
         C           -1.236459472902     1.508772486105    -0.009797089780    12.000000000000
         C            1.178984527098     1.508772486105    -0.009797089780    12.000000000000
         C           -0.028737472902     3.723696486105     0.014139910220    12.000000000000
         C            1.161676527098     0.115006486105    -0.000294089780    12.000000000000
         C           -1.219151472902     0.115007486105    -0.000294089780    12.000000000000
         C           -0.028737472902    -0.610613513895     0.005622910220    12.000000000000
         H           -2.186155472902     2.037600486105    -0.017973089780     1.007825032230
         H            2.128681527098     2.037599486105    -0.017972089780     1.007825032230
         H           -0.028727472902     4.092895486105     1.045108910220     1.007825032230
         H            0.857029527098     4.125304486105    -0.485119089780     1.007825032230
         H           -0.914513472902     4.125304486105    -0.485101089780     1.007825032230
         H           -0.028738472902    -1.695595513895     0.009758910220     1.007825032230

  Basis Set: AUG-CC-PVTZ
    Blend: AUG-CC-PVTZ
  Basis Set: (AUG-CC-PVTZ AUX)
    Blend: AUG-CC-PVTZ-JKFIT
	 Reference Energy          =   -5413.5807240620497396 [Eh]
	 Singles Energy            =      -0.0000000000000000 [Eh]
	 Same-Spin Energy          =      -0.4881666827973304 [Eh]
	 Opposite-Spin Energy      =      -1.3645573784655243 [Eh]
	 Correlation Energy        =      -1.8527240612628546 [Eh]
	 Total Energy              =   -5415.4334481233127008 [Eh]

	 ================> DF-SCS-MP2 Energies <==================
	-----------------------------------------------------------
	 SCS Same-Spin Scale       =       0.3333333333333333 [-]
	 SCS Opposite-Spin Scale   =       1.2000000000000000 [-]
	 SCS Same-Spin Energy      =      -0.1627222275991101 [Eh]
	 SCS Opposite-Spin Energy  =      -1.6374688541586291 [Eh]
	 SCS Correlation Energy    =      -1.8001910817577391 [Eh]
	 SCS Total Energy          =   -5415.3809151438072149 [Eh]
	-----------------------------------------------------------

  Dipole Moment: [D]
     X:    -0.0428      Y:     2.1258      Z:     0.0370     Total:     2.1266

*** Psi4 exiting successfully. Buy a developer a beer!
