                               Psi4 1.4a3.dev225

  ==> Input File <==

--------------------------------------------------------------------------
#psi4
#
memory 32 gb

molecule  {
0 1
 Br        2.8426960    -0.9006560     0.0010230
 Br       -2.7723936    -1.0135954     0.0019880
  C        0.0000000     2.1518200    -0.0164640
  C       -1.2077220     1.4432500    -0.0102500
  C        1.2077220     1.4432500    -0.0102500
  C        0.0000000     3.6581740     0.0136870
  C        1.1904140     0.0494840    -0.0007470
  C       -1.1904140     0.0494850    -0.0007470
  C        0.0000000    -0.6761360     0.0051700
  H       -2.1574180     1.9720780    -0.0184260
  H        2.1574190     1.9720770    -0.0184250
  H        0.0000100     4.0273730     1.0446560
  H        0.8857670     4.0597820    -0.4855720
  H       -0.8857760     4.0597820    -0.4855540
  H       -0.0000010    -1.7611180     0.0093060
units angstrom
no_reorient  #important for SAPT in psi4, default
symmetry c1  #important for SAPT in psi4, default
}

set PROPERTIES_ORIGIN ["COM"]
properties('MP2/aug-cc-pvtz', properties = ['dipole'])
--------------------------------------------------------------------------

    Molecular point group: c1
  Charge       = 0
  Multiplicity = 1
  Basis Set: AUG-CC-PVTZ
    Blend: AUG-CC-PVTZ
  Basis Set: (AUG-CC-PVTZ AUX)
    Blend: AUG-CC-PVTZ-JKFIT

    Orbital Energies [Eh]
    ---------------------

    Doubly Occupied:

       1A   -490.031930     2A   -490.031573     3A    -65.171645
       4A    -65.171285     5A    -58.526971     6A    -58.526608
       7A    -58.525560     8A    -58.525529     9A    -58.525205
      10A    -58.525175    11A    -11.314972    12A    -11.314345
      13A    -11.273141    14A    -11.263399    15A    -11.260256
      16A    -11.258812    17A    -11.243259    18A     -9.844353
      19A     -9.843988    20A     -7.455996    21A     -7.455615
      22A     -7.449110    23A     -7.449058    24A     -7.448760
      25A     -7.448708    26A     -3.199791    27A     -3.199402
      28A     -3.196221    29A     -3.195997    30A     -3.195844
      31A     -3.195622    32A     -3.187202    33A     -3.187192
      34A     -3.186868    35A     -3.186859    36A     -1.195095
      37A     -1.094583    38A     -1.089352    39A     -1.003177
      40A     -0.978090    41A     -0.958942    42A     -0.815999
      43A     -0.813727    44A     -0.709025    45A     -0.677694
      46A     -0.604591    47A     -0.598179    48A     -0.587545
      49A     -0.583430    50A     -0.560053    51A     -0.542013
      52A     -0.511545    53A     -0.490681    54A     -0.466881
      55A     -0.425961    56A     -0.423576    57A     -0.419179
      58A     -0.344941    59A     -0.340281

  @DF-RHF Final Energy: -5413.58195857832561

   => Energetics <=

    Nuclear Repulsion Energy =            882.8239984048850602
    One-Electron Energy =               -9286.7103301895513141
    Two-Electron Energy =                2990.3043732063415518
    Total Energy =                      -5413.5819585783247021
  Basis Set: (AUG-CC-PVTZ AUX)
    Blend: AUG-CC-PVTZ-RI
    Molecular point group: c1

    Geometry (in Angstrom), charge = 0, multiplicity = 1:

       Center              X                  Y                   Z               Mass
    ------------   -----------------  -----------------  -----------------  -----------------
         BR           2.820313926411    -0.742535399392     0.000826311136    78.918337600000
         BR          -2.794775673589    -0.855474799392     0.001791311136    78.918337600000
         C           -0.022382073589     2.309940600608    -0.016660688864    12.000000000000
         C           -1.230104073589     1.601370600608    -0.010446688864    12.000000000000
         C            1.185339926411     1.601370600608    -0.010446688864    12.000000000000
         C           -0.022382073589     3.816294600608     0.013490311136    12.000000000000
         C            1.168031926411     0.207604600608    -0.000943688864    12.000000000000
         C           -1.212796073589     0.207605600608    -0.000943688864    12.000000000000
         C           -0.022382073589    -0.518015399392     0.004973311136    12.000000000000
         H           -2.179800073589     2.130198600608    -0.018622688864     1.007825032230
         H            2.135036926411     2.130197600608    -0.018621688864     1.007825032230
         H           -0.022372073589     4.185493600608     1.044459311136     1.007825032230
         H            0.863384926411     4.217902600608    -0.485768688864     1.007825032230
         H           -0.908158073589     4.217902600608    -0.485750688864     1.007825032230
         H           -0.022383073589    -1.602997399392     0.009109311136     1.007825032230

  Basis Set: AUG-CC-PVTZ
    Blend: AUG-CC-PVTZ
  Basis Set: (AUG-CC-PVTZ AUX)
    Blend: AUG-CC-PVTZ-JKFIT
	 Reference Energy          =   -5413.5819585783256116 [Eh]
	 Singles Energy            =      -0.0000000000000000 [Eh]
	 Same-Spin Energy          =      -0.4881111411123802 [Eh]
	 Opposite-Spin Energy      =      -1.3643965111377443 [Eh]
	 Correlation Energy        =      -1.8525076522501245 [Eh]
	 Total Energy              =   -5415.4344662305757083 [Eh]

	 ================> DF-SCS-MP2 Energies <==================
	-----------------------------------------------------------
	 SCS Same-Spin Scale       =       0.3333333333333333 [-]
	 SCS Opposite-Spin Scale   =       1.2000000000000000 [-]
	 SCS Same-Spin Energy      =      -0.1627037137041267 [Eh]
	 SCS Opposite-Spin Energy  =      -1.6372758133652932 [Eh]
	 SCS Correlation Energy    =      -1.7999795270694199 [Eh]
	 SCS Total Energy          =   -5415.3819381053954203 [Eh]
	-----------------------------------------------------------

  Dipole Moment: [D]
     X:    -0.0259      Y:     2.2167      Z:     0.0362     Total:     2.2171

*** Psi4 exiting successfully. Buy a developer a beer!
