                               Psi4 1.4a3.dev225

  ==> Input File <==

--------------------------------------------------------------------------
#psi4
#
memory 32 gb

molecule  {
0 1
 Br        2.8426960    -0.9006560     0.0010230
 Br       -2.8748484    -0.8424151     0.0005370
  C        0.0000000     2.1518200    -0.0164640
  C       -1.2077220     1.4432500    -0.0102500
  C        1.2077220     1.4432500    -0.0102500
  C        0.0000000     3.6581740     0.0136870
  C        1.1904140     0.0494840    -0.0007470
  C       -1.1904140     0.0494850    -0.0007470
  C        0.0000000    -0.6761360     0.0051700
  H       -2.1574180     1.9720780    -0.0184260
  H        2.1574190     1.9720770    -0.0184250
  H        0.0000100     4.0273730     1.0446560
  H        0.8857670     4.0597820    -0.4855720
  H       -0.8857760     4.0597820    -0.4855540
  H       -0.0000010    -1.7611180     0.0093060
units angstrom
no_reorient  #important for SAPT in psi4, default
symmetry c1  #important for SAPT in psi4, default
}

set PROPERTIES_ORIGIN ["COM"]
properties('MP2/aug-cc-pvtz', properties = ['dipole'])
--------------------------------------------------------------------------

    Molecular point group: c1
  Charge       = 0
  Multiplicity = 1
  Basis Set: AUG-CC-PVTZ
    Blend: AUG-CC-PVTZ
  Basis Set: (AUG-CC-PVTZ AUX)
    Blend: AUG-CC-PVTZ-JKFIT

    Orbital Energies [Eh]
    ---------------------

    Doubly Occupied:

       1A   -490.032155     2A   -490.031952     3A    -65.171859
       4A    -65.171661     5A    -58.527186     6A    -58.526987
       7A    -58.525777     8A    -58.525748     9A    -58.525579
      10A    -58.525549    11A    -11.315227    12A    -11.314924
      13A    -11.272135    14A    -11.265445    15A    -11.258826
      16A    -11.258104    17A    -11.242739    18A     -9.844556
      19A     -9.844362    20A     -7.456195    21A     -7.455999
      22A     -7.449318    23A     -7.449269    24A     -7.449126
      25A     -7.449076    26A     -3.199988    27A     -3.199791
      28A     -3.196419    29A     -3.196225    30A     -3.196200
      31A     -3.196003    32A     -3.187418    33A     -3.187409
      34A     -3.187226    35A     -3.187217    36A     -1.195009
      37A     -1.095569    38A     -1.087957    39A     -1.004921
      40A     -0.976120    41A     -0.959379    42A     -0.816556
      43A     -0.813143    44A     -0.709005    45A     -0.677516
      46A     -0.603985    47A     -0.597856    48A     -0.588845
      49A     -0.582812    50A     -0.560031    51A     -0.542006
      52A     -0.510164    53A     -0.491609    54A     -0.467497
      55A     -0.425869    56A     -0.423038    57A     -0.420029
      58A     -0.346069    59A     -0.339439

  @DF-RHF Final Energy: -5413.58276275902699

   => Energetics <=

    Nuclear Repulsion Energy =            881.1789963802496004
    One-Electron Energy =               -9283.4073775790930085
    Two-Electron Energy =                2988.6456184398170990
    Total Energy =                      -5413.5827627590260818
  Basis Set: (AUG-CC-PVTZ AUX)
    Blend: AUG-CC-PVTZ-RI
    Molecular point group: c1

    Geometry (in Angstrom), charge = 0, multiplicity = 1:

       Center              X                  Y                   Z               Mass
    ------------   -----------------  -----------------  -----------------  -----------------
         BR           2.852932307243    -0.797033814463     0.001288263827    78.918337600000
         BR          -2.864612092757    -0.738792914463     0.000802263827    78.918337600000
         C            0.010236307243     2.255442185537    -0.016198736173    12.000000000000
         C           -1.197485692757     1.546872185537    -0.009984736173    12.000000000000
         C            1.217958307243     1.546872185537    -0.009984736173    12.000000000000
         C            0.010236307243     3.761796185537     0.013952263827    12.000000000000
         C            1.200650307243     0.153106185537    -0.000481736173    12.000000000000
         C           -1.180177692757     0.153107185537    -0.000481736173    12.000000000000
         C            0.010236307243    -0.572513814463     0.005435263827    12.000000000000
         H           -2.147181692757     2.075700185537    -0.018160736173     1.007825032230
         H            2.167655307243     2.075699185537    -0.018159736173     1.007825032230
         H            0.010246307243     4.130995185537     1.044921263827     1.007825032230
         H            0.896003307243     4.163404185537    -0.485306736173     1.007825032230
         H           -0.875539692757     4.163404185537    -0.485288736173     1.007825032230
         H            0.010235307243    -1.657495814463     0.009571263827     1.007825032230

  Basis Set: AUG-CC-PVTZ
    Blend: AUG-CC-PVTZ
  Basis Set: (AUG-CC-PVTZ AUX)
    Blend: AUG-CC-PVTZ-JKFIT
	 Reference Energy          =   -5413.5827627590269913 [Eh]
	 Singles Energy            =      -0.0000000000000000 [Eh]
	 Same-Spin Energy          =      -0.4880467285059345 [Eh]
	 Opposite-Spin Energy      =      -1.3643182540690368 [Eh]
	 Correlation Energy        =      -1.8523649825749713 [Eh]
	 Total Energy              =   -5415.4351277416017183 [Eh]

	 ================> DF-SCS-MP2 Energies <==================
	-----------------------------------------------------------
	 SCS Same-Spin Scale       =       0.3333333333333333 [-]
	 SCS Opposite-Spin Scale   =       1.2000000000000000 [-]
	 SCS Same-Spin Energy      =      -0.1626822428353115 [Eh]
	 SCS Opposite-Spin Energy  =      -1.6371819048828442 [Eh]
	 SCS Correlation Energy    =      -1.7998641477181556 [Eh]
	 SCS Total Energy          =   -5415.3826269067449175 [Eh]
	-----------------------------------------------------------

  Dipole Moment: [D]
     X:     0.0138      Y:     2.1609      Z:     0.0367     Total:     2.1612

*** Psi4 exiting successfully. Buy a developer a beer!
