                               Psi4 1.4a3.dev225

  ==> Input File <==

--------------------------------------------------------------------------
#psi4
#
memory 32 gb

molecule  {
0 1
 Br        2.8426960    -0.9006560     0.0010230
 Br       -2.8426960    -0.9006560     0.0010230
  C        0.0000000     2.1518200    -0.0164640
  C       -1.2077220     1.4432500    -0.0102500
  C        1.2077220     1.4432500    -0.0102500
  C        0.0000000     3.6581740     0.0136870
  C        1.1904140     0.0494840    -0.0007470
  C       -1.0448190     0.0589341    -0.0001053
  C        0.0000000    -0.6761360     0.0051700
  H       -2.1574180     1.9720780    -0.0184260
  H        2.1574190     1.9720770    -0.0184250
  H        0.0000100     4.0273730     1.0446560
  H        0.8857670     4.0597820    -0.4855720
  H       -0.8857760     4.0597820    -0.4855540
  H       -0.0000010    -1.7611180     0.0093060
units angstrom
no_reorient  #important for SAPT in psi4, default
symmetry c1  #important for SAPT in psi4, default
}

set PROPERTIES_ORIGIN ["COM"]
properties('MP2/aug-cc-pvtz', properties = ['dipole'])
--------------------------------------------------------------------------

    Molecular point group: c1
  Charge       = 0
  Multiplicity = 1
  Basis Set: AUG-CC-PVTZ
    Blend: AUG-CC-PVTZ
  Basis Set: (AUG-CC-PVTZ AUX)
    Blend: AUG-CC-PVTZ-JKFIT

    Orbital Energies [Eh]
    ---------------------

    Doubly Occupied:

       1A   -490.035787     2A   -490.016154     3A    -65.175497
       4A    -65.155604     5A    -58.530819     6A    -58.529417
       7A    -58.529378     8A    -58.510928     9A    -58.509540
      10A    -58.509521    11A    -11.321439    12A    -11.314713
      13A    -11.276820    14A    -11.263863    15A    -11.262457
      16A    -11.257592    17A    -11.245545    18A     -9.848198
      19A     -9.827737    20A     -7.459824    21A     -7.452979
      22A     -7.452888    23A     -7.438976    24A     -7.432582
      25A     -7.432567    26A     -3.203615    27A     -3.200075
      28A     -3.199807    29A     -3.191065    30A     -3.191055
      31A     -3.182526    32A     -3.179357    33A     -3.179254
      34A     -3.170901    35A     -3.170892    36A     -1.214440
      37A     -1.098883    38A     -1.089171    39A     -1.003011
      40A     -0.971913    41A     -0.970720    42A     -0.829005
      43A     -0.811295    44A     -0.720589    45A     -0.689752
      46A     -0.616648    47A     -0.602637    48A     -0.597867
      49A     -0.582412    50A     -0.561013    51A     -0.554807
      52A     -0.512789    53A     -0.463352    54A     -0.462315
      55A     -0.425949    56A     -0.418247    57A     -0.410621
      58A     -0.363870    59A     -0.342283

  @DF-RHF Final Energy: -5413.56332286929864

   => Energetics <=

    Nuclear Repulsion Energy =            881.2577715875959257
    One-Electron Energy =               -9283.6962611589115113
    Two-Electron Energy =                2988.8751667020169407
    Total Energy =                      -5413.5633228692986449
  Basis Set: (AUG-CC-PVTZ AUX)
    Blend: AUG-CC-PVTZ-RI
    Molecular point group: c1

    Geometry (in Angstrom), charge = 0, multiplicity = 1:

       Center              X                  Y                   Z               Mass
    ------------   -----------------  -----------------  -----------------  -----------------
         BR           2.835647769182    -0.778949175749     0.001102472160    78.918337600000
         BR          -2.849744230818    -0.778949175749     0.001102472160    78.918337600000
         C           -0.007048230818     2.273526824251    -0.016384527840    12.000000000000
         C           -1.214770230818     1.564956824251    -0.010170527840    12.000000000000
         C            1.200673769182     1.564956824251    -0.010170527840    12.000000000000
         C           -0.007048230818     3.779880824251     0.013766472160    12.000000000000
         C            1.183365769182     0.171190824251    -0.000667527840    12.000000000000
         C           -1.051867230818     0.180640924251    -0.000025827840    12.000000000000
         C           -0.007048230818    -0.554429175749     0.005249472160    12.000000000000
         H           -2.164466230818     2.093784824251    -0.018346527840     1.007825032230
         H            2.150370769182     2.093783824251    -0.018345527840     1.007825032230
         H           -0.007038230818     4.149079824251     1.044735472160     1.007825032230
         H            0.878718769182     4.181488824251    -0.485492527840     1.007825032230
         H           -0.892824230818     4.181488824251    -0.485474527840     1.007825032230
         H           -0.007049230818    -1.639411175749     0.009385472160     1.007825032230

  Basis Set: AUG-CC-PVTZ
    Blend: AUG-CC-PVTZ
  Basis Set: (AUG-CC-PVTZ AUX)
    Blend: AUG-CC-PVTZ-JKFIT
	 Reference Energy          =   -5413.5633228692986449 [Eh]
	 Singles Energy            =      -0.0000000000000000 [Eh]
	 Same-Spin Energy          =      -0.4873195037443004 [Eh]
	 Opposite-Spin Energy      =      -1.3631558273686015 [Eh]
	 Correlation Energy        =      -1.8504753311129019 [Eh]
	 Total Energy              =   -5415.4137982004112928 [Eh]

	 ================> DF-SCS-MP2 Energies <==================
	-----------------------------------------------------------
	 SCS Same-Spin Scale       =       0.3333333333333333 [-]
	 SCS Opposite-Spin Scale   =       1.2000000000000000 [-]
	 SCS Same-Spin Energy      =      -0.1624398345814335 [Eh]
	 SCS Opposite-Spin Energy  =      -1.6357869928423219 [Eh]
	 SCS Correlation Energy    =      -1.7982268274237554 [Eh]
	 SCS Total Energy          =   -5415.3615496967222498 [Eh]
	-----------------------------------------------------------

  Dipole Moment: [D]
     X:     0.6767      Y:     2.5119      Z:     0.0375     Total:     2.6017

*** Psi4 exiting successfully. Buy a developer a beer!
