                               Psi4 1.4a3.dev225

  ==> Input File <==

--------------------------------------------------------------------------
#psi4
#
memory 32 gb

molecule  {
0 1
 Br        2.8426960    -0.9006560     0.0010230
 Br       -2.8426960    -0.9006560     0.0010230
  C        0.0000000     2.1518200    -0.0164640
  C       -1.2077220     1.4432500    -0.0102500
  C        1.2077220     1.4432500    -0.0102500
  C        0.0000000     3.6581740     0.0136870
  C        1.1904140     0.0494840    -0.0007470
  C       -1.1660918     0.0500001    -0.0006326
  C        0.0000000    -0.6761360     0.0051700
  H       -2.1574180     1.9720780    -0.0184260
  H        2.1574190     1.9720770    -0.0184250
  H        0.0000100     4.0273730     1.0446560
  H        0.8857670     4.0597820    -0.4855720
  H       -0.8857760     4.0597820    -0.4855540
  H       -0.0000010    -1.7611180     0.0093060
units angstrom
no_reorient  #important for SAPT in psi4, default
symmetry c1  #important for SAPT in psi4, default
}

set PROPERTIES_ORIGIN ["COM"]
properties('MP2/aug-cc-pvtz', properties = ['dipole'])
--------------------------------------------------------------------------

    Molecular point group: c1
  Charge       = 0
  Multiplicity = 1
  Basis Set: AUG-CC-PVTZ
    Blend: AUG-CC-PVTZ
  Basis Set: (AUG-CC-PVTZ AUX)
    Blend: AUG-CC-PVTZ-JKFIT

    Orbital Energies [Eh]
    ---------------------

    Doubly Occupied:

       1A   -490.032485     2A   -490.029767     3A    -65.172194
       4A    -65.169403     5A    -58.527518     6A    -58.526112
       7A    -58.526081     8A    -58.524736     9A    -58.523323
      10A    -58.523296    11A    -11.315828    12A    -11.314611
      13A    -11.273053    14A    -11.263455    15A    -11.259451
      16A    -11.259322    17A    -11.243276    18A     -9.844893
      19A     -9.841972    20A     -7.456526    21A     -7.453548
      22A     -7.449662    23A     -7.449606    24A     -7.446734
      25A     -7.446699    26A     -3.200317    27A     -3.197307
      28A     -3.196756    29A     -3.196528    30A     -3.193801
      31A     -3.193605    32A     -3.187763    33A     -3.187754
      34A     -3.184863    35A     -3.184853    36A     -1.197595
      37A     -1.093761    38A     -1.089251    39A     -1.004319
      40A     -0.976310    41A     -0.961168    42A     -0.818444
      43A     -0.813044    44A     -0.710747    45A     -0.679367
      46A     -0.604565    47A     -0.598648    48A     -0.590347
      49A     -0.583358    50A     -0.560296    51A     -0.543663
      52A     -0.509735    53A     -0.488675    54A     -0.465950
      55A     -0.425353    56A     -0.422789    57A     -0.419387
      58A     -0.348440    59A     -0.340295

  @DF-RHF Final Energy: -5413.58279457673871

   => Energetics <=

    Nuclear Repulsion Energy =            881.5122220170968603
    One-Electron Energy =               -9284.1048284688895365
    Two-Electron Energy =                2989.0098118750552203
    Total Energy =                      -5413.5827945767377969
  Basis Set: (AUG-CC-PVTZ AUX)
    Blend: AUG-CC-PVTZ-RI
    Molecular point group: c1

    Geometry (in Angstrom), charge = 0, multiplicity = 1:

       Center              X                  Y                   Z               Mass
    ------------   -----------------  -----------------  -----------------  -----------------
         BR           2.841518562776    -0.778516682478     0.001127998655    78.918337600000
         BR          -2.843873437224    -0.778516682478     0.001127998655    78.918337600000
         C           -0.001177437224     2.273959317522    -0.016359001345    12.000000000000
         C           -1.208899437224     1.565389317522    -0.010145001345    12.000000000000
         C            1.206544562776     1.565389317522    -0.010145001345    12.000000000000
         C           -0.001177437224     3.780313317522     0.013791998655    12.000000000000
         C            1.189236562776     0.171623317522    -0.000642001345    12.000000000000
         C           -1.167269237224     0.172139417522    -0.000527601345    12.000000000000
         C           -0.001177437224    -0.553996682478     0.005274998655    12.000000000000
         H           -2.158595437224     2.094217317522    -0.018321001345     1.007825032230
         H            2.156241562776     2.094216317522    -0.018320001345     1.007825032230
         H           -0.001167437224     4.149512317522     1.044760998655     1.007825032230
         H            0.884589562776     4.181921317522    -0.485467001345     1.007825032230
         H           -0.886953437224     4.181921317522    -0.485449001345     1.007825032230
         H           -0.001178437224    -1.638978682478     0.009410998655     1.007825032230

  Basis Set: AUG-CC-PVTZ
    Blend: AUG-CC-PVTZ
  Basis Set: (AUG-CC-PVTZ AUX)
    Blend: AUG-CC-PVTZ-JKFIT
	 Reference Energy          =   -5413.5827945767387064 [Eh]
	 Singles Energy            =      -0.0000000000000000 [Eh]
	 Same-Spin Energy          =      -0.4878472481396812 [Eh]
	 Opposite-Spin Energy      =      -1.3639467095855453 [Eh]
	 Correlation Energy        =      -1.8517939577252265 [Eh]
	 Total Energy              =   -5415.4345885344637281 [Eh]

	 ================> DF-SCS-MP2 Energies <==================
	-----------------------------------------------------------
	 SCS Same-Spin Scale       =       0.3333333333333333 [-]
	 SCS Opposite-Spin Scale   =       1.2000000000000000 [-]
	 SCS Same-Spin Energy      =      -0.1626157493798937 [Eh]
	 SCS Opposite-Spin Energy  =      -1.6367360515026543 [Eh]
	 SCS Correlation Energy    =      -1.7993518008825480 [Eh]
	 SCS Total Energy          =   -5415.3821463776212113 [Eh]
	-----------------------------------------------------------

  Dipole Moment: [D]
     X:     0.1002      Y:     2.2312      Z:     0.0367     Total:     2.2337

*** Psi4 exiting successfully. Buy a developer a beer!
