                               Psi4 1.4a3.dev225

  ==> Input File <==

--------------------------------------------------------------------------
#psi4
#
memory 32 gb

molecule  {
0 1
 Br        2.8426960    -0.9006560     0.0010230
 Br       -2.8426960    -0.9006560     0.0010230
  C       -0.0228187     2.1517879    -0.0033959
  C       -1.2077220     1.4432500    -0.0102500
  C        1.2077220     1.4432500    -0.0102500
  C        0.0000000     3.6581740     0.0136870
  C        1.1904140     0.0494840    -0.0007470
  C       -1.1904140     0.0494850    -0.0007470
  C        0.0000000    -0.6761360     0.0051700
  H       -2.1574180     1.9720780    -0.0184260
  H        2.1574190     1.9720770    -0.0184250
  H        0.0000100     4.0273730     1.0446560
  H        0.8857670     4.0597820    -0.4855720
  H       -0.8857760     4.0597820    -0.4855540
  H       -0.0000010    -1.7611180     0.0093060
units angstrom
no_reorient  #important for SAPT in psi4, default
symmetry c1  #important for SAPT in psi4, default
}

set PROPERTIES_ORIGIN ["COM"]
properties('MP2/aug-cc-pvtz', properties = ['dipole'])
--------------------------------------------------------------------------

    Molecular point group: c1
  Charge       = 0
  Multiplicity = 1
  Basis Set: AUG-CC-PVTZ
    Blend: AUG-CC-PVTZ
  Basis Set: (AUG-CC-PVTZ AUX)
    Blend: AUG-CC-PVTZ-JKFIT

    Orbital Energies [Eh]
    ---------------------

    Doubly Occupied:

       1A   -490.032148     2A   -490.031750     3A    -65.171850
       4A    -65.171462     5A    -58.527177     6A    -58.526786
       7A    -58.525769     8A    -58.525738     9A    -58.525380
      10A    -58.525352    11A    -11.315186    12A    -11.314669
      13A    -11.272457    14A    -11.264720    15A    -11.260742
      16A    -11.256737    17A    -11.242962    18A     -9.844545
      19A     -9.844165    20A     -7.456182    21A     -7.455798
      22A     -7.449310    23A     -7.449256    24A     -7.448930
      25A     -7.448885    26A     -3.199976    27A     -3.199586
      28A     -3.196412    29A     -3.196184    30A     -3.196020
      31A     -3.195806    32A     -3.187408    33A     -3.187399
      34A     -3.187038    35A     -3.187029    36A     -1.195058
      37A     -1.095344    38A     -1.088320    39A     -1.004319
      40A     -0.976893    41A     -0.959214    42A     -0.817905
      43A     -0.811771    44A     -0.708986    45A     -0.677461
      46A     -0.604610    47A     -0.598103    48A     -0.588326
      49A     -0.582797    50A     -0.560135    51A     -0.542002
      52A     -0.510758    53A     -0.490870    54A     -0.467260
      55A     -0.425952    56A     -0.423266    57A     -0.419820
      58A     -0.346544    59A     -0.338926

  @DF-RHF Final Energy: -5413.58237662652664

   => Energetics <=

    Nuclear Repulsion Energy =            881.6125726439765913
    One-Electron Energy =               -9284.2789868326017313
    Two-Electron Energy =                2989.0840375620987288
    Total Energy =                      -5413.5823766265257291
  Basis Set: (AUG-CC-PVTZ AUX)
    Blend: AUG-CC-PVTZ-RI
    Molecular point group: c1

    Geometry (in Angstrom), charge = 0, multiplicity = 1:

       Center              X                  Y                   Z               Mass
    ------------   -----------------  -----------------  -----------------  -----------------
         BR           2.843800644939    -0.778490192628     0.000500912457    78.918337600000
         BR          -2.841591355061    -0.778490192628     0.000500912457    78.918337600000
         C           -0.021714055061     2.273953707372    -0.003917987543    12.000000000000
         C           -1.206617355061     1.565415807372    -0.010772087543    12.000000000000
         C            1.208826644939     1.565415807372    -0.010772087543    12.000000000000
         C            0.001104644939     3.780339807372     0.013164912457    12.000000000000
         C            1.191518644939     0.171649807372    -0.001269087543    12.000000000000
         C           -1.189309355061     0.171650807372    -0.001269087543    12.000000000000
         C            0.001104644939    -0.553970192628     0.004647912457    12.000000000000
         H           -2.156313355061     2.094243807372    -0.018948087543     1.007825032230
         H            2.158523644939     2.094242807372    -0.018947087543     1.007825032230
         H            0.001114644939     4.149538807372     1.044133912457     1.007825032230
         H            0.886871644939     4.181947807372    -0.486094087543     1.007825032230
         H           -0.884671355061     4.181947807372    -0.486076087543     1.007825032230
         H            0.001103644939    -1.638952192628     0.008783912457     1.007825032230

  Basis Set: AUG-CC-PVTZ
    Blend: AUG-CC-PVTZ
  Basis Set: (AUG-CC-PVTZ AUX)
    Blend: AUG-CC-PVTZ-JKFIT
	 Reference Energy          =   -5413.5823766265266386 [Eh]
	 Singles Energy            =      -0.0000000000000000 [Eh]
	 Same-Spin Energy          =      -0.4880140873504099 [Eh]
	 Opposite-Spin Energy      =      -1.3643064038864792 [Eh]
	 Correlation Energy        =      -1.8523204912368891 [Eh]
	 Total Energy              =   -5415.4346971177637897 [Eh]

	 ================> DF-SCS-MP2 Energies <==================
	-----------------------------------------------------------
	 SCS Same-Spin Scale       =       0.3333333333333333 [-]
	 SCS Opposite-Spin Scale   =       1.2000000000000000 [-]
	 SCS Same-Spin Energy      =      -0.1626713624501366 [Eh]
	 SCS Opposite-Spin Energy  =      -1.6371676846637750 [Eh]
	 SCS Correlation Energy    =      -1.7998390471139116 [Eh]
	 SCS Total Energy          =   -5415.3822156736405304 [Eh]
	-----------------------------------------------------------

  Dipole Moment: [D]
     X:    -0.0129      Y:     2.1834      Z:     0.0328     Total:     2.1837

*** Psi4 exiting successfully. Buy a developer a beer!
