                               Psi4 1.4a3.dev225

  ==> Input File <==

--------------------------------------------------------------------------
#psi4
#
memory 32 gb

molecule  {
0 1
 Br        2.8426960    -0.9006560     0.0010230
 Br       -2.8426960    -0.9006560     0.0010230
  C        0.0912052     2.1565345    -0.0686048
  C       -1.2077220     1.4432500    -0.0102500
  C        1.2077220     1.4432500    -0.0102500
  C        0.0000000     3.6581740     0.0136870
  C        1.1904140     0.0494840    -0.0007470
  C       -1.1904140     0.0494850    -0.0007470
  C        0.0000000    -0.6761360     0.0051700
  H       -2.1574180     1.9720780    -0.0184260
  H        2.1574190     1.9720770    -0.0184250
  H        0.0000100     4.0273730     1.0446560
  H        0.8857670     4.0597820    -0.4855720
  H       -0.8857760     4.0597820    -0.4855540
  H       -0.0000010    -1.7611180     0.0093060
units angstrom
no_reorient  #important for SAPT in psi4, default
symmetry c1  #important for SAPT in psi4, default
}

set PROPERTIES_ORIGIN ["COM"]
properties('MP2/aug-cc-pvtz', properties = ['dipole'])
--------------------------------------------------------------------------

    Molecular point group: c1
  Charge       = 0
  Multiplicity = 1
  Basis Set: AUG-CC-PVTZ
    Blend: AUG-CC-PVTZ
  Basis Set: (AUG-CC-PVTZ AUX)
    Blend: AUG-CC-PVTZ-JKFIT

    Orbital Energies [Eh]
    ---------------------

    Doubly Occupied:

       1A   -490.032726     2A   -490.031130     3A    -65.172414
       4A    -65.170855     5A    -58.527743     6A    -58.526333
       7A    -58.526299     8A    -58.526176     9A    -58.524772
      10A    -58.524746    11A    -11.315810    12A    -11.313750
      13A    -11.271745    14A    -11.266221    15A    -11.265531
      16A    -11.250777    17A    -11.243264    18A     -9.845097
      19A     -9.843568    20A     -7.456739    21A     -7.455194
      22A     -7.449861    23A     -7.449794    24A     -7.448335
      25A     -7.448302    26A     -3.200541    27A     -3.198974
      28A     -3.196980    29A     -3.196734    30A     -3.195406
      31A     -3.195213    32A     -3.187945    33A     -3.187936
      34A     -3.186457    35A     -3.186448    36A     -1.195468
      37A     -1.097935    38A     -1.086946    39A     -1.004338
      40A     -0.978100    41A     -0.957707    42A     -0.825471
      43A     -0.804139    44A     -0.709126    45A     -0.676420
      46A     -0.609505    47A     -0.597161    48A     -0.588759
      49A     -0.579662    50A     -0.560092    51A     -0.542117
      52A     -0.512524    53A     -0.483904    54A     -0.467402
      55A     -0.426096    56A     -0.423701    57A     -0.419643
      58A     -0.353345    59A     -0.333461

  @DF-RHF Final Energy: -5413.57179112248286

   => Energetics <=

    Nuclear Repulsion Energy =            881.5132996060316373
    One-Electron Energy =               -9284.0645077494427824
    Two-Electron Energy =                2988.9794170209297590
    Total Energy =                      -5413.5717911224819545
  Basis Set: (AUG-CC-PVTZ AUX)
    Blend: AUG-CC-PVTZ-RI
    Molecular point group: c1

    Geometry (in Angstrom), charge = 0, multiplicity = 1:

       Center              X                  Y                   Z               Mass
    ------------   -----------------  -----------------  -----------------  -----------------
         BR           2.838280769240    -0.778719974647     0.003657663125    78.918337600000
         BR          -2.847111230760    -0.778719974647     0.003657663125    78.918337600000
         C            0.086789969240     2.278470525353    -0.065970136875    12.000000000000
         C           -1.212137230760     1.565186025353    -0.007615336875    12.000000000000
         C            1.203306769240     1.565186025353    -0.007615336875    12.000000000000
         C           -0.004415230760     3.780110025353     0.016321663125    12.000000000000
         C            1.185998769240     0.171420025353     0.001887663125    12.000000000000
         C           -1.194829230760     0.171421025353     0.001887663125    12.000000000000
         C           -0.004415230760    -0.554199974647     0.007804663125    12.000000000000
         H           -2.161833230760     2.094014025353    -0.015791336875     1.007825032230
         H            2.153003769240     2.094013025353    -0.015790336875     1.007825032230
         H           -0.004405230760     4.149309025353     1.047290663125     1.007825032230
         H            0.881351769240     4.181718025353    -0.482937336875     1.007825032230
         H           -0.890191230760     4.181718025353    -0.482919336875     1.007825032230
         H           -0.004416230760    -1.639181974647     0.011940663125     1.007825032230

  Basis Set: AUG-CC-PVTZ
    Blend: AUG-CC-PVTZ
  Basis Set: (AUG-CC-PVTZ AUX)
    Blend: AUG-CC-PVTZ-JKFIT
	 Reference Energy          =   -5413.5717911224828640 [Eh]
	 Singles Energy            =      -0.0000000000000000 [Eh]
	 Same-Spin Energy          =      -0.4878310672234309 [Eh]
	 Opposite-Spin Energy      =      -1.3648501639057646 [Eh]
	 Correlation Energy        =      -1.8526812311291956 [Eh]
	 Total Energy              =   -5415.4244723536121455 [Eh]

	 ================> DF-SCS-MP2 Energies <==================
	-----------------------------------------------------------
	 SCS Same-Spin Scale       =       0.3333333333333333 [-]
	 SCS Opposite-Spin Scale   =       1.2000000000000000 [-]
	 SCS Same-Spin Energy      =      -0.1626103557411436 [Eh]
	 SCS Opposite-Spin Energy  =      -1.6378201966869175 [Eh]
	 SCS Correlation Energy    =      -1.8004305524280610 [Eh]
	 SCS Total Energy          =   -5415.3722216749110885 [Eh]
	-----------------------------------------------------------

  Dipole Moment: [D]
     X:     0.0547      Y:     2.1640      Z:     0.0513     Total:     2.1653

*** Psi4 exiting successfully. Buy a developer a beer!
