                               Psi4 1.4a3.dev225

  ==> Input File <==

--------------------------------------------------------------------------
#psi4
#
memory 32 gb

molecule  {
0 1
 Br        2.8426960    -0.9006560     0.0010230
 Br       -2.8426960    -0.9006560     0.0010230
  C        0.0000000     2.1518200    -0.0164640
  C       -1.2077220     1.4432500    -0.0102500
  C        1.2077220     1.4432500    -0.0102500
  C        0.0000000     3.6581740     0.0136870
  C        1.1904140     0.0494840    -0.0007470
  C       -1.2771028    -0.0003652    -0.0006541
  C        0.0000000    -0.6761360     0.0051700
  H       -2.1574180     1.9720780    -0.0184260
  H        2.1574190     1.9720770    -0.0184250
  H        0.0000100     4.0273730     1.0446560
  H        0.8857670     4.0597820    -0.4855720
  H       -0.8857760     4.0597820    -0.4855540
  H       -0.0000010    -1.7611180     0.0093060
units angstrom
no_reorient  #important for SAPT in psi4, default
symmetry c1  #important for SAPT in psi4, default
}

set PROPERTIES_ORIGIN ["COM"]
properties('MP2/aug-cc-pvtz', properties = ['dipole'])
--------------------------------------------------------------------------

    Molecular point group: c1
  Charge       = 0
  Multiplicity = 1
  Basis Set: AUG-CC-PVTZ
    Blend: AUG-CC-PVTZ
  Basis Set: (AUG-CC-PVTZ AUX)
    Blend: AUG-CC-PVTZ-JKFIT

    Orbital Energies [Eh]
    ---------------------

    Doubly Occupied:

       1A   -490.040706     2A   -490.030281     3A    -65.180920
       4A    -65.169972     5A    -58.536164     6A    -58.534837
       7A    -58.534791     8A    -58.525304     9A    -58.523888
      10A    -58.523863    11A    -11.317893    12A    -11.311896
      13A    -11.269607    14A    -11.266823    15A    -11.261242
      16A    -11.257294    17A    -11.241185    18A     -9.854471
      19A     -9.842659    20A     -7.466379    21A     -7.459305
      22A     -7.459164    23A     -7.454310    24A     -7.447402
      25A     -7.447375    26A     -3.210291    27A     -3.206450
      28A     -3.206078    29A     -3.198110    30A     -3.197342
      31A     -3.197332    32A     -3.194521    33A     -3.194324
      34A     -3.185503    35A     -3.185494    36A     -1.185635
      37A     -1.107086    38A     -1.085333    39A     -1.004622
      40A     -0.973802    41A     -0.951922    42A     -0.813188
      43A     -0.808493    44A     -0.701311    45A     -0.670350
      46A     -0.609821    47A     -0.594815    48A     -0.586574
      49A     -0.572524    50A     -0.558813    51A     -0.537247
      52A     -0.517508    53A     -0.495556    54A     -0.474339
      55A     -0.429083    56A     -0.423363    57A     -0.419454
      58A     -0.340668    59A     -0.329925

  @DF-RHF Final Energy: -5413.57117210580964

   => Energetics <=

    Nuclear Repulsion Energy =            882.4419299863826609
    One-Electron Energy =               -9285.7769933348790801
    Two-Electron Energy =                2989.7638912426873503
    Total Energy =                      -5413.5711721058096373
  Basis Set: (AUG-CC-PVTZ AUX)
    Blend: AUG-CC-PVTZ-RI
    Molecular point group: c1

    Geometry (in Angstrom), charge = 0, multiplicity = 1:

       Center              X                  Y                   Z               Mass
    ------------   -----------------  -----------------  -----------------  -----------------
         BR           2.846892584549    -0.776078507713     0.001129039466    78.918337600000
         BR          -2.838499415451    -0.776078507713     0.001129039466    78.918337600000
         C            0.004196584549     2.276397492287    -0.016357960534    12.000000000000
         C           -1.203525415451     1.567827492287    -0.010143960534    12.000000000000
         C            1.211918584549     1.567827492287    -0.010143960534    12.000000000000
         C            0.004196584549     3.782751492287     0.013793039466    12.000000000000
         C            1.194610584549     0.174061492287    -0.000640960534    12.000000000000
         C           -1.272906215451     0.124212292287    -0.000548060534    12.000000000000
         C            0.004196584549    -0.551558507713     0.005276039466    12.000000000000
         H           -2.153221415451     2.096655492287    -0.018319960534     1.007825032230
         H            2.161615584549     2.096654492287    -0.018318960534     1.007825032230
         H            0.004206584549     4.151950492287     1.044762039466     1.007825032230
         H            0.889963584549     4.184359492287    -0.485465960534     1.007825032230
         H           -0.881579415451     4.184359492287    -0.485447960534     1.007825032230
         H            0.004195584549    -1.636540507713     0.009412039466     1.007825032230

  Basis Set: AUG-CC-PVTZ
    Blend: AUG-CC-PVTZ
  Basis Set: (AUG-CC-PVTZ AUX)
    Blend: AUG-CC-PVTZ-JKFIT
	 Reference Energy          =   -5413.5711721058096373 [Eh]
	 Singles Energy            =      -0.0000000000000000 [Eh]
	 Same-Spin Energy          =      -0.4894881581381141 [Eh]
	 Opposite-Spin Energy      =      -1.3667899214312764 [Eh]
	 Correlation Energy        =      -1.8562780795693905 [Eh]
	 Total Energy              =   -5415.4274501853788024 [Eh]

	 ================> DF-SCS-MP2 Energies <==================
	-----------------------------------------------------------
	 SCS Same-Spin Scale       =       0.3333333333333333 [-]
	 SCS Opposite-Spin Scale   =       1.2000000000000000 [-]
	 SCS Same-Spin Energy      =      -0.1631627193793714 [Eh]
	 SCS Opposite-Spin Energy  =      -1.6401479057175317 [Eh]
	 SCS Correlation Energy    =      -1.8033106250969031 [Eh]
	 SCS Total Energy          =   -5415.3744827309064931 [Eh]
	-----------------------------------------------------------

  Dipole Moment: [D]
     X:    -0.4281      Y:     1.9293      Z:     0.0360     Total:     1.9765

*** Psi4 exiting successfully. Buy a developer a beer!
