                               Psi4 1.4a3.dev225

  ==> Input File <==

--------------------------------------------------------------------------
#psi4
#
memory 32 gb

molecule  {
0 1
 Br        2.8426960    -0.9006560     0.0010230
 Br       -2.8426960    -0.9006560     0.0010230
  C        0.0000000     2.1518200    -0.0164640
  C       -1.2077220     1.4432500    -0.0102500
  C        1.2077220     1.4432500    -0.0102500
  C        0.0000000     3.6581740     0.0136870
  C        1.1904140     0.0494840    -0.0007470
  C       -1.2876814     0.0516696    -0.0012331
  C        0.0000000    -0.6761360     0.0051700
  H       -2.1574180     1.9720780    -0.0184260
  H        2.1574190     1.9720770    -0.0184250
  H        0.0000100     4.0273730     1.0446560
  H        0.8857670     4.0597820    -0.4855720
  H       -0.8857760     4.0597820    -0.4855540
  H       -0.0000010    -1.7611180     0.0093060
units angstrom
no_reorient  #important for SAPT in psi4, default
symmetry c1  #important for SAPT in psi4, default
}

set PROPERTIES_ORIGIN ["COM"]
properties('MP2/aug-cc-pvtz', properties = ['dipole'])
--------------------------------------------------------------------------

    Molecular point group: c1
  Charge       = 0
  Multiplicity = 1
  Basis Set: AUG-CC-PVTZ
    Blend: AUG-CC-PVTZ
  Basis Set: (AUG-CC-PVTZ AUX)
    Blend: AUG-CC-PVTZ-JKFIT

    Orbital Energies [Eh]
    ---------------------

    Doubly Occupied:

       1A   -490.039545     2A   -490.030188     3A    -65.179641
       4A    -65.169890     5A    -58.534906     6A    -58.533557
       7A    -58.533515     8A    -58.525218     9A    -58.523805
      10A    -58.523781    11A    -11.317085    12A    -11.311976
      13A    -11.270704    14A    -11.269824    15A    -11.257085
      16A    -11.257024    17A    -11.241689    18A     -9.853004
      19A     -9.842583    20A     -7.464866    21A     -7.457815
      22A     -7.457694    23A     -7.454228    24A     -7.447331
      25A     -7.447307    26A     -3.208764    27A     -3.204967
      28A     -3.204629    29A     -3.198022    30A     -3.195853
      31A     -3.195843    32A     -3.194436    33A     -3.194246
      34A     -3.185439    35A     -3.185430    36A     -1.186979
      37A     -1.105073    38A     -1.085462    39A     -1.003165
      40A     -0.978064    41A     -0.952163    42A     -0.815934
      43A     -0.806552    44A     -0.702570    45A     -0.671101
      46A     -0.609378    47A     -0.595604    48A     -0.584876
      49A     -0.574843    50A     -0.558311    51A     -0.537124
      52A     -0.520369    53A     -0.492226    54A     -0.473822
      55A     -0.429080    56A     -0.423873    57A     -0.418801
      58A     -0.341444    59A     -0.331734

  @DF-RHF Final Energy: -5413.57238796285401

   => Energetics <=

    Nuclear Repulsion Energy =            882.1154727483633451
    One-Electron Energy =               -9285.1548425974233396
    Two-Electron Energy =                2989.4669818862066677
    Total Energy =                      -5413.5723879628540089
  Basis Set: (AUG-CC-PVTZ AUX)
    Blend: AUG-CC-PVTZ-RI
    Molecular point group: c1

    Geometry (in Angstrom), charge = 0, multiplicity = 1:

       Center              X                  Y                   Z               Mass
    ------------   -----------------  -----------------  -----------------  -----------------
         BR           2.847404692598    -0.778597502661     0.001157068747    78.918337600000
         BR          -2.837987307402    -0.778597502661     0.001157068747    78.918337600000
         C            0.004708692598     2.273878497339    -0.016329931253    12.000000000000
         C           -1.203013307402     1.565308497339    -0.010115931253    12.000000000000
         C            1.212430692598     1.565308497339    -0.010115931253    12.000000000000
         C            0.004708692598     3.780232497339     0.013821068747    12.000000000000
         C            1.195122692598     0.171542497339    -0.000612931253    12.000000000000
         C           -1.282972707402     0.173728097339    -0.001099031253    12.000000000000
         C            0.004708692598    -0.554077502661     0.005304068747    12.000000000000
         H           -2.152709307402     2.094136497339    -0.018291931253     1.007825032230
         H            2.162127692598     2.094135497339    -0.018290931253     1.007825032230
         H            0.004718692598     4.149431497339     1.044790068747     1.007825032230
         H            0.890475692598     4.181840497339    -0.485437931253     1.007825032230
         H           -0.881067307402     4.181840497339    -0.485419931253     1.007825032230
         H            0.004707692598    -1.639059502661     0.009440068747     1.007825032230

  Basis Set: AUG-CC-PVTZ
    Blend: AUG-CC-PVTZ
  Basis Set: (AUG-CC-PVTZ AUX)
    Blend: AUG-CC-PVTZ-JKFIT
	 Reference Energy          =   -5413.5723879628540089 [Eh]
	 Singles Energy            =      -0.0000000000000000 [Eh]
	 Same-Spin Energy          =      -0.4890703243659885 [Eh]
	 Opposite-Spin Energy      =      -1.3663772193277093 [Eh]
	 Correlation Energy        =      -1.8554475436936979 [Eh]
	 Total Energy              =   -5415.4278355065480355 [Eh]

	 ================> DF-SCS-MP2 Energies <==================
	-----------------------------------------------------------
	 SCS Same-Spin Scale       =       0.3333333333333333 [-]
	 SCS Opposite-Spin Scale   =       1.2000000000000000 [-]
	 SCS Same-Spin Energy      =      -0.1630234414553295 [Eh]
	 SCS Opposite-Spin Energy  =      -1.6396526631932511 [Eh]
	 SCS Correlation Energy    =      -1.8026761046485806 [Eh]
	 SCS Total Energy          =   -5415.3750640675025352 [Eh]
	-----------------------------------------------------------

  Dipole Moment: [D]
     X:    -0.3689      Y:     1.9785      Z:     0.0359     Total:     2.0129

*** Psi4 exiting successfully. Buy a developer a beer!
