                               Psi4 1.4a3.dev225

  ==> Input File <==

--------------------------------------------------------------------------
#psi4
#
memory 32 gb

molecule  {
0 1
 Br        2.8426960    -0.9006560     0.0010230
 Br       -2.8426960    -0.9006560     0.0010230
  C        0.0000000     2.1518200    -0.0164640
  C       -1.1590686     1.4430053    -0.0102084
  C        1.2077220     1.4432500    -0.0102500
  C        0.0000000     3.6581740     0.0136870
  C        1.1904140     0.0494840    -0.0007470
  C       -1.1904140     0.0494850    -0.0007470
  C        0.0000000    -0.6761360     0.0051700
  H       -2.1574180     1.9720780    -0.0184260
  H        2.1574190     1.9720770    -0.0184250
  H        0.0000100     4.0273730     1.0446560
  H        0.8857670     4.0597820    -0.4855720
  H       -0.8857760     4.0597820    -0.4855540
  H       -0.0000010    -1.7611180     0.0093060
units angstrom
no_reorient  #important for SAPT in psi4, default
symmetry c1  #important for SAPT in psi4, default
}

set PROPERTIES_ORIGIN ["COM"]
properties('MP2/aug-cc-pvtz', properties = ['dipole'])
--------------------------------------------------------------------------

    Molecular point group: c1
  Charge       = 0
  Multiplicity = 1
  Basis Set: AUG-CC-PVTZ
    Blend: AUG-CC-PVTZ
  Basis Set: (AUG-CC-PVTZ AUX)
    Blend: AUG-CC-PVTZ-JKFIT

    Orbital Energies [Eh]
    ---------------------

    Doubly Occupied:

       1A   -490.034068     2A   -490.031376     3A    -65.173710
       4A    -65.171084     5A    -58.529052     6A    -58.527624
       7A    -58.527594     8A    -58.526410     9A    -58.525001
      10A    -58.524975    11A    -11.314077    12A    -11.313562
      13A    -11.266787    14A    -11.264842    15A    -11.259015
      16A    -11.257326    17A    -11.242790    18A     -9.846348
      19A     -9.843782    20A     -7.458020    21A     -7.455418
      22A     -7.451075    23A     -7.451024    24A     -7.448542
      25A     -7.448506    26A     -3.201846    27A     -3.199209
      28A     -3.198242    29A     -3.198019    30A     -3.195637
      31A     -3.195432    32A     -3.189138    33A     -3.189129
      34A     -3.186650    35A     -3.186641    36A     -1.198350
      37A     -1.094306    38A     -1.091706    39A     -1.004973
      40A     -0.976442    41A     -0.959527    42A     -0.820630
      43A     -0.812073    44A     -0.704335    45A     -0.679449
      46A     -0.605707    47A     -0.598867    48A     -0.587015
      49A     -0.573199    50A     -0.559303    51A     -0.542806
      52A     -0.512344    53A     -0.490917    54A     -0.467313
      55A     -0.426855    56A     -0.425561    57A     -0.420127
      58A     -0.348672    59A     -0.338968

  @DF-RHF Final Energy: -5413.58023213090019

   => Energetics <=

    Nuclear Repulsion Energy =            882.2006240731304842
    One-Electron Energy =               -9285.4189244218632666
    Two-Electron Energy =                2989.6380682178332790
    Total Energy =                      -5413.5802321309001854
  Basis Set: (AUG-CC-PVTZ AUX)
    Blend: AUG-CC-PVTZ-RI
    Molecular point group: c1

    Geometry (in Angstrom), charge = 0, multiplicity = 1:

       Center              X                  Y                   Z               Mass
    ------------   -----------------  -----------------  -----------------  -----------------
         BR           2.840340693929    -0.778479900702     0.001131522889    78.918337600000
         BR          -2.845051306071    -0.778479900702     0.001131522889    78.918337600000
         C           -0.002355306071     2.273996099298    -0.016355477111    12.000000000000
         C           -1.161423906071     1.565181399298    -0.010099877111    12.000000000000
         C            1.205366693929     1.565426099298    -0.010141477111    12.000000000000
         C           -0.002355306071     3.780350099298     0.013795522889    12.000000000000
         C            1.188058693929     0.171660099298    -0.000638477111    12.000000000000
         C           -1.192769306071     0.171661099298    -0.000638477111    12.000000000000
         C           -0.002355306071    -0.553959900702     0.005278522889    12.000000000000
         H           -2.159773306071     2.094254099298    -0.018317477111     1.007825032230
         H            2.155063693929     2.094253099298    -0.018316477111     1.007825032230
         H           -0.002345306071     4.149549099298     1.044764522889     1.007825032230
         H            0.883411693929     4.181958099298    -0.485463477111     1.007825032230
         H           -0.888131306071     4.181958099298    -0.485445477111     1.007825032230
         H           -0.002356306071    -1.638941900702     0.009414522889     1.007825032230

  Basis Set: AUG-CC-PVTZ
    Blend: AUG-CC-PVTZ
  Basis Set: (AUG-CC-PVTZ AUX)
    Blend: AUG-CC-PVTZ-JKFIT
	 Reference Energy          =   -5413.5802321309001854 [Eh]
	 Singles Energy            =      -0.0000000000000000 [Eh]
	 Same-Spin Energy          =      -0.4880956773883209 [Eh]
	 Opposite-Spin Energy      =      -1.3643927437449468 [Eh]
	 Correlation Energy        =      -1.8524884211332677 [Eh]
	 Total Energy              =   -5415.4327205520330608 [Eh]

	 ================> DF-SCS-MP2 Energies <==================
	-----------------------------------------------------------
	 SCS Same-Spin Scale       =       0.3333333333333333 [-]
	 SCS Opposite-Spin Scale   =       1.2000000000000000 [-]
	 SCS Same-Spin Energy      =      -0.1626985591294403 [Eh]
	 SCS Opposite-Spin Energy  =      -1.6372712924939361 [Eh]
	 SCS Correlation Energy    =      -1.7999698516233764 [Eh]
	 SCS Total Energy          =   -5415.3802019825234311 [Eh]
	-----------------------------------------------------------

  Dipole Moment: [D]
     X:    -0.0540      Y:     2.1218      Z:     0.0359     Total:     2.1228

*** Psi4 exiting successfully. Buy a developer a beer!
