                               Psi4 1.4a3.dev225

  ==> Input File <==

--------------------------------------------------------------------------
#psi4
#
memory 32 gb

molecule  {
0 1
 Br        2.8426960    -0.9006560     0.0010230
 Br       -2.8426960    -0.9006560     0.0010230
  C        0.0000000     2.1518200    -0.0164640
  C       -1.2077220     1.4432500    -0.0102500
  C        1.2077220     1.4432500    -0.0102500
  C        0.0000000     3.6581740     0.0136870
  C        1.1904140     0.0494840    -0.0007470
  C       -1.1906623     0.0694830    -0.0008834
  C        0.0000000    -0.6761360     0.0051700
  H       -2.1574180     1.9720780    -0.0184260
  H        2.1574190     1.9720770    -0.0184250
  H        0.0000100     4.0273730     1.0446560
  H        0.8857670     4.0597820    -0.4855720
  H       -0.8857760     4.0597820    -0.4855540
  H       -0.0000010    -1.7611180     0.0093060
units angstrom
no_reorient  #important for SAPT in psi4, default
symmetry c1  #important for SAPT in psi4, default
}

set PROPERTIES_ORIGIN ["COM"]
properties('MP2/aug-cc-pvtz', properties = ['dipole'])
--------------------------------------------------------------------------

    Molecular point group: c1
  Charge       = 0
  Multiplicity = 1
  Basis Set: AUG-CC-PVTZ
    Blend: AUG-CC-PVTZ
  Basis Set: (AUG-CC-PVTZ AUX)
    Blend: AUG-CC-PVTZ-JKFIT

    Orbital Energies [Eh]
    ---------------------

    Doubly Occupied:

       1A   -490.032020     2A   -490.031037     3A    -65.171731
       4A    -65.170709     5A    -58.527055     6A    -58.526039
       7A    -58.525650     8A    -58.525620     9A    -58.524628
      10A    -58.524600    11A    -11.315164    12A    -11.314832
      13A    -11.273096    14A    -11.266116    15A    -11.258788
      16A    -11.257188    17A    -11.243224    18A     -9.844433
      19A     -9.843345    20A     -7.456066    21A     -7.454954
      22A     -7.449200    23A     -7.449150    24A     -7.448108
      25A     -7.448065    26A     -3.199855    27A     -3.198731
      28A     -3.196290    29A     -3.196072    30A     -3.195192
      31A     -3.194984    32A     -3.187305    33A     -3.187296
      34A     -3.186221    35A     -3.186212    36A     -1.196076
      37A     -1.095691    38A     -1.087580    39A     -1.003431
      40A     -0.978569    41A     -0.959557    42A     -0.815921
      43A     -0.814301    44A     -0.709781    45A     -0.678268
      46A     -0.604806    47A     -0.598406    48A     -0.587718
      49A     -0.584180    50A     -0.560104    51A     -0.542288
      52A     -0.511787    53A     -0.489002    54A     -0.467174
      55A     -0.425838    56A     -0.423158    57A     -0.419389
      58A     -0.344722    59A     -0.341983

  @DF-RHF Final Energy: -5413.58273220787305

   => Energetics <=

    Nuclear Repulsion Energy =            881.4877848725171816
    One-Electron Energy =               -9284.0436224248969665
    Two-Electron Energy =                2988.9731053445070756
    Total Energy =                      -5413.5827322078730504
  Basis Set: (AUG-CC-PVTZ AUX)
    Blend: AUG-CC-PVTZ-RI
    Molecular point group: c1

    Geometry (in Angstrom), charge = 0, multiplicity = 1:

       Center              X                  Y                   Z               Mass
    ------------   -----------------  -----------------  -----------------  -----------------
         BR           2.842708016091    -0.779459846027     0.001140139836    78.918337600000
         BR          -2.842683983909    -0.779459846027     0.001140139836    78.918337600000
         C            0.000012016091     2.273016153973    -0.016346860164    12.000000000000
         C           -1.207709983909     1.564446153973    -0.010132860164    12.000000000000
         C            1.207734016091     1.564446153973    -0.010132860164    12.000000000000
         C            0.000012016091     3.779370153973     0.013804139836    12.000000000000
         C            1.190426016091     0.170680153973    -0.000629860164    12.000000000000
         C           -1.190650283909     0.190679153973    -0.000766260164    12.000000000000
         C            0.000012016091    -0.554939846027     0.005287139836    12.000000000000
         H           -2.157405983909     2.093274153973    -0.018308860164     1.007825032230
         H            2.157431016091     2.093273153973    -0.018307860164     1.007825032230
         H            0.000022016091     4.148569153973     1.044773139836     1.007825032230
         H            0.885779016091     4.180978153973    -0.485454860164     1.007825032230
         H           -0.885763983909     4.180978153973    -0.485436860164     1.007825032230
         H            0.000011016091    -1.639921846027     0.009423139836     1.007825032230

  Basis Set: AUG-CC-PVTZ
    Blend: AUG-CC-PVTZ
  Basis Set: (AUG-CC-PVTZ AUX)
    Blend: AUG-CC-PVTZ-JKFIT
	 Reference Energy          =   -5413.5827322078730504 [Eh]
	 Singles Energy            =      -0.0000000000000000 [Eh]
	 Same-Spin Energy          =      -0.4879377755768550 [Eh]
	 Opposite-Spin Energy      =      -1.3641363939250797 [Eh]
	 Correlation Energy        =      -1.8520741695019347 [Eh]
	 Total Energy              =   -5415.4348063773750255 [Eh]

	 ================> DF-SCS-MP2 Energies <==================
	-----------------------------------------------------------
	 SCS Same-Spin Scale       =       0.3333333333333333 [-]
	 SCS Opposite-Spin Scale   =       1.2000000000000000 [-]
	 SCS Same-Spin Energy      =      -0.1626459251922850 [Eh]
	 SCS Opposite-Spin Energy  =      -1.6369636727100956 [Eh]
	 SCS Correlation Energy    =      -1.7996095979023805 [Eh]
	 SCS Total Energy          =   -5415.3823418057754679 [Eh]
	-----------------------------------------------------------

  Dipole Moment: [D]
     X:     0.0384      Y:     2.2108      Z:     0.0365     Total:     2.2114

*** Psi4 exiting successfully. Buy a developer a beer!
