                               Psi4 1.4a3.dev225

  ==> Input File <==

--------------------------------------------------------------------------
#psi4
#
memory 32 gb

molecule  {
0 1
 Br        2.8426960    -0.9006560     0.0010230
 Br       -2.8426960    -0.9006560     0.0010230
  C        0.0000000     2.1518200    -0.0164640
  C       -1.2077220     1.4432500    -0.0102500
  C        1.1904719     1.4533706    -0.0103388
  C        0.0000000     3.6581740     0.0136870
  C        1.1904140     0.0494840    -0.0007470
  C       -1.1904140     0.0494850    -0.0007470
  C        0.0000000    -0.6761360     0.0051700
  H       -2.1574180     1.9720780    -0.0184260
  H        2.1574190     1.9720770    -0.0184250
  H        0.0000100     4.0273730     1.0446560
  H        0.8857670     4.0597820    -0.4855720
  H       -0.8857760     4.0597820    -0.4855540
  H       -0.0000010    -1.7611180     0.0093060
units angstrom
no_reorient  #important for SAPT in psi4, default
symmetry c1  #important for SAPT in psi4, default
}

set PROPERTIES_ORIGIN ["COM"]
properties('MP2/aug-cc-pvtz', properties = ['dipole'])
--------------------------------------------------------------------------

    Molecular point group: c1
  Charge       = 0
  Multiplicity = 1
  Basis Set: AUG-CC-PVTZ
    Blend: AUG-CC-PVTZ
  Basis Set: (AUG-CC-PVTZ AUX)
    Blend: AUG-CC-PVTZ-JKFIT

    Orbital Energies [Eh]
    ---------------------

    Doubly Occupied:

       1A   -490.032866     2A   -490.031811     3A    -65.172545
       4A    -65.171518     5A    -58.527877     6A    -58.526844
       7A    -58.526463     8A    -58.526433     9A    -58.525436
      10A    -58.525408    11A    -11.315634    12A    -11.314570
      13A    -11.269812    14A    -11.264837    15A    -11.258961
      16A    -11.258372    17A    -11.242502    18A     -9.845219
      19A     -9.844217    20A     -7.456864    21A     -7.455852
      22A     -7.449972    23A     -7.449920    24A     -7.448981
      25A     -7.448935    26A     -3.200668    27A     -3.199643
      28A     -3.197091    29A     -3.196868    30A     -3.196076
      31A     -3.195860    32A     -3.188062    33A     -3.188053
      34A     -3.187085    35A     -3.187076    36A     -1.195664
      37A     -1.094273    38A     -1.090063    39A     -1.004467
      40A     -0.976481    41A     -0.959100    42A     -0.817250
      43A     -0.813145    44A     -0.707795    45A     -0.677904
      46A     -0.604579    47A     -0.598139    48A     -0.587716
      49A     -0.580755    50A     -0.559648    51A     -0.541773
      52A     -0.510020    53A     -0.492526    54A     -0.467028
      55A     -0.426266    56A     -0.424212    57A     -0.420045
      58A     -0.347398    59A     -0.338651

  @DF-RHF Final Energy: -5413.58255369952803

   => Energetics <=

    Nuclear Repulsion Energy =            881.6338327171241644
    One-Electron Energy =               -9284.3063199953485309
    Two-Electron Energy =                2989.0899335786966731
    Total Energy =                      -5413.5825536995289440
  Basis Set: (AUG-CC-PVTZ AUX)
    Blend: AUG-CC-PVTZ-RI
    Molecular point group: c1

    Geometry (in Angstrom), charge = 0, multiplicity = 1:

       Center              X                  Y                   Z               Mass
    ------------   -----------------  -----------------  -----------------  -----------------
         BR           2.843531070053    -0.778981682938     0.001137835529    78.918337600000
         BR          -2.841860929947    -0.778981682938     0.001137835529    78.918337600000
         C            0.000835070053     2.273494317062    -0.016349164471    12.000000000000
         C           -1.206886929947     1.564924317062    -0.010135164471    12.000000000000
         C            1.191306970053     1.575044917062    -0.010223964471    12.000000000000
         C            0.000835070053     3.779848317062     0.013801835529    12.000000000000
         C            1.191249070053     0.171158317062    -0.000632164471    12.000000000000
         C           -1.189578929947     0.171159317062    -0.000632164471    12.000000000000
         C            0.000835070053    -0.554461682938     0.005284835529    12.000000000000
         H           -2.156582929947     2.093752317062    -0.018311164471     1.007825032230
         H            2.158254070053     2.093751317062    -0.018310164471     1.007825032230
         H            0.000845070053     4.149047317062     1.044770835529     1.007825032230
         H            0.886602070053     4.181456317062    -0.485457164471     1.007825032230
         H           -0.884940929947     4.181456317062    -0.485439164471     1.007825032230
         H            0.000834070053    -1.639443682938     0.009420835529     1.007825032230

  Basis Set: AUG-CC-PVTZ
    Blend: AUG-CC-PVTZ
  Basis Set: (AUG-CC-PVTZ AUX)
    Blend: AUG-CC-PVTZ-JKFIT
	 Reference Energy          =   -5413.5825536995280345 [Eh]
	 Singles Energy            =      -0.0000000000000000 [Eh]
	 Same-Spin Energy          =      -0.4880379971861031 [Eh]
	 Opposite-Spin Energy      =      -1.3643275869117728 [Eh]
	 Correlation Energy        =      -1.8523655840978759 [Eh]
	 Total Energy              =   -5415.4349192836261864 [Eh]

	 ================> DF-SCS-MP2 Energies <==================
	-----------------------------------------------------------
	 SCS Same-Spin Scale       =       0.3333333333333333 [-]
	 SCS Opposite-Spin Scale   =       1.2000000000000000 [-]
	 SCS Same-Spin Energy      =      -0.1626793323953677 [Eh]
	 SCS Opposite-Spin Energy  =      -1.6371931042941272 [Eh]
	 SCS Correlation Energy    =      -1.7998724366894949 [Eh]
	 SCS Total Energy          =   -5415.3824261362178731 [Eh]
	-----------------------------------------------------------

  Dipole Moment: [D]
     X:     0.0265      Y:     2.1464      Z:     0.0361     Total:     2.1469

*** Psi4 exiting successfully. Buy a developer a beer!
