                               Psi4 1.4a3.dev225

  ==> Input File <==

--------------------------------------------------------------------------
#psi4
#
memory 32 gb

molecule  {
0 1
 Br        2.8426960    -0.9006560     0.0010230
 Br       -2.8426960    -0.9006560     0.0010230
  C        0.0000000     2.1518200    -0.0164640
  C       -1.2077220     1.4432500    -0.0102500
  C        1.2077220     1.4432500    -0.0102500
  C        0.0000000     3.6581740     0.0136870
  C        1.1904140     0.0494840    -0.0007470
  C       -1.2390668     0.0497284    -0.0009844
  C        0.0000000    -0.6761360     0.0051700
  H       -2.1574180     1.9720780    -0.0184260
  H        2.1574190     1.9720770    -0.0184250
  H        0.0000100     4.0273730     1.0446560
  H        0.8857670     4.0597820    -0.4855720
  H       -0.8857760     4.0597820    -0.4855540
  H       -0.0000010    -1.7611180     0.0093060
units angstrom
no_reorient  #important for SAPT in psi4, default
symmetry c1  #important for SAPT in psi4, default
}

set PROPERTIES_ORIGIN ["COM"]
properties('MP2/aug-cc-pvtz', properties = ['dipole'])
--------------------------------------------------------------------------

    Molecular point group: c1
  Charge       = 0
  Multiplicity = 1
  Basis Set: AUG-CC-PVTZ
    Blend: AUG-CC-PVTZ
  Basis Set: (AUG-CC-PVTZ AUX)
    Blend: AUG-CC-PVTZ-JKFIT

    Orbital Energies [Eh]
    ---------------------

    Doubly Occupied:

       1A   -490.035969     2A   -490.031028     3A    -65.175851
       4A    -65.170732     5A    -58.531152     6A    -58.529768
       7A    -58.529732     8A    -58.526059     9A    -58.524649
      10A    -58.524622    11A    -11.315885    12A    -11.313373
      13A    -11.271510    14A    -11.267366    15A    -11.257909
      16A    -11.257803    17A    -11.242268    18A     -9.848853
      19A     -9.843429    20A     -7.460603    21A     -7.455069
      22A     -7.453635    23A     -7.453553    24A     -7.448185
      25A     -7.448148    26A     -3.204451    27A     -3.200769
      28A     -3.200494    29A     -3.198861    30A     -3.195285
      31A     -3.195080    32A     -3.191699    33A     -3.191689
      34A     -3.186291    35A     -3.186282    36A     -1.190549
      37A     -1.099372    38A     -1.086807    39A     -1.003972
      40A     -0.977528    41A     -0.955658    42A     -0.815008
      43A     -0.811096    44A     -0.705673    45A     -0.674169
      46A     -0.605660    47A     -0.596680    48A     -0.586015
      49A     -0.579894    50A     -0.559361    51A     -0.539197
      52A     -0.514829    53A     -0.493154    54A     -0.470349
      55A     -0.427709    56A     -0.423735    57A     -0.419680
      58A     -0.342251    59A     -0.336876

  @DF-RHF Final Energy: -5413.57992859536171

   => Energetics <=

    Nuclear Repulsion Energy =            881.8347605362408785
    One-Electron Energy =               -9284.6628275525108620
    Two-Electron Energy =                2989.2481384209081625
    Total Energy =                      -5413.5799285953617073
  Basis Set: (AUG-CC-PVTZ AUX)
    Blend: AUG-CC-PVTZ-RI
    Molecular point group: c1

    Geometry (in Angstrom), charge = 0, multiplicity = 1:

       Center              X                  Y                   Z               Mass
    ------------   -----------------  -----------------  -----------------  -----------------
         BR           2.845051268894    -0.778503529531     0.001145029227    78.918337600000
         BR          -2.840340731106    -0.778503529531     0.001145029227    78.918337600000
         C            0.002355268894     2.273972470469    -0.016341970773    12.000000000000
         C           -1.205366731106     1.565402470469    -0.010127970773    12.000000000000
         C            1.210077268894     1.565402470469    -0.010127970773    12.000000000000
         C            0.002355268894     3.780326470469     0.013809029227    12.000000000000
         C            1.192769268894     0.171636470469    -0.000624970773    12.000000000000
         C           -1.236711531106     0.171880870469    -0.000862370773    12.000000000000
         C            0.002355268894    -0.553983529531     0.005292029227    12.000000000000
         H           -2.155062731106     2.094230470469    -0.018303970773     1.007825032230
         H            2.159774268894     2.094229470469    -0.018302970773     1.007825032230
         H            0.002365268894     4.149525470469     1.044778029227     1.007825032230
         H            0.888122268894     4.181934470469    -0.485449970773     1.007825032230
         H           -0.883420731106     4.181934470469    -0.485431970773     1.007825032230
         H            0.002354268894    -1.638965529531     0.009428029227     1.007825032230

  Basis Set: AUG-CC-PVTZ
    Blend: AUG-CC-PVTZ
  Basis Set: (AUG-CC-PVTZ AUX)
    Blend: AUG-CC-PVTZ-JKFIT
	 Reference Energy          =   -5413.5799285953617073 [Eh]
	 Singles Energy            =      -0.0000000000000000 [Eh]
	 Same-Spin Energy          =      -0.4884969228265708 [Eh]
	 Opposite-Spin Energy      =      -1.3651814011694094 [Eh]
	 Correlation Energy        =      -1.8536783239959802 [Eh]
	 Total Energy              =   -5415.4336069193577714 [Eh]

	 ================> DF-SCS-MP2 Energies <==================
	-----------------------------------------------------------
	 SCS Same-Spin Scale       =       0.3333333333333333 [-]
	 SCS Opposite-Spin Scale   =       1.2000000000000000 [-]
	 SCS Same-Spin Energy      =      -0.1628323076088569 [Eh]
	 SCS Opposite-Spin Energy  =      -1.6382176814032914 [Eh]
	 SCS Correlation Energy    =      -1.8010499890121483 [Eh]
	 SCS Total Energy          =   -5415.3809785843741338 [Eh]
	-----------------------------------------------------------

  Dipole Moment: [D]
     X:    -0.1898      Y:     2.0777      Z:     0.0362     Total:     2.0866

*** Psi4 exiting successfully. Buy a developer a beer!
