                               Psi4 1.4a3.dev225

  ==> Input File <==

--------------------------------------------------------------------------
#psi4
#
memory 32 gb

molecule  {
0 1
 Br        2.8426960    -0.9006560     0.0010230
 Br       -2.8426960    -0.9006560     0.0010230
  C        0.0000000     2.1518200    -0.0164640
  C       -1.2077220     1.4432500    -0.0102500
  C        1.2077220     1.4432500    -0.0102500
  C        0.0000000     3.6581740     0.0136870
  C        1.1904140     0.0494840    -0.0007470
  C       -1.1904140     0.0494850    -0.0007470
  C        0.0000000    -0.6761360     0.0051700
  H       -2.1574180     1.9720780    -0.0184260
  H        2.1574190     1.9720770    -0.0184250
  H        0.0000095     4.0105159     0.9975833
  H        0.8857670     4.0597820    -0.4855720
  H       -0.8857760     4.0597820    -0.4855540
  H       -0.0000010    -1.7611180     0.0093060
units angstrom
no_reorient  #important for SAPT in psi4, default
symmetry c1  #important for SAPT in psi4, default
}

set PROPERTIES_ORIGIN ["COM"]
properties('MP2/aug-cc-pvtz', properties = ['dipole'])
--------------------------------------------------------------------------

    Molecular point group: c1
  Charge       = 0
  Multiplicity = 1
  Basis Set: AUG-CC-PVTZ
    Blend: AUG-CC-PVTZ
  Basis Set: (AUG-CC-PVTZ AUX)
    Blend: AUG-CC-PVTZ-JKFIT

    Orbital Energies [Eh]
    ---------------------

    Doubly Occupied:

       1A   -490.031893     2A   -490.031893     3A    -65.171601
       4A    -65.171601     5A    -58.526926     6A    -58.526926
       7A    -58.525519     8A    -58.525519     9A    -58.525490
      10A    -58.525490    11A    -11.314862    12A    -11.314852
      13A    -11.272191    14A    -11.264635    15A    -11.258696
      16A    -11.258634    17A    -11.236921    18A     -9.844300
      19A     -9.844300    20A     -7.455934    21A     -7.455934
      22A     -7.449065    23A     -7.449065    24A     -7.449015
      25A     -7.449015    26A     -3.199725    27A     -3.199724
      28A     -3.196160    29A     -3.196160    30A     -3.195940
      31A     -3.195939    32A     -3.187169    33A     -3.187169
      34A     -3.187160    35A     -3.187159    36A     -1.194941
      37A     -1.095049    38A     -1.089164    39A     -1.004868
      40A     -0.976680    41A     -0.962510    42A     -0.816235
      43A     -0.814692    44A     -0.709035    45A     -0.677366
      46A     -0.608078    47A     -0.602342    48A     -0.588491
      49A     -0.582896    50A     -0.559534    51A     -0.543662
      52A     -0.510602    53A     -0.491201    54A     -0.467195
      55A     -0.425921    56A     -0.423447    57A     -0.419775
      58A     -0.345925    59A     -0.339654

  @DF-RHF Final Energy: -5413.58203387531466

   => Energetics <=

    Nuclear Repulsion Energy =            881.8472935108444517
    One-Electron Energy =               -9284.7349687986679783
    Two-Electron Energy =                2989.3056414125094307
    Total Energy =                      -5413.5820338753146643
  Basis Set: (AUG-CC-PVTZ AUX)
    Blend: AUG-CC-PVTZ-RI
    Molecular point group: c1

    Geometry (in Angstrom), charge = 0, multiplicity = 1:

       Center              X                  Y                   Z               Mass
    ------------   -----------------  -----------------  -----------------  -----------------
         BR           2.842695997967    -0.778423210360     0.001324921083    78.918337600000
         BR          -2.842696002033    -0.778423210360     0.001324921083    78.918337600000
         C           -0.000000002033     2.274052789640    -0.016162078917    12.000000000000
         C           -1.207722002033     1.565482789640    -0.009948078917    12.000000000000
         C            1.207721997967     1.565482789640    -0.009948078917    12.000000000000
         C           -0.000000002033     3.780406789640     0.013988921083    12.000000000000
         C            1.190413997967     0.171716789640    -0.000445078917    12.000000000000
         C           -1.190414002033     0.171717789640    -0.000445078917    12.000000000000
         C           -0.000000002033    -0.553903210360     0.005471921083    12.000000000000
         H           -2.157418002033     2.094310789640    -0.018124078917     1.007825032230
         H            2.157418997967     2.094309789640    -0.018123078917     1.007825032230
         H            0.000009497967     4.132748689640     0.997885221083     1.007825032230
         H            0.885766997967     4.182014789640    -0.485270078917     1.007825032230
         H           -0.885776002033     4.182014789640    -0.485252078917     1.007825032230
         H           -0.000001002033    -1.638885210360     0.009607921083     1.007825032230

  Basis Set: AUG-CC-PVTZ
    Blend: AUG-CC-PVTZ
  Basis Set: (AUG-CC-PVTZ AUX)
    Blend: AUG-CC-PVTZ-JKFIT
	 Reference Energy          =   -5413.5820338753146643 [Eh]
	 Singles Energy            =      -0.0000000000000000 [Eh]
	 Same-Spin Energy          =      -0.4880452281806573 [Eh]
	 Opposite-Spin Energy      =      -1.3640259908417416 [Eh]
	 Correlation Energy        =      -1.8520712190223989 [Eh]
	 Total Energy              =   -5415.4341050943367009 [Eh]

	 ================> DF-SCS-MP2 Energies <==================
	-----------------------------------------------------------
	 SCS Same-Spin Scale       =       0.3333333333333333 [-]
	 SCS Opposite-Spin Scale   =       1.2000000000000000 [-]
	 SCS Same-Spin Energy      =      -0.1626817427268857 [Eh]
	 SCS Opposite-Spin Energy  =      -1.6368311890100899 [Eh]
	 SCS Correlation Energy    =      -1.7995129317369758 [Eh]
	 SCS Total Energy          =   -5415.3815468070515635 [Eh]
	-----------------------------------------------------------

  Dipole Moment: [D]
     X:     0.0000      Y:     2.1944      Z:     0.0481     Total:     2.1949

*** Psi4 exiting successfully. Buy a developer a beer!
