                               Psi4 1.4a3.dev225

  ==> Input File <==

--------------------------------------------------------------------------
#psi4
#
memory 32 gb

molecule  {
0 1
 Br        2.8426960    -0.9006560     0.0010230
 Br       -2.8426960    -0.9006560     0.0010230
  C        0.0000000     2.1518200    -0.0164640
  C       -1.2077220     1.4432500    -0.0102500
  C        1.2077220     1.4432500    -0.0102500
  C        0.0000000     3.6581740     0.0136870
  C        1.1904140     0.0494840    -0.0007470
  C       -1.1080432     0.1699424    -0.0009882
  C        0.0000000    -0.6761360     0.0051700
  H       -2.1574180     1.9720780    -0.0184260
  H        2.1574190     1.9720770    -0.0184250
  H        0.0000100     4.0273730     1.0446560
  H        0.8857670     4.0597820    -0.4855720
  H       -0.8857760     4.0597820    -0.4855540
  H       -0.0000010    -1.7611180     0.0093060
units angstrom
no_reorient  #important for SAPT in psi4, default
symmetry c1  #important for SAPT in psi4, default
}

set PROPERTIES_ORIGIN ["COM"]
properties('MP2/aug-cc-pvtz', properties = ['dipole'])
--------------------------------------------------------------------------

    Molecular point group: c1
  Charge       = 0
  Multiplicity = 1
  Basis Set: AUG-CC-PVTZ
    Blend: AUG-CC-PVTZ
  Basis Set: (AUG-CC-PVTZ AUX)
    Blend: AUG-CC-PVTZ-JKFIT

    Orbital Energies [Eh]
    ---------------------

    Doubly Occupied:

       1A   -490.034496     2A   -490.016365     3A    -65.174231
       4A    -65.155814     5A    -58.529548     6A    -58.528150
       7A    -58.528114     8A    -58.511137     9A    -58.509750
      10A    -58.509731    11A    -11.320042    12A    -11.315250
      13A    -11.279416    14A    -11.270550    15A    -11.260892
      16A    -11.251515    17A    -11.246740    18A     -9.846949
      19A     -9.827947    20A     -7.458568    21A     -7.451733
      22A     -7.451659    23A     -7.439183    24A     -7.432793
      25A     -7.432775    26A     -3.202347    27A     -3.198800
      28A     -3.198562    29A     -3.189839    30A     -3.189829
      31A     -3.182732    32A     -3.179563    33A     -3.179464
      34A     -3.171113    35A     -3.171104    36A     -1.213449
      37A     -1.103703    38A     -1.083342    39A     -1.001077
      40A     -0.984176    41A     -0.964330    42A     -0.825148
      43A     -0.813555    44A     -0.720536    45A     -0.689387
      46A     -0.616350    47A     -0.604200    48A     -0.598573
      49A     -0.581704    50A     -0.562362    51A     -0.551660
      52A     -0.515080    53A     -0.466510    54A     -0.462010
      55A     -0.425145    56A     -0.418051    57A     -0.410512
      58A     -0.356538    59A     -0.347592

  @DF-RHF Final Energy: -5413.56337789158351

   => Energetics <=

    Nuclear Repulsion Energy =            880.8168527952292379
    One-Electron Energy =               -9282.8370734417112544
    Two-Electron Energy =                2988.4568427548983891
    Total Energy =                      -5413.5633778915835137
  Basis Set: (AUG-CC-PVTZ AUX)
    Blend: AUG-CC-PVTZ-RI
    Molecular point group: c1

    Geometry (in Angstrom), charge = 0, multiplicity = 1:

       Center              X                  Y                   Z               Mass
    ------------   -----------------  -----------------  -----------------  -----------------
         BR           2.838708440893    -0.784323066815     0.001145213184    78.918337600000
         BR          -2.846683559107    -0.784323066815     0.001145213184    78.918337600000
         C           -0.003987559107     2.268152933185    -0.016341786816    12.000000000000
         C           -1.211709559107     1.559582933185    -0.010127786816    12.000000000000
         C            1.203734440893     1.559582933185    -0.010127786816    12.000000000000
         C           -0.003987559107     3.774506933185     0.013809213184    12.000000000000
         C            1.186426440893     0.165816933185    -0.000624786816    12.000000000000
         C           -1.112030759107     0.286275333185    -0.000865986816    12.000000000000
         C           -0.003987559107    -0.559803066815     0.005292213184    12.000000000000
         H           -2.161405559107     2.088410933185    -0.018303786816     1.007825032230
         H            2.153431440893     2.088409933185    -0.018302786816     1.007825032230
         H           -0.003977559107     4.143705933185     1.044778213184     1.007825032230
         H            0.881779440893     4.176114933185    -0.485449786816     1.007825032230
         H           -0.889763559107     4.176114933185    -0.485431786816     1.007825032230
         H           -0.003988559107    -1.644785066815     0.009428213184     1.007825032230

  Basis Set: AUG-CC-PVTZ
    Blend: AUG-CC-PVTZ
  Basis Set: (AUG-CC-PVTZ AUX)
    Blend: AUG-CC-PVTZ-JKFIT
	 Reference Energy          =   -5413.5633778915835137 [Eh]
	 Singles Energy            =      -0.0000000000000000 [Eh]
	 Same-Spin Energy          =      -0.4873485755232929 [Eh]
	 Opposite-Spin Energy      =      -1.3631249192327337 [Eh]
	 Correlation Energy        =      -1.8504734947560266 [Eh]
	 Total Energy              =   -5415.4138513863399567 [Eh]

	 ================> DF-SCS-MP2 Energies <==================
	-----------------------------------------------------------
	 SCS Same-Spin Scale       =       0.3333333333333333 [-]
	 SCS Opposite-Spin Scale   =       1.2000000000000000 [-]
	 SCS Same-Spin Energy      =      -0.1624495251744310 [Eh]
	 SCS Opposite-Spin Energy  =      -1.6357499030792804 [Eh]
	 SCS Correlation Energy    =      -1.7981994282537113 [Eh]
	 SCS Total Energy          =   -5415.3615773198371244 [Eh]
	-----------------------------------------------------------

  Dipole Moment: [D]
     X:     0.6178      Y:     2.5994      Z:     0.0367     Total:     2.6721

*** Psi4 exiting successfully. Buy a developer a beer!
