                               Psi4 1.4a3.dev225

  ==> Input File <==

--------------------------------------------------------------------------
#psi4
#
memory 32 gb

molecule  {
0 1
 Br        2.8426960    -0.9006560     0.0010230
 Br       -2.8426960    -0.9006560     0.0010230
  C        0.0000000     2.1518200    -0.0164640
  C       -1.2077220     1.4432500    -0.0102500
  C        1.2077220     1.4432500    -0.0102500
  C        0.0000000     3.6581740     0.0136870
  C        1.1904140     0.0494840    -0.0007470
  C       -1.1904140     0.0494850    -0.0007470
  C        0.0000000    -0.6761360     0.0051700
  H       -2.1574180     1.9720780    -0.0184260
  H        2.1574190     1.9720770    -0.0184250
  H        0.0000100     4.0273730     1.0446560
  H        0.7237198     3.9863096    -0.3942347
  H       -0.8857760     4.0597820    -0.4855540
  H       -0.0000010    -1.7611180     0.0093060
units angstrom
no_reorient  #important for SAPT in psi4, default
symmetry c1  #important for SAPT in psi4, default
}

set PROPERTIES_ORIGIN ["COM"]
properties('MP2/aug-cc-pvtz', properties = ['dipole'])
--------------------------------------------------------------------------

    Molecular point group: c1
  Charge       = 0
  Multiplicity = 1
  Basis Set: AUG-CC-PVTZ
    Blend: AUG-CC-PVTZ
  Basis Set: (AUG-CC-PVTZ AUX)
    Blend: AUG-CC-PVTZ-JKFIT

    Orbital Energies [Eh]
    ---------------------

    Doubly Occupied:

       1A   -490.031836     2A   -490.031590     3A    -65.171543
       4A    -65.171299     5A    -58.526868     6A    -58.526623
       7A    -58.525462     8A    -58.525432     9A    -58.525218
      10A    -58.525188    11A    -11.314825    12A    -11.314472
      13A    -11.271314    14A    -11.264400    15A    -11.258757
      16A    -11.257860    17A    -11.218622    18A     -9.844242
      19A     -9.843998    20A     -7.455876    21A     -7.455629
      22A     -7.449008    23A     -7.448959    24A     -7.448766
      25A     -7.448715    26A     -3.199666    27A     -3.199419
      28A     -3.196101    29A     -3.195882    30A     -3.195857
      31A     -3.195635    32A     -3.187113    33A     -3.187103
      34A     -3.186872    35A     -3.186862    36A     -1.194933
      37A     -1.094883    38A     -1.093156    39A     -1.008414
      40A     -0.976893    41A     -0.974089    42A     -0.820679
      43A     -0.815692    44A     -0.709242    45A     -0.681599
      46A     -0.619301    47A     -0.600724    48A     -0.588537
      49A     -0.583161    50A     -0.576102    51A     -0.542180
      52A     -0.510185    53A     -0.491707    54A     -0.467015
      55A     -0.425733    56A     -0.423150    57A     -0.419625
      58A     -0.345564    59A     -0.339437

  @DF-RHF Final Energy: -5413.54900109034679

   => Energetics <=

    Nuclear Repulsion Energy =            882.6471933018545997
    One-Electron Energy =               -9286.2143694896985835
    Two-Electron Energy =                2990.0181750974966235
    Total Energy =                      -5413.5490010903467919
  Basis Set: (AUG-CC-PVTZ AUX)
    Blend: AUG-CC-PVTZ-RI
    Molecular point group: c1

    Geometry (in Angstrom), charge = 0, multiplicity = 1:

       Center              X                  Y                   Z               Mass
    ------------   -----------------  -----------------  -----------------  -----------------
         BR           2.843354834227    -0.778193028490     0.000762184990    78.918337600000
         BR          -2.842037165773    -0.778193028490     0.000762184990    78.918337600000
         C            0.000658834227     2.274282971510    -0.016724815010    12.000000000000
         C           -1.207063165773     1.565712971510    -0.010510815010    12.000000000000
         C            1.208380834227     1.565712971510    -0.010510815010    12.000000000000
         C            0.000658834227     3.780636971510     0.013426184990    12.000000000000
         C            1.191072834227     0.171946971510    -0.001007815010    12.000000000000
         C           -1.189755165773     0.171947971510    -0.001007815010    12.000000000000
         C            0.000658834227    -0.553673028490     0.004909184990    12.000000000000
         H           -2.156759165773     2.094540971510    -0.018686815010     1.007825032230
         H            2.158077834227     2.094539971510    -0.018685815010     1.007825032230
         H            0.000668834227     4.149835971510     1.044395184990     1.007825032230
         H            0.724378634227     4.108772571510    -0.394495515010     1.007825032230
         H           -0.885117165773     4.182244971510    -0.485814815010     1.007825032230
         H            0.000657834227    -1.638655028490     0.009045184990     1.007825032230

  Basis Set: AUG-CC-PVTZ
    Blend: AUG-CC-PVTZ
  Basis Set: (AUG-CC-PVTZ AUX)
    Blend: AUG-CC-PVTZ-JKFIT
	 Reference Energy          =   -5413.5490010903467919 [Eh]
	 Singles Energy            =      -0.0000000000000000 [Eh]
	 Same-Spin Energy          =      -0.4881080493288222 [Eh]
	 Opposite-Spin Energy      =      -1.3636447416989472 [Eh]
	 Correlation Energy        =      -1.8517527910277694 [Eh]
	 Total Energy              =   -5415.4007538813748397 [Eh]

	 ================> DF-SCS-MP2 Energies <==================
	-----------------------------------------------------------
	 SCS Same-Spin Scale       =       0.3333333333333333 [-]
	 SCS Opposite-Spin Scale   =       1.2000000000000000 [-]
	 SCS Same-Spin Energy      =      -0.1627026831096074 [Eh]
	 SCS Opposite-Spin Energy  =      -1.6363736900387367 [Eh]
	 SCS Correlation Energy    =      -1.7990763731483441 [Eh]
	 SCS Total Energy          =   -5415.3480774634954287 [Eh]
	-----------------------------------------------------------

  Dipole Moment: [D]
     X:     0.0394      Y:     2.2359      Z:     0.0187     Total:     2.2363

*** Psi4 exiting successfully. Buy a developer a beer!
