                               Psi4 1.4a3.dev225

  ==> Input File <==

--------------------------------------------------------------------------
#psi4
#
memory 32 gb

molecule  {
0 1
 Br        2.8426960    -0.9006560     0.0010230
 Br       -2.8426960    -0.9006560     0.0010230
  C        0.0000000     2.1518200    -0.0164640
  C       -1.2563543     1.4417967    -0.0102800
  C        1.2077220     1.4432500    -0.0102500
  C        0.0000000     3.6581740     0.0136870
  C        1.1904140     0.0494840    -0.0007470
  C       -1.1904140     0.0494850    -0.0007470
  C        0.0000000    -0.6761360     0.0051700
  H       -2.1574180     1.9720780    -0.0184260
  H        2.1574190     1.9720770    -0.0184250
  H        0.0000100     4.0273730     1.0446560
  H        0.8857670     4.0597820    -0.4855720
  H       -0.8857760     4.0597820    -0.4855540
  H       -0.0000010    -1.7611180     0.0093060
units angstrom
no_reorient  #important for SAPT in psi4, default
symmetry c1  #important for SAPT in psi4, default
}

set PROPERTIES_ORIGIN ["COM"]
properties('MP2/aug-cc-pvtz', properties = ['dipole'])
--------------------------------------------------------------------------

    Molecular point group: c1
  Charge       = 0
  Multiplicity = 1
  Basis Set: AUG-CC-PVTZ
    Blend: AUG-CC-PVTZ
  Basis Set: (AUG-CC-PVTZ AUX)
    Blend: AUG-CC-PVTZ-JKFIT

    Orbital Energies [Eh]
    ---------------------

    Doubly Occupied:

       1A   -490.032644     2A   -490.029839     3A    -65.172351
       4A    -65.169613     5A    -58.527675     6A    -58.526270
       7A    -58.526237     8A    -58.524921     9A    -58.523534
      10A    -58.523504    11A    -11.316441    12A    -11.316137
      13A    -11.278015    14A    -11.264807    15A    -11.260411
      16A    -11.258743    17A    -11.243134    18A     -9.845049
      19A     -9.842373    20A     -7.456683    21A     -7.453974
      22A     -7.449819    23A     -7.449755    24A     -7.447173
      25A     -7.447126    26A     -3.200476    27A     -3.197730
      28A     -3.196916    29A     -3.196681    30A     -3.194201
      31A     -3.193985    32A     -3.187915    33A     -3.187905
      34A     -3.185314    35A     -3.185304    36A     -1.192252
      37A     -1.096125    38A     -1.085467    39A     -1.003917
      40A     -0.977027    41A     -0.959381    42A     -0.818938
      43A     -0.808673    44A     -0.714292    45A     -0.675711
      46A     -0.603378    47A     -0.598431    48A     -0.595532
      49A     -0.585671    50A     -0.560013    51A     -0.541370
      52A     -0.510515    53A     -0.488422    54A     -0.467327
      55A     -0.425437    56A     -0.421203    57A     -0.419160
      58A     -0.343966    59A     -0.339547

  @DF-RHF Final Energy: -5413.57945872272012

   => Energetics <=

    Nuclear Repulsion Energy =            881.0638122976748718
    One-Electron Energy =               -9283.1977265686382452
    Two-Electron Energy =                2988.5544555482442775
    Total Energy =                      -5413.5794587227192096
  Basis Set: (AUG-CC-PVTZ AUX)
    Blend: AUG-CC-PVTZ-RI
    Molecular point group: c1

    Geometry (in Angstrom), charge = 0, multiplicity = 1:

       Center              X                  Y                   Z               Mass
    ------------   -----------------  -----------------  -----------------  -----------------
         BR           2.845050276493    -0.778421392601     0.001134989032    78.918337600000
         BR          -2.840341723507    -0.778421392601     0.001134989032    78.918337600000
         C            0.002354276493     2.274054607399    -0.016352010968    12.000000000000
         C           -1.254000023507     1.564031307399    -0.010168010968    12.000000000000
         C            1.210076276493     1.565484607399    -0.010138010968    12.000000000000
         C            0.002354276493     3.780408607399     0.013798989032    12.000000000000
         C            1.192768276493     0.171718607399    -0.000635010968    12.000000000000
         C           -1.188059723507     0.171719607399    -0.000635010968    12.000000000000
         C            0.002354276493    -0.553901392601     0.005281989032    12.000000000000
         H           -2.155063723507     2.094312607399    -0.018314010968     1.007825032230
         H            2.159773276493     2.094311607399    -0.018313010968     1.007825032230
         H            0.002364276493     4.149607607399     1.044767989032     1.007825032230
         H            0.888121276493     4.182016607399    -0.485460010968     1.007825032230
         H           -0.883421723507     4.182016607399    -0.485442010968     1.007825032230
         H            0.002353276493    -1.638883392601     0.009417989032     1.007825032230

  Basis Set: AUG-CC-PVTZ
    Blend: AUG-CC-PVTZ
  Basis Set: (AUG-CC-PVTZ AUX)
    Blend: AUG-CC-PVTZ-JKFIT
	 Reference Energy          =   -5413.5794587227201191 [Eh]
	 Singles Energy            =      -0.0000000000000000 [Eh]
	 Same-Spin Energy          =      -0.4880473710080478 [Eh]
	 Opposite-Spin Energy      =      -1.3645176425150964 [Eh]
	 Correlation Energy        =      -1.8525650135231442 [Eh]
	 Total Energy              =   -5415.4320237362435364 [Eh]

	 ================> DF-SCS-MP2 Energies <==================
	-----------------------------------------------------------
	 SCS Same-Spin Scale       =       0.3333333333333333 [-]
	 SCS Opposite-Spin Scale   =       1.2000000000000000 [-]
	 SCS Same-Spin Energy      =      -0.1626824570026826 [Eh]
	 SCS Opposite-Spin Energy  =      -1.6374211710181157 [Eh]
	 SCS Correlation Energy    =      -1.8001036280207983 [Eh]
	 SCS Total Energy          =   -5415.3795623507412529 [Eh]
	-----------------------------------------------------------

  Dipole Moment: [D]
     X:     0.0643      Y:     2.2309      Z:     0.0373     Total:     2.2322

*** Psi4 exiting successfully. Buy a developer a beer!
