                               Psi4 1.4a3.dev225

  ==> Input File <==

--------------------------------------------------------------------------
#psi4
#
memory 32 gb

molecule  {
0 1
 Br        2.8426960    -0.9006560     0.0010230
 Br       -2.8426960    -0.9006560     0.0010230
  C        0.1366688     2.1616380    -0.0945406
  C       -1.2077220     1.4432500    -0.0102500
  C        1.2077220     1.4432500    -0.0102500
  C        0.0000000     3.6581740     0.0136870
  C        1.1904140     0.0494840    -0.0007470
  C       -1.1904140     0.0494850    -0.0007470
  C        0.0000000    -0.6761360     0.0051700
  H       -2.1574180     1.9720780    -0.0184260
  H        2.1574190     1.9720770    -0.0184250
  H        0.0000100     4.0273730     1.0446560
  H        0.8857670     4.0597820    -0.4855720
  H       -0.8857760     4.0597820    -0.4855540
  H       -0.0000010    -1.7611180     0.0093060
units angstrom
no_reorient  #important for SAPT in psi4, default
symmetry c1  #important for SAPT in psi4, default
}

set PROPERTIES_ORIGIN ["COM"]
properties('MP2/aug-cc-pvtz', properties = ['dipole'])
--------------------------------------------------------------------------

    Molecular point group: c1
  Charge       = 0
  Multiplicity = 1
  Basis Set: AUG-CC-PVTZ
    Blend: AUG-CC-PVTZ
  Basis Set: (AUG-CC-PVTZ AUX)
    Blend: AUG-CC-PVTZ-JKFIT

    Orbital Energies [Eh]
    ---------------------

    Doubly Occupied:

       1A   -490.033032     2A   -490.030634     3A    -65.172709
       4A    -65.170367     5A    -58.528041     6A    -58.526629
       7A    -58.526594     8A    -58.525685     9A    -58.524284
      10A    -58.524260    11A    -11.316065    12A    -11.312992
      13A    -11.271077    14A    -11.269103    15A    -11.266240
      16A    -11.246836    17A    -11.243792    18A     -9.845385
      19A     -9.843087    20A     -7.457031    21A     -7.454707
      22A     -7.450148    23A     -7.450074    24A     -7.447858
      25A     -7.447827    26A     -3.200838    27A     -3.198480
      28A     -3.197279    29A     -3.197021    30A     -3.194914
      31A     -3.194732    32A     -3.188224    33A     -3.188215
      34A     -3.185988    35A     -3.185979    36A     -1.196067
      37A     -1.100533    38A     -1.085933    39A     -1.004316
      40A     -0.979455    41A     -0.956124    42A     -0.830413
      43A     -0.799106    44A     -0.709226    45A     -0.675043
      46A     -0.614291    47A     -0.597147    48A     -0.588868
      49A     -0.576957    50A     -0.560335    51A     -0.542266
      52A     -0.513732    53A     -0.476179    54A     -0.467431
      55A     -0.426311    56A     -0.424134    57A     -0.419281
      58A     -0.358340    59A     -0.329817

  @DF-RHF Final Energy: -5413.55817580765506

   => Energetics <=

    Nuclear Repulsion Energy =            881.4245888195753196
    One-Electron Energy =               -9283.8706696585832105
    Two-Electron Energy =                2988.8879050313535117
    Total Energy =                      -5413.5581758076550614
  Basis Set: (AUG-CC-PVTZ AUX)
    Blend: AUG-CC-PVTZ-RI
    Molecular point group: c1

    Geometry (in Angstrom), charge = 0, multiplicity = 1:

       Center              X                  Y                   Z               Mass
    ------------   -----------------  -----------------  -----------------  -----------------
         BR           2.836079884856    -0.778967034129     0.004913210358    78.918337600000
         BR          -2.849312115144    -0.778967034129     0.004913210358    78.918337600000
         C            0.130052684856     2.283326965871    -0.090650389642    12.000000000000
         C           -1.214338115144     1.564938965871    -0.006359789642    12.000000000000
         C            1.201105884856     1.564938965871    -0.006359789642    12.000000000000
         C           -0.006616115144     3.779862965871     0.017577210358    12.000000000000
         C            1.183797884856     0.171172965871     0.003143210358    12.000000000000
         C           -1.197030115144     0.171173965871     0.003143210358    12.000000000000
         C           -0.006616115144    -0.554447034129     0.009060210358    12.000000000000
         H           -2.164034115144     2.093766965871    -0.014535789642     1.007825032230
         H            2.150802884856     2.093765965871    -0.014534789642     1.007825032230
         H           -0.006606115144     4.149061965871     1.048546210358     1.007825032230
         H            0.879150884856     4.181470965871    -0.481681789642     1.007825032230
         H           -0.892392115144     4.181470965871    -0.481663789642     1.007825032230
         H           -0.006617115144    -1.639429034129     0.013196210358     1.007825032230

  Basis Set: AUG-CC-PVTZ
    Blend: AUG-CC-PVTZ
  Basis Set: (AUG-CC-PVTZ AUX)
    Blend: AUG-CC-PVTZ-JKFIT
	 Reference Energy          =   -5413.5581758076550614 [Eh]
	 Singles Energy            =      -0.0000000000000000 [Eh]
	 Same-Spin Energy          =      -0.4876315784682881 [Eh]
	 Opposite-Spin Energy      =      -1.3655106134093302 [Eh]
	 Correlation Energy        =      -1.8531421918776183 [Eh]
	 Total Energy              =   -5415.4113179995329119 [Eh]

	 ================> DF-SCS-MP2 Energies <==================
	-----------------------------------------------------------
	 SCS Same-Spin Scale       =       0.3333333333333333 [-]
	 SCS Opposite-Spin Scale   =       1.2000000000000000 [-]
	 SCS Same-Spin Energy      =      -0.1625438594894293 [Eh]
	 SCS Opposite-Spin Energy  =      -1.6386127360911962 [Eh]
	 SCS Correlation Energy    =      -1.8011565955806255 [Eh]
	 SCS Total Energy          =   -5415.3593324032353848 [Eh]
	-----------------------------------------------------------

  Dipole Moment: [D]
     X:     0.0862      Y:     2.1589      Z:     0.0581     Total:     2.1614

*** Psi4 exiting successfully. Buy a developer a beer!
