                               Psi4 1.4a3.dev225

  ==> Input File <==

--------------------------------------------------------------------------
#psi4
#
memory 32 gb

molecule  {
0 1
 Br        2.8426960    -0.9006560     0.0010230
 Br       -2.8426960    -0.9006560     0.0010230
  C        0.0000000     2.1518200    -0.0164640
  C       -1.2077220     1.4432500    -0.0102500
  C        1.2077220     1.4432500    -0.0102500
  C        0.0000000     3.6581740     0.0136870
  C        1.1904140     0.0494840    -0.0007470
  C       -1.2077518     0.0395150    -0.0007284
  C        0.0000000    -0.6761360     0.0051700
  H       -2.1574180     1.9720780    -0.0184260
  H        2.1574190     1.9720770    -0.0184250
  H        0.0000100     4.0273730     1.0446560
  H        0.8857670     4.0597820    -0.4855720
  H       -0.8857760     4.0597820    -0.4855540
  H       -0.0000010    -1.7611180     0.0093060
units angstrom
no_reorient  #important for SAPT in psi4, default
symmetry c1  #important for SAPT in psi4, default
}

set PROPERTIES_ORIGIN ["COM"]
properties('MP2/aug-cc-pvtz', properties = ['dipole'])
--------------------------------------------------------------------------

    Molecular point group: c1
  Charge       = 0
  Multiplicity = 1
  Basis Set: AUG-CC-PVTZ
    Blend: AUG-CC-PVTZ
  Basis Set: (AUG-CC-PVTZ AUX)
    Blend: AUG-CC-PVTZ-JKFIT

    Orbital Energies [Eh]
    ---------------------

    Doubly Occupied:

       1A   -490.033889     2A   -490.031593     3A    -65.173674
       4A    -65.171297     5A    -58.528989     6A    -58.527592
       7A    -58.527559     8A    -58.526623     9A    -58.525215
      10A    -58.525186    11A    -11.315326    12A    -11.314263
      13A    -11.271833    14A    -11.265078    15A    -11.259217
      16A    -11.258506    17A    -11.242534    18A     -9.846510
      19A     -9.843993    20A     -7.458200    21A     -7.455631
      22A     -7.451282    23A     -7.451217    24A     -7.448754
      25A     -7.448709    26A     -3.202019    27A     -3.199424
      28A     -3.198398    29A     -3.198152    30A     -3.195854
      31A     -3.195639    32A     -3.189364    33A     -3.189355
      34A     -3.186857    35A     -3.186848    36A     -1.192829
      37A     -1.096543    38A     -1.088000    39A     -1.004684
      40A     -0.976266    41A     -0.957785    42A     -0.815720
      43A     -0.812430    44A     -0.707400    45A     -0.675961
      46A     -0.604220    47A     -0.597276    48A     -0.587880
      49A     -0.581473    50A     -0.559827    51A     -0.540793
      52A     -0.511274    53A     -0.493477    54A     -0.468434
      55A     -0.426671    56A     -0.423450    57A     -0.420075
      58A     -0.344496    59A     -0.338025

  @DF-RHF Final Energy: -5413.58226252542408

   => Energetics <=

    Nuclear Repulsion Energy =            881.7436838881097856
    One-Electron Energy =               -9284.5127541278852732
    Two-Electron Energy =                2989.1868077143517439
    Total Energy =                      -5413.5822625254240847
  Basis Set: (AUG-CC-PVTZ AUX)
    Blend: AUG-CC-PVTZ-RI
    Molecular point group: c1

    Geometry (in Angstrom), charge = 0, multiplicity = 1:

       Center              X                  Y                   Z               Mass
    ------------   -----------------  -----------------  -----------------  -----------------
         BR           2.843535315594    -0.778009100745     0.001132636315    78.918337600000
         BR          -2.841856684406    -0.778009100745     0.001132636315    78.918337600000
         C            0.000839315594     2.274466899255    -0.016354363685    12.000000000000
         C           -1.206882684406     1.565896899255    -0.010140363685    12.000000000000
         C            1.208561315594     1.565896899255    -0.010140363685    12.000000000000
         C            0.000839315594     3.780820899255     0.013796636315    12.000000000000
         C            1.191253315594     0.172130899255    -0.000637363685    12.000000000000
         C           -1.206912484406     0.162161899255    -0.000618763685    12.000000000000
         C            0.000839315594    -0.553489100745     0.005279636315    12.000000000000
         H           -2.156578684406     2.094724899255    -0.018316363685     1.007825032230
         H            2.158258315594     2.094723899255    -0.018315363685     1.007825032230
         H            0.000849315594     4.150019899255     1.044765636315     1.007825032230
         H            0.886606315594     4.182428899255    -0.485462363685     1.007825032230
         H           -0.884936684406     4.182428899255    -0.485444363685     1.007825032230
         H            0.000838315594    -1.638471100745     0.009415636315     1.007825032230

  Basis Set: AUG-CC-PVTZ
    Blend: AUG-CC-PVTZ
  Basis Set: (AUG-CC-PVTZ AUX)
    Blend: AUG-CC-PVTZ-JKFIT
	 Reference Energy          =   -5413.5822625254240847 [Eh]
	 Singles Energy            =      -0.0000000000000000 [Eh]
	 Same-Spin Energy          =      -0.4882431858254488 [Eh]
	 Opposite-Spin Energy      =      -1.3646651471928624 [Eh]
	 Correlation Energy        =      -1.8529083330183111 [Eh]
	 Total Energy              =   -5415.4351708584426888 [Eh]

	 ================> DF-SCS-MP2 Energies <==================
	-----------------------------------------------------------
	 SCS Same-Spin Scale       =       0.3333333333333333 [-]
	 SCS Opposite-Spin Scale   =       1.2000000000000000 [-]
	 SCS Same-Spin Energy      =      -0.1627477286084829 [Eh]
	 SCS Opposite-Spin Energy  =      -1.6375981766314347 [Eh]
	 SCS Correlation Energy    =      -1.8003459052399176 [Eh]
	 SCS Total Energy          =   -5415.3826084306638222 [Eh]
	-----------------------------------------------------------

  Dipole Moment: [D]
     X:    -0.0883      Y:     2.1275      Z:     0.0364     Total:     2.1297

*** Psi4 exiting successfully. Buy a developer a beer!
