                               Psi4 1.4a3.dev225

  ==> Input File <==

--------------------------------------------------------------------------
#psi4
#
memory 32 gb

molecule  {
0 1
 Br        2.8426960    -0.9006560     0.0010230
 Br       -2.8426960    -0.9006560     0.0010230
  C        0.0000000     2.1518200    -0.0164640
  C       -1.2077220     1.4432500    -0.0102500
  C        1.2077220     1.4432500    -0.0102500
  C        0.0000000     3.6581740     0.0136870
  C        1.1904140     0.0494840    -0.0007470
  C       -1.1904140     0.0494850    -0.0007470
  C        0.0000000    -0.6761360     0.0051700
  H       -2.1574180     1.9720780    -0.0184260
  H        2.1574190     1.9720770    -0.0184250
  H        0.0000100     4.0273730     1.0446560
  H        0.9262788     4.0781501    -0.5084063
  H       -0.8857760     4.0597820    -0.4855540
  H       -0.0000010    -1.7611180     0.0093060
units angstrom
no_reorient  #important for SAPT in psi4, default
symmetry c1  #important for SAPT in psi4, default
}

set PROPERTIES_ORIGIN ["COM"]
properties('MP2/aug-cc-pvtz', properties = ['dipole'])
--------------------------------------------------------------------------

    Molecular point group: c1
  Charge       = 0
  Multiplicity = 1
  Basis Set: AUG-CC-PVTZ
    Blend: AUG-CC-PVTZ
  Basis Set: (AUG-CC-PVTZ AUX)
    Blend: AUG-CC-PVTZ-JKFIT

    Orbital Energies [Eh]
    ---------------------

    Doubly Occupied:

       1A   -490.032109     2A   -490.032028     3A    -65.171816
       4A    -65.171735     5A    -58.527141     6A    -58.527060
       7A    -58.525734     8A    -58.525704     9A    -58.525653
      10A    -58.525623    11A    -11.315128    12A    -11.315021
      13A    -11.272906    14A    -11.264927    15A    -11.259184
      16A    -11.258904    17A    -11.248801    18A     -9.844514
      19A     -9.844434    20A     -7.456150    21A     -7.456069
      22A     -7.449278    23A     -7.449229    24A     -7.449198
      25A     -7.449148    26A     -3.199942    27A     -3.199861
      28A     -3.196375    29A     -3.196295    30A     -3.196156
      31A     -3.196074    32A     -3.187380    33A     -3.187371
      34A     -3.187300    35A     -3.187291    36A     -1.195138
      37A     -1.095268    38A     -1.087925    39A     -1.003981
      40A     -0.976919    41A     -0.956593    42A     -0.816443
      43A     -0.812178    44A     -0.709065    45A     -0.677018
      46A     -0.604004    47A     -0.596758    48A     -0.588485
      49A     -0.583084    50A     -0.553535    51A     -0.541321
      52A     -0.510764    53A     -0.491122    54A     -0.467381
      55A     -0.426092    56A     -0.423270    57A     -0.419937
      58A     -0.345790    59A     -0.339870

  @DF-RHF Final Energy: -5413.58085584083437

   => Energetics <=

    Nuclear Repulsion Energy =            881.3832356933237406
    One-Electron Energy =               -9283.8212188752513612
    Two-Electron Energy =                2988.8571273410934737
    Total Energy =                      -5413.5808558408343742
  Basis Set: (AUG-CC-PVTZ AUX)
    Blend: AUG-CC-PVTZ-RI
    Molecular point group: c1

    Geometry (in Angstrom), charge = 0, multiplicity = 1:

       Center              X                  Y                   Z               Mass
    ------------   -----------------  -----------------  -----------------  -----------------
         BR           2.842531286361    -0.778566426106     0.001226374572    78.918337600000
         BR          -2.842860713639    -0.778566426106     0.001226374572    78.918337600000
         C           -0.000164713639     2.273909573894    -0.016260625428    12.000000000000
         C           -1.207886713639     1.565339573894    -0.010046625428    12.000000000000
         C            1.207557286361     1.565339573894    -0.010046625428    12.000000000000
         C           -0.000164713639     3.780263573894     0.013890374572    12.000000000000
         C            1.190249286361     0.171573573894    -0.000543625428    12.000000000000
         C           -1.190578713639     0.171574573894    -0.000543625428    12.000000000000
         C           -0.000164713639    -0.554046426106     0.005373374572    12.000000000000
         H           -2.157582713639     2.094167573894    -0.018222625428     1.007825032230
         H            2.157254286361     2.094166573894    -0.018221625428     1.007825032230
         H           -0.000154713639     4.149462573894     1.044859374572     1.007825032230
         H            0.926114086361     4.200239673894    -0.508202925428     1.007825032230
         H           -0.885940713639     4.181871573894    -0.485350625428     1.007825032230
         H           -0.000165713639    -1.639028426106     0.009509374572     1.007825032230

  Basis Set: AUG-CC-PVTZ
    Blend: AUG-CC-PVTZ
  Basis Set: (AUG-CC-PVTZ AUX)
    Blend: AUG-CC-PVTZ-JKFIT
	 Reference Energy          =   -5413.5808558408343742 [Eh]
	 Singles Energy            =      -0.0000000000000000 [Eh]
	 Same-Spin Energy          =      -0.4880470790341600 [Eh]
	 Opposite-Spin Energy      =      -1.3646380430306602 [Eh]
	 Correlation Energy        =      -1.8526851220648202 [Eh]
	 Total Energy              =   -5415.4335409628993148 [Eh]

	 ================> DF-SCS-MP2 Energies <==================
	-----------------------------------------------------------
	 SCS Same-Spin Scale       =       0.3333333333333333 [-]
	 SCS Opposite-Spin Scale   =       1.2000000000000000 [-]
	 SCS Same-Spin Energy      =      -0.1626823596780533 [Eh]
	 SCS Opposite-Spin Energy  =      -1.6375656516367922 [Eh]
	 SCS Correlation Energy    =      -1.8002480113148456 [Eh]
	 SCS Total Energy          =   -5415.3811038521489536 [Eh]
	-----------------------------------------------------------

  Dipole Moment: [D]
     X:    -0.0155      Y:     2.1577      Z:     0.0444     Total:     2.1582

*** Psi4 exiting successfully. Buy a developer a beer!
