                               Psi4 1.4a3.dev225

  ==> Input File <==

--------------------------------------------------------------------------
#psi4
#
memory 32 gb

molecule  {
0 1
 Br        2.8426960    -0.9006560     0.0010230
 Br       -2.8426960    -0.9006560     0.0010230
  C        0.0000000     2.1518200    -0.0164640
  C       -1.2077220     1.4432500    -0.0102500
  C        1.2077220     1.4432500    -0.0102500
  C        0.0000000     3.6581740     0.0136870
  C        1.1891723    -0.0505060    -0.0000652
  C       -1.1904140     0.0494850    -0.0007470
  C        0.0000000    -0.6761360     0.0051700
  H       -2.1574180     1.9720780    -0.0184260
  H        2.1574190     1.9720770    -0.0184250
  H        0.0000100     4.0273730     1.0446560
  H        0.8857670     4.0597820    -0.4855720
  H       -0.8857760     4.0597820    -0.4855540
  H       -0.0000010    -1.7611180     0.0093060
units angstrom
no_reorient  #important for SAPT in psi4, default
symmetry c1  #important for SAPT in psi4, default
}

set PROPERTIES_ORIGIN ["COM"]
properties('MP2/aug-cc-pvtz', properties = ['dipole'])
--------------------------------------------------------------------------

    Molecular point group: c1
  Charge       = 0
  Multiplicity = 1
  Basis Set: AUG-CC-PVTZ
    Blend: AUG-CC-PVTZ
  Basis Set: (AUG-CC-PVTZ AUX)
    Blend: AUG-CC-PVTZ-JKFIT

    Orbital Energies [Eh]
    ---------------------

    Doubly Occupied:

       1A   -490.036280     2A   -490.031676     3A    -65.176175
       4A    -65.171361     5A    -58.531475     6A    -58.530091
       7A    -58.530054     8A    -58.526691     9A    -58.525279
      10A    -58.525249    11A    -11.314420    12A    -11.313883
      13A    -11.269686    14A    -11.265451    15A    -11.259253
      16A    -11.257952    17A    -11.241527    18A     -9.849207
      19A     -9.844043    20A     -7.460975    21A     -7.455688
      22A     -7.453987    23A     -7.453895    24A     -7.448800
      25A     -7.448750    26A     -3.204834    27A     -3.201135
      28A     -3.200851    29A     -3.199490    30A     -3.195921
      31A     -3.195692    32A     -3.192038    33A     -3.192028
      34A     -3.186892    35A     -3.186882    36A     -1.191351
      37A     -1.099777    38A     -1.087251    39A     -1.009446
      40A     -0.972054    41A     -0.953816    42A     -0.824348
      43A     -0.802497    44A     -0.705463    45A     -0.673298
      46A     -0.603575    47A     -0.596484    48A     -0.593325
      49A     -0.574725    50A     -0.560065    51A     -0.541588
      52A     -0.503100    53A     -0.500424    54A     -0.469114
      55A     -0.426078    56A     -0.423001    57A     -0.421042
      58A     -0.352211    59A     -0.328749

  @DF-RHF Final Energy: -5413.57227662376863

   => Energetics <=

    Nuclear Repulsion Energy =            882.2384681728078704
    One-Electron Energy =               -9285.4406991092255339
    Two-Electron Energy =                2989.6299543126506251
    Total Energy =                      -5413.5722766237677206
  Basis Set: (AUG-CC-PVTZ AUX)
    Blend: AUG-CC-PVTZ-RI
    Molecular point group: c1

    Geometry (in Angstrom), charge = 0, multiplicity = 1:

       Center              X                  Y                   Z               Mass
    ------------   -----------------  -----------------  -----------------  -----------------
         BR           2.842756106399    -0.773651249361     0.001100530927    78.918337600000
         BR          -2.842635893601    -0.773651249361     0.001100530927    78.918337600000
         C            0.000060106399     2.278824750639    -0.016386469073    12.000000000000
         C           -1.207661893601     1.570254750639    -0.010172469073    12.000000000000
         C            1.207782106399     1.570254750639    -0.010172469073    12.000000000000
         C            0.000060106399     3.785178750639     0.013764530927    12.000000000000
         C            1.189232406399     0.076498750639     0.000012330927    12.000000000000
         C           -1.190353893601     0.176489750639    -0.000669469073    12.000000000000
         C            0.000060106399    -0.549131249361     0.005247530927    12.000000000000
         H           -2.157357893601     2.099082750639    -0.018348469073     1.007825032230
         H            2.157479106399     2.099081750639    -0.018347469073     1.007825032230
         H            0.000070106399     4.154377750639     1.044733530927     1.007825032230
         H            0.885827106399     4.186786750639    -0.485494469073     1.007825032230
         H           -0.885715893601     4.186786750639    -0.485476469073     1.007825032230
         H            0.000059106399    -1.634113249361     0.009383530927     1.007825032230

  Basis Set: AUG-CC-PVTZ
    Blend: AUG-CC-PVTZ
  Basis Set: (AUG-CC-PVTZ AUX)
    Blend: AUG-CC-PVTZ-JKFIT
	 Reference Energy          =   -5413.5722766237686301 [Eh]
	 Singles Energy            =      -0.0000000000000000 [Eh]
	 Same-Spin Energy          =      -0.4882349406359504 [Eh]
	 Opposite-Spin Energy      =      -1.3655586524427457 [Eh]
	 Correlation Energy        =      -1.8537935930786960 [Eh]
	 Total Energy              =   -5415.4260702168476200 [Eh]

	 ================> DF-SCS-MP2 Energies <==================
	-----------------------------------------------------------
	 SCS Same-Spin Scale       =       0.3333333333333333 [-]
	 SCS Opposite-Spin Scale   =       1.2000000000000000 [-]
	 SCS Same-Spin Energy      =      -0.1627449802119834 [Eh]
	 SCS Opposite-Spin Energy  =      -1.6386703829312947 [Eh]
	 SCS Correlation Energy    =      -1.8014153631432781 [Eh]
	 SCS Total Energy          =   -5415.3736919869115809 [Eh]
	-----------------------------------------------------------

  Dipole Moment: [D]
     X:     0.1879      Y:     2.0332      Z:     0.0366     Total:     2.0422

*** Psi4 exiting successfully. Buy a developer a beer!
