                               Psi4 1.4a3.dev225

  ==> Input File <==

--------------------------------------------------------------------------
#psi4
#
memory 32 gb

molecule  {
0 1
 Br        2.8426960    -0.9006560     0.0010230
 Br       -2.8426960    -0.9006560     0.0010230
  C        0.0000000     2.1518200    -0.0164640
  C       -1.2077220     1.4432500    -0.0102500
  C        1.2077220     1.4432500    -0.0102500
  C        0.0000000     3.6581740     0.0136870
  C        1.1904140     0.0494840    -0.0007470
  C       -1.1879306    -0.1504949     0.0006165
  C        0.0000000    -0.6761360     0.0051700
  H       -2.1574180     1.9720780    -0.0184260
  H        2.1574190     1.9720770    -0.0184250
  H        0.0000100     4.0273730     1.0446560
  H        0.8857670     4.0597820    -0.4855720
  H       -0.8857760     4.0597820    -0.4855540
  H       -0.0000010    -1.7611180     0.0093060
units angstrom
no_reorient  #important for SAPT in psi4, default
symmetry c1  #important for SAPT in psi4, default
}

set PROPERTIES_ORIGIN ["COM"]
properties('MP2/aug-cc-pvtz', properties = ['dipole'])
--------------------------------------------------------------------------

    Molecular point group: c1
  Charge       = 0
  Multiplicity = 1
  Basis Set: AUG-CC-PVTZ
    Blend: AUG-CC-PVTZ
  Basis Set: (AUG-CC-PVTZ AUX)
    Blend: AUG-CC-PVTZ-JKFIT

    Orbital Energies [Eh]
    ---------------------

    Doubly Occupied:

       1A   -490.040349     2A   -490.031295     3A    -65.180439
       4A    -65.170957     5A    -58.535712     6A    -58.534350
       7A    -58.534304     8A    -58.526292     9A    -58.524875
      10A    -58.524846    11A    -11.312860    12A    -11.312783
      13A    -11.269778    14A    -11.266789    15A    -11.259967
      16A    -11.251552    17A    -11.240273    18A     -9.853825
      19A     -9.843623    20A     -7.465736    21A     -7.458611
      22A     -7.458472    23A     -7.455276    24A     -7.448371
      25A     -7.448320    26A     -3.209670    27A     -3.205819
      28A     -3.205479    29A     -3.199088    30A     -3.196604
      31A     -3.196593    32A     -3.195517    33A     -3.195277
      34A     -3.186453    35A     -3.186443    36A     -1.189694
      37A     -1.107742    38A     -1.084639    39A     -1.015604
      40A     -0.972033    41A     -0.944754    42A     -0.831741
      43A     -0.792264    44A     -0.702381    45A     -0.668670
      46A     -0.610423    47A     -0.595443    48A     -0.593225
      49A     -0.567128    50A     -0.560205    51A     -0.542697
      52A     -0.506374    53A     -0.492877    54A     -0.472332
      55A     -0.423563    56A     -0.422175    57A     -0.420444
      58A     -0.359051    59A     -0.320036

  @DF-RHF Final Energy: -5413.54530704315221

   => Energetics <=

    Nuclear Repulsion Energy =            882.8921608549892426
    One-Electron Energy =               -9286.6307487758040224
    Two-Electron Energy =                2990.1932808776623460
    Total Energy =                      -5413.5453070431522065
  Basis Set: (AUG-CC-PVTZ AUX)
    Blend: AUG-CC-PVTZ-RI
    Molecular point group: c1

    Geometry (in Angstrom), charge = 0, multiplicity = 1:

       Center              X                  Y                   Z               Mass
    ------------   -----------------  -----------------  -----------------  -----------------
         BR           2.842575775004    -0.768810756981     0.001067529957    78.918337600000
         BR          -2.842816224996    -0.768810756981     0.001067529957    78.918337600000
         C           -0.000120224996     2.283665243019    -0.016419470043    12.000000000000
         C           -1.207842224996     1.575095243019    -0.010205470043    12.000000000000
         C            1.207601775004     1.575095243019    -0.010205470043    12.000000000000
         C           -0.000120224996     3.790019243019     0.013731529957    12.000000000000
         C            1.190293775004     0.181329243019    -0.000702470043    12.000000000000
         C           -1.188050824996    -0.018649656981     0.000661029957    12.000000000000
         C           -0.000120224996    -0.544290756981     0.005214529957    12.000000000000
         H           -2.157538224996     2.103923243019    -0.018381470043     1.007825032230
         H            2.157298775004     2.103922243019    -0.018380470043     1.007825032230
         H           -0.000110224996     4.159218243019     1.044700529957     1.007825032230
         H            0.885646775004     4.191627243019    -0.485527470043     1.007825032230
         H           -0.885896224996     4.191627243019    -0.485509470043     1.007825032230
         H           -0.000121224996    -1.629272756981     0.009350529957     1.007825032230

  Basis Set: AUG-CC-PVTZ
    Blend: AUG-CC-PVTZ
  Basis Set: (AUG-CC-PVTZ AUX)
    Blend: AUG-CC-PVTZ-JKFIT
	 Reference Energy          =   -5413.5453070431522065 [Eh]
	 Singles Energy            =      -0.0000000000000000 [Eh]
	 Same-Spin Energy          =      -0.4882195866496875 [Eh]
	 Opposite-Spin Energy      =      -1.3676552825238462 [Eh]
	 Correlation Energy        =      -1.8558748691735336 [Eh]
	 Total Energy              =   -5415.4011819123261375 [Eh]

	 ================> DF-SCS-MP2 Energies <==================
	-----------------------------------------------------------
	 SCS Same-Spin Scale       =       0.3333333333333333 [-]
	 SCS Opposite-Spin Scale   =       1.2000000000000000 [-]
	 SCS Same-Spin Energy      =      -0.1627398622165625 [Eh]
	 SCS Opposite-Spin Energy  =      -1.6411863390286154 [Eh]
	 SCS Correlation Energy    =      -1.8039262012451780 [Eh]
	 SCS Total Energy          =   -5415.3492332443975101 [Eh]
	-----------------------------------------------------------

  Dipole Moment: [D]
     X:    -0.3706      Y:     1.8982      Z:     0.0367     Total:     1.9344

*** Psi4 exiting successfully. Buy a developer a beer!
