                               Psi4 1.4a3.dev225

  ==> Input File <==

--------------------------------------------------------------------------
#psi4
#
memory 32 gb

molecule  {
0 1
 Br        2.8426960    -0.9006560     0.0010230
 Br       -2.8426960    -0.9006560     0.0010230
  C        0.0000000     2.1518200    -0.0164640
  C       -1.2077220     1.4432500    -0.0102500
  C        1.2077220     1.4432500    -0.0102500
  C        0.0000000     3.6581740     0.0136870
  C        1.1904140     0.0494840    -0.0007470
  C       -1.1904140     0.0494850    -0.0007470
  C        0.1707731    -0.7802313     0.0060188
  H       -2.1574180     1.9720780    -0.0184260
  H        2.1574190     1.9720770    -0.0184250
  H        0.0000100     4.0273730     1.0446560
  H        0.8857670     4.0597820    -0.4855720
  H       -0.8857760     4.0597820    -0.4855540
  H       -0.0000010    -1.7611180     0.0093060
units angstrom
no_reorient  #important for SAPT in psi4, default
symmetry c1  #important for SAPT in psi4, default
}

set PROPERTIES_ORIGIN ["COM"]
properties('MP2/aug-cc-pvtz', properties = ['dipole'])
--------------------------------------------------------------------------

    Molecular point group: c1
  Charge       = 0
  Multiplicity = 1
  Basis Set: AUG-CC-PVTZ
    Blend: AUG-CC-PVTZ
  Basis Set: (AUG-CC-PVTZ AUX)
    Blend: AUG-CC-PVTZ-JKFIT

    Orbital Energies [Eh]
    ---------------------

    Doubly Occupied:

       1A   -490.035044     2A   -490.023181     3A    -65.174669
       4A    -65.163189     5A    -58.529993     6A    -58.528598
       7A    -58.528558     8A    -58.518448     9A    -58.517100
      10A    -58.517081    11A    -11.331344    12A    -11.310900
      13A    -11.277244    14A    -11.270084    15A    -11.260763
      16A    -11.257811    17A    -11.244931    18A     -9.847309
      19A     -9.836160    20A     -7.458890    21A     -7.452101
      22A     -7.452004    23A     -7.447700    24A     -7.441015
      25A     -7.440999    26A     -3.202697    27A     -3.199176
      28A     -3.198911    29A     -3.191349    30A     -3.190210
      31A     -3.190200    32A     -3.187872    33A     -3.187731
      34A     -3.179252    35A     -3.179238    36A     -1.191050
      37A     -1.103686    38A     -1.082109    39A     -0.998153
      40A     -0.976402    41A     -0.965075    42A     -0.821663
      43A     -0.805676    44A     -0.724442    45A     -0.678065
      46A     -0.617558    47A     -0.599028    48A     -0.587248
      49A     -0.583859    50A     -0.558749    51A     -0.539169
      52A     -0.520822    53A     -0.471229    54A     -0.467913
      55A     -0.425112    56A     -0.421855    57A     -0.411199
      58A     -0.355479    59A     -0.328972

  @DF-RHF Final Energy: -5413.54183634897436

   => Energetics <=

    Nuclear Repulsion Energy =            880.4219867359877298
    One-Electron Energy =               -9281.9151194548467174
    Two-Electron Energy =                2987.9512963698848580
    Total Energy =                      -5413.5418363489734475
  Basis Set: (AUG-CC-PVTZ AUX)
    Blend: AUG-CC-PVTZ-RI
    Molecular point group: c1

    Geometry (in Angstrom), charge = 0, multiplicity = 1:

       Center              X                  Y                   Z               Mass
    ------------   -----------------  -----------------  -----------------  -----------------
         BR           2.834428902064    -0.773452512555     0.001092446488    78.918337600000
         BR          -2.850963097936    -0.773452512555     0.001092446488    78.918337600000
         C           -0.008267097936     2.279023487445    -0.016394553512    12.000000000000
         C           -1.215989097936     1.570453487445    -0.010180553512    12.000000000000
         C            1.199454902064     1.570453487445    -0.010180553512    12.000000000000
         C           -0.008267097936     3.785377487445     0.013756446488    12.000000000000
         C            1.182146902064     0.176687487445    -0.000677553512    12.000000000000
         C           -1.198681097936     0.176688487445    -0.000677553512    12.000000000000
         C            0.162506002064    -0.653027812555     0.006088246488    12.000000000000
         H           -2.165685097936     2.099281487445    -0.018356553512     1.007825032230
         H            2.149151902064     2.099280487445    -0.018355553512     1.007825032230
         H           -0.008257097936     4.154576487445     1.044725446488     1.007825032230
         H            0.877499902064     4.186985487445    -0.485502553512     1.007825032230
         H           -0.894043097936     4.186985487445    -0.485484553512     1.007825032230
         H           -0.008268097936    -1.633914512555     0.009375446488     1.007825032230

  Basis Set: AUG-CC-PVTZ
    Blend: AUG-CC-PVTZ
  Basis Set: (AUG-CC-PVTZ AUX)
    Blend: AUG-CC-PVTZ-JKFIT
	 Reference Energy          =   -5413.5418363489743570 [Eh]
	 Singles Energy            =      -0.0000000000000000 [Eh]
	 Same-Spin Energy          =      -0.4879335533565486 [Eh]
	 Opposite-Spin Energy      =      -1.3665273635983288 [Eh]
	 Correlation Energy        =      -1.8544609169548774 [Eh]
	 Total Energy              =   -5415.3962972659292063 [Eh]

	 ================> DF-SCS-MP2 Energies <==================
	-----------------------------------------------------------
	 SCS Same-Spin Scale       =       0.3333333333333333 [-]
	 SCS Opposite-Spin Scale   =       1.2000000000000000 [-]
	 SCS Same-Spin Energy      =      -0.1626445177855162 [Eh]
	 SCS Opposite-Spin Energy  =      -1.6398328363179946 [Eh]
	 SCS Correlation Energy    =      -1.8024773541035108 [Eh]
	 SCS Total Energy          =   -5415.3443137030781145 [Eh]
	-----------------------------------------------------------

  Dipole Moment: [D]
     X:    -0.3783      Y:     2.2860      Z:     0.0369     Total:     2.3174

*** Psi4 exiting successfully. Buy a developer a beer!
