                               Psi4 1.4a3.dev225

  ==> Input File <==

--------------------------------------------------------------------------
#psi4
#
memory 32 gb

molecule  {
0 1
 Br        2.8426960    -0.9006560     0.0010230
 Br       -2.8426960    -0.9006560     0.0010230
  C        0.0000000     2.1518200    -0.0164640
  C       -1.2077220     1.4432500    -0.0102500
  C        1.2077220     1.4432500    -0.0102500
  C        0.0000000     3.6581740     0.0136870
  C        1.1904140     0.0494840    -0.0007470
  C       -1.1730762     0.0594550    -0.0007656
  C        0.0000000    -0.6761360     0.0051700
  H       -2.1574180     1.9720780    -0.0184260
  H        2.1574190     1.9720770    -0.0184250
  H        0.0000100     4.0273730     1.0446560
  H        0.8857670     4.0597820    -0.4855720
  H       -0.8857760     4.0597820    -0.4855540
  H       -0.0000010    -1.7611180     0.0093060
units angstrom
no_reorient  #important for SAPT in psi4, default
symmetry c1  #important for SAPT in psi4, default
}

set PROPERTIES_ORIGIN ["COM"]
properties('MP2/aug-cc-pvtz', properties = ['dipole'])
--------------------------------------------------------------------------

    Molecular point group: c1
  Charge       = 0
  Multiplicity = 1
  Basis Set: AUG-CC-PVTZ
    Blend: AUG-CC-PVTZ
  Basis Set: (AUG-CC-PVTZ AUX)
    Blend: AUG-CC-PVTZ-JKFIT

    Orbital Energies [Eh]
    ---------------------

    Doubly Occupied:

       1A   -490.032364     2A   -490.029939     3A    -65.172074
       4A    -65.169579     5A    -58.527398     6A    -58.525993
       7A    -58.525962     8A    -58.524912     9A    -58.523499
      10A    -58.523471    11A    -11.315684    12A    -11.314700
      13A    -11.273191    14A    -11.264518    15A    -11.259164
      16A    -11.258498    17A    -11.243325    18A     -9.844775
      19A     -9.842156    20A     -7.456408    21A     -7.453735
      22A     -7.449544    23A     -7.449489    24A     -7.446918
      25A     -7.446882    26A     -3.200197    27A     -3.197497
      28A     -3.196636    29A     -3.196411    30A     -3.193987
      31A     -3.193790    32A     -3.187646    33A     -3.187637
      34A     -3.185045    35A     -3.185035    36A     -1.197339
      37A     -1.094461    38A     -1.088537    39A     -1.003876
      40A     -0.977264    41A     -0.960814    42A     -0.817039
      43A     -0.814201    44A     -0.710622    45A     -0.679232
      46A     -0.604737    47A     -0.598663    48A     -0.589556
      49A     -0.583760    50A     -0.560269    51A     -0.543308
      52A     -0.510484    53A     -0.488415    54A     -0.466272
      55A     -0.425459    56A     -0.422872    57A     -0.419315
      58A     -0.347008    59A     -0.341345

  @DF-RHF Final Energy: -5413.58298747601475

   => Energetics <=

    Nuclear Repulsion Energy =            881.4818052342112651
    One-Electron Energy =               -9284.0437706285538297
    Two-Electron Energy =                2988.9789779183279279
    Total Energy =                      -5413.5829874760147504
  Basis Set: (AUG-CC-PVTZ AUX)
    Blend: AUG-CC-PVTZ-RI
    Molecular point group: c1

    Geometry (in Angstrom), charge = 0, multiplicity = 1:

       Center              X                  Y                   Z               Mass
    ------------   -----------------  -----------------  -----------------  -----------------
         BR           2.841856676275    -0.778974392420     0.001134437160    78.918337600000
         BR          -2.843535323725    -0.778974392420     0.001134437160    78.918337600000
         C           -0.000839323725     2.273501607580    -0.016352562840    12.000000000000
         C           -1.208561323725     1.564931607580    -0.010138562840    12.000000000000
         C            1.206882676275     1.564931607580    -0.010138562840    12.000000000000
         C           -0.000839323725     3.779855607580     0.013798437160    12.000000000000
         C            1.189574676275     0.171165607580    -0.000635562840    12.000000000000
         C           -1.173915523725     0.181136607580    -0.000654162840    12.000000000000
         C           -0.000839323725    -0.554454392420     0.005281437160    12.000000000000
         H           -2.158257323725     2.093759607580    -0.018314562840     1.007825032230
         H            2.156579676275     2.093758607580    -0.018313562840     1.007825032230
         H           -0.000829323725     4.149054607580     1.044767437160     1.007825032230
         H            0.884927676275     4.181463607580    -0.485460562840     1.007825032230
         H           -0.886615323725     4.181463607580    -0.485442562840     1.007825032230
         H           -0.000840323725    -1.639436392420     0.009417437160     1.007825032230

  Basis Set: AUG-CC-PVTZ
    Blend: AUG-CC-PVTZ
  Basis Set: (AUG-CC-PVTZ AUX)
    Blend: AUG-CC-PVTZ-JKFIT
	 Reference Energy          =   -5413.5829874760147504 [Eh]
	 Singles Energy            =      -0.0000000000000000 [Eh]
	 Same-Spin Energy          =      -0.4878672005842013 [Eh]
	 Opposite-Spin Energy      =      -1.3639634914070320 [Eh]
	 Correlation Energy        =      -1.8518306919912333 [Eh]
	 Total Energy              =   -5415.4348181680061316 [Eh]

	 ================> DF-SCS-MP2 Energies <==================
	-----------------------------------------------------------
	 SCS Same-Spin Scale       =       0.3333333333333333 [-]
	 SCS Opposite-Spin Scale   =       1.2000000000000000 [-]
	 SCS Same-Spin Energy      =      -0.1626224001947338 [Eh]
	 SCS Opposite-Spin Energy  =      -1.6367561896884384 [Eh]
	 SCS Correlation Energy    =      -1.7993785898831722 [Eh]
	 SCS Total Energy          =   -5415.3823660658981680 [Eh]
	-----------------------------------------------------------

  Dipole Moment: [D]
     X:     0.0902      Y:     2.2319      Z:     0.0366     Total:     2.2341

*** Psi4 exiting successfully. Buy a developer a beer!
