                               Psi4 1.4a3.dev225

  ==> Input File <==

--------------------------------------------------------------------------
#psi4
#
memory 32 gb

molecule  {
0 1
 Br        2.8426960    -0.9006560     0.0010230
 Br       -2.8426960    -0.9006560     0.0010230
  C        0.0000000     2.1518200    -0.0164640
  C       -1.2077220     1.4432500    -0.0102500
  C        1.2077220     1.4432500    -0.0102500
  C        0.0000000     3.6581740     0.0136870
  C        1.2381326    -0.0353199    -0.0000555
  C       -1.1904140     0.0494850    -0.0007470
  C        0.0000000    -0.6761360     0.0051700
  H       -2.1574180     1.9720780    -0.0184260
  H        2.1574190     1.9720770    -0.0184250
  H        0.0000100     4.0273730     1.0446560
  H        0.8857670     4.0597820    -0.4855720
  H       -0.8857760     4.0597820    -0.4855540
  H       -0.0000010    -1.7611180     0.0093060
units angstrom
no_reorient  #important for SAPT in psi4, default
symmetry c1  #important for SAPT in psi4, default
}

set PROPERTIES_ORIGIN ["COM"]
properties('MP2/aug-cc-pvtz', properties = ['dipole'])
--------------------------------------------------------------------------

    Molecular point group: c1
  Charge       = 0
  Multiplicity = 1
  Basis Set: AUG-CC-PVTZ
    Blend: AUG-CC-PVTZ
  Basis Set: (AUG-CC-PVTZ AUX)
    Blend: AUG-CC-PVTZ-JKFIT

    Orbital Energies [Eh]
    ---------------------

    Doubly Occupied:

       1A   -490.039285     2A   -490.030853     3A    -65.179387
       4A    -65.170538     5A    -58.534652     6A    -58.533304
       7A    -58.533261     8A    -58.525870     9A    -58.524455
      10A    -58.524428    11A    -11.316629    12A    -11.312648
      13A    -11.269321    14A    -11.263921    15A    -11.262505
      16A    -11.258169    17A    -11.241187    18A     -9.852758
      19A     -9.843221    20A     -7.464620    21A     -7.457573
      22A     -7.457449    23A     -7.454871    24A     -7.447969
      25A     -7.447932    26A     -3.208517    27A     -3.204722
      28A     -3.204380    29A     -3.198674    30A     -3.195611
      31A     -3.195601    32A     -3.195093    33A     -3.194881
      34A     -3.186064    35A     -3.186055    36A     -1.187373
      37A     -1.104189    38A     -1.086032    39A     -1.007279
      40A     -0.972044    41A     -0.952581    42A     -0.818704
      43A     -0.804931    44A     -0.702628    45A     -0.671323
      46A     -0.607253    47A     -0.595029    48A     -0.589844
      49A     -0.572863    50A     -0.559621    51A     -0.538862
      52A     -0.511010    53A     -0.498356    54A     -0.472294
      55A     -0.427905    56A     -0.423133    57A     -0.420357
      58A     -0.345374    59A     -0.328751

  @DF-RHF Final Energy: -5413.57238609051456

   => Energetics <=

    Nuclear Repulsion Energy =            882.4285801964666689
    One-Electron Energy =               -9285.7736595037658844
    Two-Electron Energy =                2989.7726932167843188
    Total Energy =                      -5413.5723860905145557
  Basis Set: (AUG-CC-PVTZ AUX)
    Blend: AUG-CC-PVTZ-RI
    Molecular point group: c1

    Geometry (in Angstrom), charge = 0, multiplicity = 1:

       Center              X                  Y                   Z               Mass
    ------------   -----------------  -----------------  -----------------  -----------------
         BR           2.840385947422    -0.774386405625     0.001100061351    78.918337600000
         BR          -2.845006052578    -0.774386405625     0.001100061351    78.918337600000
         C           -0.002310052578     2.278089594375    -0.016386938649    12.000000000000
         C           -1.210032052578     1.569519594375    -0.010172938649    12.000000000000
         C            1.205411947422     1.569519594375    -0.010172938649    12.000000000000
         C           -0.002310052578     3.784443594375     0.013764061351    12.000000000000
         C            1.235822547422     0.090949694375     0.000021561351    12.000000000000
         C           -1.192724052578     0.175754594375    -0.000669938649    12.000000000000
         C           -0.002310052578    -0.549866405625     0.005247061351    12.000000000000
         H           -2.159728052578     2.098347594375    -0.018348938649     1.007825032230
         H            2.155108947422     2.098346594375    -0.018347938649     1.007825032230
         H           -0.002300052578     4.153642594375     1.044733061351     1.007825032230
         H            0.883456947422     4.186051594375    -0.485494938649     1.007825032230
         H           -0.888086052578     4.186051594375    -0.485476938649     1.007825032230
         H           -0.002311052578    -1.634848405625     0.009383061351     1.007825032230

  Basis Set: AUG-CC-PVTZ
    Blend: AUG-CC-PVTZ
  Basis Set: (AUG-CC-PVTZ AUX)
    Blend: AUG-CC-PVTZ-JKFIT
	 Reference Energy          =   -5413.5723860905145557 [Eh]
	 Singles Energy            =      -0.0000000000000000 [Eh]
	 Same-Spin Energy          =      -0.4890461776222416 [Eh]
	 Opposite-Spin Energy      =      -1.3663419330060007 [Eh]
	 Correlation Energy        =      -1.8553881106282424 [Eh]
	 Total Energy              =   -5415.4277742011427108 [Eh]

	 ================> DF-SCS-MP2 Energies <==================
	-----------------------------------------------------------
	 SCS Same-Spin Scale       =       0.3333333333333333 [-]
	 SCS Opposite-Spin Scale   =       1.2000000000000000 [-]
	 SCS Same-Spin Energy      =      -0.1630153925407472 [Eh]
	 SCS Opposite-Spin Energy  =      -1.6396103196072007 [Eh]
	 SCS Correlation Energy    =      -1.8026257121479479 [Eh]
	 SCS Total Energy          =   -5415.3750118026628115 [Eh]
	-----------------------------------------------------------

  Dipole Moment: [D]
     X:     0.3485      Y:     1.9602      Z:     0.0362     Total:     1.9913

*** Psi4 exiting successfully. Buy a developer a beer!
