                               Psi4 1.4a3.dev225

  ==> Input File <==

--------------------------------------------------------------------------
#psi4
#
memory 32 gb

molecule  {
0 1
 Br        2.8426960    -0.9006560     0.0010230
 Br       -2.8426960    -0.9006560     0.0010230
  C        0.0000000     2.1518200    -0.0164640
  C       -1.2077220     1.4432500    -0.0102500
  C        1.2077220     1.4432500    -0.0102500
  C        0.0000000     3.6581740     0.0136870
  C        1.2150134     0.0074985    -0.0004046
  C       -1.1904140     0.0494850    -0.0007470
  C        0.0000000    -0.6761360     0.0051700
  H       -2.1574180     1.9720780    -0.0184260
  H        2.1574190     1.9720770    -0.0184250
  H        0.0000100     4.0273730     1.0446560
  H        0.8857670     4.0597820    -0.4855720
  H       -0.8857760     4.0597820    -0.4855540
  H       -0.0000010    -1.7611180     0.0093060
units angstrom
no_reorient  #important for SAPT in psi4, default
symmetry c1  #important for SAPT in psi4, default
}

set PROPERTIES_ORIGIN ["COM"]
properties('MP2/aug-cc-pvtz', properties = ['dipole'])
--------------------------------------------------------------------------

    Molecular point group: c1
  Charge       = 0
  Multiplicity = 1
  Basis Set: AUG-CC-PVTZ
    Blend: AUG-CC-PVTZ
  Basis Set: (AUG-CC-PVTZ AUX)
    Blend: AUG-CC-PVTZ-JKFIT

    Orbital Energies [Eh]
    ---------------------

    Doubly Occupied:

       1A   -490.035849     2A   -490.031371     3A    -65.175733
       4A    -65.171068     5A    -58.531034     6A    -58.529650
       7A    -58.529615     8A    -58.526396     9A    -58.524986
      10A    -58.524957    11A    -11.315667    12A    -11.313712
      13A    -11.270801    14A    -11.263508    15A    -11.261455
      16A    -11.258460    17A    -11.241997    18A     -9.848739
      19A     -9.843759    20A     -7.460488    21A     -7.455401
      22A     -7.453522    23A     -7.453438    24A     -7.448516
      25A     -7.448473    26A     -3.204336    27A     -3.200655
      28A     -3.200378    29A     -3.199198    30A     -3.195625
      31A     -3.195409    32A     -3.191586    33A     -3.191577
      34A     -3.186615    35A     -3.186606    36A     -1.190771
      37A     -1.098436    38A     -1.087661    39A     -1.006006
      40A     -0.974098    41A     -0.956210    42A     -0.817496
      43A     -0.809191    44A     -0.705701    45A     -0.674291
      46A     -0.604338    47A     -0.596437    48A     -0.589352
      49A     -0.578183    50A     -0.559758    51A     -0.540109
      52A     -0.510096    53A     -0.496561    54A     -0.469476
      55A     -0.427166    56A     -0.423410    57A     -0.420422
      58A     -0.345469    59A     -0.334182

  @DF-RHF Final Energy: -5413.57992915872819

   => Energetics <=

    Nuclear Repulsion Energy =            881.9895537748361676
    One-Electron Energy =               -9284.9681626812507602
    Two-Electron Energy =                2989.3986797476864012
    Total Energy =                      -5413.5799291587281914
  Basis Set: (AUG-CC-PVTZ AUX)
    Blend: AUG-CC-PVTZ-RI
    Molecular point group: c1

    Geometry (in Angstrom), charge = 0, multiplicity = 1:

       Center              X                  Y                   Z               Mass
    ------------   -----------------  -----------------  -----------------  -----------------
         BR           2.841505143576    -0.776459236371     0.001116961217    78.918337600000
         BR          -2.843886856424    -0.776459236371     0.001116961217    78.918337600000
         C           -0.001190856424     2.276016763629    -0.016370038783    12.000000000000
         C           -1.208912856424     1.567446763629    -0.010156038783    12.000000000000
         C            1.206531143576     1.567446763629    -0.010156038783    12.000000000000
         C           -0.001190856424     3.782370763629     0.013780961217    12.000000000000
         C            1.213822543576     0.131695263629    -0.000310638783    12.000000000000
         C           -1.191604856424     0.173681763629    -0.000653038783    12.000000000000
         C           -0.001190856424    -0.551939236371     0.005263961217    12.000000000000
         H           -2.158608856424     2.096274763629    -0.018332038783     1.007825032230
         H            2.156228143576     2.096273763629    -0.018331038783     1.007825032230
         H           -0.001180856424     4.151569763629     1.044749961217     1.007825032230
         H            0.884576143576     4.183978763629    -0.485478038783     1.007825032230
         H           -0.886966856424     4.183978763629    -0.485460038783     1.007825032230
         H           -0.001191856424    -1.636921236371     0.009399961217     1.007825032230

  Basis Set: AUG-CC-PVTZ
    Blend: AUG-CC-PVTZ
  Basis Set: (AUG-CC-PVTZ AUX)
    Blend: AUG-CC-PVTZ-JKFIT
	 Reference Energy          =   -5413.5799291587281914 [Eh]
	 Singles Energy            =      -0.0000000000000000 [Eh]
	 Same-Spin Energy          =      -0.4884855157733949 [Eh]
	 Opposite-Spin Energy      =      -1.3651685292970939 [Eh]
	 Correlation Energy        =      -1.8536540450704888 [Eh]
	 Total Energy              =   -5415.4335832037986620 [Eh]

	 ================> DF-SCS-MP2 Energies <==================
	-----------------------------------------------------------
	 SCS Same-Spin Scale       =       0.3333333333333333 [-]
	 SCS Opposite-Spin Scale   =       1.2000000000000000 [-]
	 SCS Same-Spin Energy      =      -0.1628285052577983 [Eh]
	 SCS Opposite-Spin Energy  =      -1.6382022351565126 [Eh]
	 SCS Correlation Energy    =      -1.8010307404143109 [Eh]
	 SCS Total Energy          =   -5415.3809598991429084 [Eh]
	-----------------------------------------------------------

  Dipole Moment: [D]
     X:     0.1782      Y:     2.0654      Z:     0.0364     Total:     2.0733

*** Psi4 exiting successfully. Buy a developer a beer!
