                               Psi4 1.4a3.dev225

  ==> Input File <==

--------------------------------------------------------------------------
#psi4
#
memory 32 gb

molecule  {
0 1
 Br        2.8426960    -0.9006560     0.0010230
 Br       -2.8426960    -0.9006560     0.0010230
  C        0.0000000     2.1518200    -0.0164640
  C       -1.2077220     1.4432500    -0.0102500
  C        1.2198979     1.4644302    -0.0096204
  C        0.0000000     3.6581740     0.0136870
  C        1.1904140     0.0494840    -0.0007470
  C       -1.1904140     0.0494850    -0.0007470
  C        0.0000000    -0.6761360     0.0051700
  H       -2.1574180     1.9720780    -0.0184260
  H        2.1574190     1.9720770    -0.0184250
  H        0.0000100     4.0273730     1.0446560
  H        0.8857670     4.0597820    -0.4855720
  H       -0.8857760     4.0597820    -0.4855540
  H       -0.0000010    -1.7611180     0.0093060
units angstrom
no_reorient  #important for SAPT in psi4, default
symmetry c1  #important for SAPT in psi4, default
}

set PROPERTIES_ORIGIN ["COM"]
properties('MP2/aug-cc-pvtz', properties = ['dipole'])
--------------------------------------------------------------------------

    Molecular point group: c1
  Charge       = 0
  Multiplicity = 1
  Basis Set: AUG-CC-PVTZ
    Blend: AUG-CC-PVTZ
  Basis Set: (AUG-CC-PVTZ AUX)
    Blend: AUG-CC-PVTZ-JKFIT

    Orbital Energies [Eh]
    ---------------------

    Doubly Occupied:

       1A   -490.032276     2A   -490.031771     3A    -65.171983
       4A    -65.171483     5A    -58.527308     6A    -58.526805
       7A    -58.525901     8A    -58.525870     9A    -58.525404
      10A    -58.525373    11A    -11.317417    12A    -11.315589
      13A    -11.272644    14A    -11.264904    15A    -11.259485
      16A    -11.258982    17A    -11.242207    18A     -9.844681
      19A     -9.844189    20A     -7.456315    21A     -7.455810
      22A     -7.449448    23A     -7.449393    24A     -7.448967
      25A     -7.448912    26A     -3.200107    27A     -3.199595
      28A     -3.196544    29A     -3.196318    30A     -3.196043
      31A     -3.195818    32A     -3.187549    33A     -3.187540
      34A     -3.187080    35A     -3.187070    36A     -1.193300
      37A     -1.094156    38A     -1.088710    39A     -1.004128
      40A     -0.976465    41A     -0.958743    42A     -0.817741
      43A     -0.810927    44A     -0.711524    45A     -0.676296
      46A     -0.603624    47A     -0.597679    48A     -0.591686
      49A     -0.584811    50A     -0.559554    51A     -0.540823
      52A     -0.508518    53A     -0.492609    54A     -0.466734
      55A     -0.425828    56A     -0.423076    57A     -0.419842
      58A     -0.346443    59A     -0.338130

  @DF-RHF Final Energy: -5413.58189100279742

   => Energetics <=

    Nuclear Repulsion Energy =            881.0830401172901247
    One-Electron Energy =               -9283.2135992385537975
    Two-Electron Energy =                2988.5486681184656845
    Total Energy =                      -5413.5818910027983293
  Basis Set: (AUG-CC-PVTZ AUX)
    Blend: AUG-CC-PVTZ-RI
    Molecular point group: c1

    Geometry (in Angstrom), charge = 0, multiplicity = 1:

       Center              X                  Y                   Z               Mass
    ------------   -----------------  -----------------  -----------------  -----------------
         BR           2.842106562890    -0.779517076108     0.001103057919    78.918337600000
         BR          -2.843285437110    -0.779517076108     0.001103057919    78.918337600000
         C           -0.000589437110     2.272958923892    -0.016383942081    12.000000000000
         C           -1.208311437110     1.564388923892    -0.010169942081    12.000000000000
         C            1.219308462890     1.585569123892    -0.009540342081    12.000000000000
         C           -0.000589437110     3.779312923892     0.013767057919    12.000000000000
         C            1.189824562890     0.170622923892    -0.000666942081    12.000000000000
         C           -1.191003437110     0.170623923892    -0.000666942081    12.000000000000
         C           -0.000589437110    -0.554997076108     0.005250057919    12.000000000000
         H           -2.158007437110     2.093216923892    -0.018345942081     1.007825032230
         H            2.156829562890     2.093215923892    -0.018344942081     1.007825032230
         H           -0.000579437110     4.148511923892     1.044736057919     1.007825032230
         H            0.885177562890     4.180920923892    -0.485491942081     1.007825032230
         H           -0.886365437110     4.180920923892    -0.485473942081     1.007825032230
         H           -0.000590437110    -1.639979076108     0.009386057919     1.007825032230

  Basis Set: AUG-CC-PVTZ
    Blend: AUG-CC-PVTZ
  Basis Set: (AUG-CC-PVTZ AUX)
    Blend: AUG-CC-PVTZ-JKFIT
	 Reference Energy          =   -5413.5818910027974198 [Eh]
	 Singles Energy            =      -0.0000000000000000 [Eh]
	 Same-Spin Energy          =      -0.4880371635621292 [Eh]
	 Opposite-Spin Energy      =      -1.3644378904520773 [Eh]
	 Correlation Energy        =      -1.8524750540142065 [Eh]
	 Total Energy              =   -5415.4343660568119958 [Eh]

	 ================> DF-SCS-MP2 Energies <==================
	-----------------------------------------------------------
	 SCS Same-Spin Scale       =       0.3333333333333333 [-]
	 SCS Opposite-Spin Scale   =       1.2000000000000000 [-]
	 SCS Same-Spin Energy      =      -0.1626790545207097 [Eh]
	 SCS Opposite-Spin Energy  =      -1.6373254685424927 [Eh]
	 SCS Correlation Energy    =      -1.8000045230632025 [Eh]
	 SCS Total Energy          =   -5415.3818955258602728 [Eh]
	-----------------------------------------------------------

  Dipole Moment: [D]
     X:    -0.0035      Y:     2.1647      Z:     0.0360     Total:     2.1650

*** Psi4 exiting successfully. Buy a developer a beer!
