                               Psi4 1.4a3.dev225

  ==> Input File <==

--------------------------------------------------------------------------
#psi4
#
memory 32 gb

molecule  {
0 1
 Br        2.8426960    -0.9006560     0.0010230
 Br       -2.8426960    -0.9006560     0.0010230
  C        0.0000000     2.1518200    -0.0164640
  C       -1.2077220     1.4432500    -0.0102500
  C        1.2077220     1.4432500    -0.0102500
  C        0.0000000     3.6581740     0.0136870
  C        1.2597433    -0.0789190     0.0003000
  C       -1.1904140     0.0494850    -0.0007470
  C        0.0000000    -0.6761360     0.0051700
  H       -2.1574180     1.9720780    -0.0184260
  H        2.1574190     1.9720770    -0.0184250
  H        0.0000100     4.0273730     1.0446560
  H        0.8857670     4.0597820    -0.4855720
  H       -0.8857760     4.0597820    -0.4855540
  H       -0.0000010    -1.7611180     0.0093060
units angstrom
no_reorient  #important for SAPT in psi4, default
symmetry c1  #important for SAPT in psi4, default
}

set PROPERTIES_ORIGIN ["COM"]
properties('MP2/aug-cc-pvtz', properties = ['dipole'])
--------------------------------------------------------------------------

    Molecular point group: c1
  Charge       = 0
  Multiplicity = 1
  Basis Set: AUG-CC-PVTZ
    Blend: AUG-CC-PVTZ
  Basis Set: (AUG-CC-PVTZ AUX)
    Blend: AUG-CC-PVTZ-JKFIT

    Orbital Energies [Eh]
    ---------------------

    Doubly Occupied:

       1A   -490.042387     2A   -490.030387     3A    -65.182746
       4A    -65.170062     5A    -58.537964     6A    -58.536663
       7A    -58.536611     8A    -58.525397     9A    -58.523977
      10A    -58.523952    11A    -11.317770    12A    -11.311728
      13A    -11.268074    14A    -11.266028    15A    -11.261728
      16A    -11.257917    17A    -11.240458    18A     -9.856539
      19A     -9.842736    20A     -7.468517    21A     -7.461394
      22A     -7.461224    23A     -7.454394    24A     -7.447475
      25A     -7.447443    26A     -3.212458    27A     -3.208545
      28A     -3.208133    29A     -3.199418    30A     -3.199407
      31A     -3.198203    32A     -3.194614    33A     -3.194405
      34A     -3.185565    35A     -3.185556    36A     -1.184807
      37A     -1.111170    38A     -1.084464    39A     -1.008146
      40A     -0.970544    41A     -0.948667    42A     -0.819945
      43A     -0.800627    44A     -0.699752    45A     -0.668644
      46A     -0.612298    47A     -0.593765    48A     -0.589396
      49A     -0.567990    50A     -0.559572    51A     -0.538256
      52A     -0.512843    53A     -0.497641    54A     -0.475493
      55A     -0.427555    56A     -0.422563    57A     -0.419965
      58A     -0.345369    59A     -0.323512

  @DF-RHF Final Energy: -5413.56063732256553

   => Energetics <=

    Nuclear Repulsion Energy =            882.9176473645286478
    One-Electron Energy =               -9286.6708522178687417
    Two-Electron Energy =                2990.1925675307734309
    Total Energy =                      -5413.5606373225655261
  Basis Set: (AUG-CC-PVTZ AUX)
    Blend: AUG-CC-PVTZ-RI
    Molecular point group: c1

    Geometry (in Angstrom), charge = 0, multiplicity = 1:

       Center              X                  Y                   Z               Mass
    ------------   -----------------  -----------------  -----------------  -----------------
         BR           2.839339777472    -0.772275781339     0.001082851663    78.918337600000
         BR          -2.846052222528    -0.772275781339     0.001082851663    78.918337600000
         C           -0.003356222528     2.280200218661    -0.016404148337    12.000000000000
         C           -1.211078222528     1.571630218661    -0.010190148337    12.000000000000
         C            1.204365777472     1.571630218661    -0.010190148337    12.000000000000
         C           -0.003356222528     3.786554218661     0.013746851663    12.000000000000
         C            1.256387077472     0.049461218661     0.000359851663    12.000000000000
         C           -1.193770222528     0.177865218661    -0.000687148337    12.000000000000
         C           -0.003356222528    -0.547755781339     0.005229851663    12.000000000000
         H           -2.160774222528     2.100458218661    -0.018366148337     1.007825032230
         H            2.154062777472     2.100457218661    -0.018365148337     1.007825032230
         H           -0.003346222528     4.155753218661     1.044715851663     1.007825032230
         H            0.882410777472     4.188162218661    -0.485512148337     1.007825032230
         H           -0.889132222528     4.188162218661    -0.485494148337     1.007825032230
         H           -0.003357222528    -1.632737781339     0.009365851663     1.007825032230

  Basis Set: AUG-CC-PVTZ
    Blend: AUG-CC-PVTZ
  Basis Set: (AUG-CC-PVTZ AUX)
    Blend: AUG-CC-PVTZ-JKFIT
	 Reference Energy          =   -5413.5606373225655261 [Eh]
	 Singles Energy            =      -0.0000000000000000 [Eh]
	 Same-Spin Energy          =      -0.4897177203396844 [Eh]
	 Opposite-Spin Energy      =      -1.3678151954984694 [Eh]
	 Correlation Energy        =      -1.8575329158381537 [Eh]
	 Total Energy              =   -5415.4181702384039454 [Eh]

	 ================> DF-SCS-MP2 Energies <==================
	-----------------------------------------------------------
	 SCS Same-Spin Scale       =       0.3333333333333333 [-]
	 SCS Opposite-Spin Scale   =       1.2000000000000000 [-]
	 SCS Same-Spin Energy      =      -0.1632392401132281 [Eh]
	 SCS Opposite-Spin Energy  =      -1.6413782345981633 [Eh]
	 SCS Correlation Energy    =      -1.8046174747113914 [Eh]
	 SCS Total Energy          =   -5415.3652547972769753 [Eh]
	-----------------------------------------------------------

  Dipole Moment: [D]
     X:     0.5136      Y:     1.8614      Z:     0.0360     Total:     1.9313

*** Psi4 exiting successfully. Buy a developer a beer!
