                               Psi4 1.4a3.dev225

  ==> Input File <==

--------------------------------------------------------------------------
#psi4
#
memory 32 gb

molecule  {
0 1
 Br        2.8426960    -0.9006560     0.0010230
 Br       -2.8426960    -0.9006560     0.0010230
  C        0.0000000     2.1518200    -0.0164640
  C       -1.2077220     1.4432500    -0.0102500
  C        1.2077220     1.4432500    -0.0102500
  C        0.0000000     3.6581740     0.0136870
  C        1.1904140     0.0494840    -0.0007470
  C       -1.1368964     0.1307567    -0.0009152
  C        0.0000000    -0.6761360     0.0051700
  H       -2.1574180     1.9720780    -0.0184260
  H        2.1574190     1.9720770    -0.0184250
  H        0.0000100     4.0273730     1.0446560
  H        0.8857670     4.0597820    -0.4855720
  H       -0.8857760     4.0597820    -0.4855540
  H       -0.0000010    -1.7611180     0.0093060
units angstrom
no_reorient  #important for SAPT in psi4, default
symmetry c1  #important for SAPT in psi4, default
}

set PROPERTIES_ORIGIN ["COM"]
properties('MP2/aug-cc-pvtz', properties = ['dipole'])
--------------------------------------------------------------------------

    Molecular point group: c1
  Charge       = 0
  Multiplicity = 1
  Basis Set: AUG-CC-PVTZ
    Blend: AUG-CC-PVTZ
  Basis Set: (AUG-CC-PVTZ AUX)
    Blend: AUG-CC-PVTZ-JKFIT

    Orbital Energies [Eh]
    ---------------------

    Doubly Occupied:

       1A   -490.033497     2A   -490.022354     3A    -65.173224
       4A    -65.161843     5A    -58.528543     6A    -58.527143
       7A    -58.527109     8A    -58.517180     9A    -58.515770
      10A    -58.515748    11A    -11.318082    12A    -11.314628
      13A    -11.276718    14A    -11.268232    15A    -11.259984
      16A    -11.253692    17A    -11.245245    18A     -9.845936
      19A     -9.834106    20A     -7.457559    21A     -7.450715
      22A     -7.450650    23A     -7.445489    24A     -7.438891
      25A     -7.438889    26A     -3.201342    27A     -3.197789
      28A     -3.197558    29A     -3.189134    30A     -3.188822
      31A     -3.188812    32A     -3.185819    33A     -3.185688
      34A     -3.177126    35A     -3.177117    36A     -1.206268
      37A     -1.099339    38A     -1.084669    39A     -1.000941
      40A     -0.982789    41A     -0.963410    42A     -0.821367
      43A     -0.814301    44A     -0.716379    45A     -0.685061
      46A     -0.610689    47A     -0.601695    48A     -0.594944
      49A     -0.582646    50A     -0.561305    51A     -0.547742
      52A     -0.513456    53A     -0.473353    54A     -0.465649
      55A     -0.425024    56A     -0.420683    57A     -0.414815
      58A     -0.351032    59A     -0.346700

  @DF-RHF Final Energy: -5413.57487743761430

   => Energetics <=

    Nuclear Repulsion Energy =            881.0183765249953467
    One-Electron Energy =               -9283.1971354237284686
    Two-Electron Energy =                2988.6038814611188172
    Total Energy =                      -5413.5748774376152141
  Basis Set: (AUG-CC-PVTZ AUX)
    Blend: AUG-CC-PVTZ-RI
    Molecular point group: c1

    Geometry (in Angstrom), charge = 0, multiplicity = 1:

       Center              X                  Y                   Z               Mass
    ------------   -----------------  -----------------  -----------------  -----------------
         BR           2.840105218916    -0.782426094398     0.001141679268    78.918337600000
         BR          -2.845286781084    -0.782426094398     0.001141679268    78.918337600000
         C           -0.002590781084     2.270049905602    -0.016345320732    12.000000000000
         C           -1.210312781084     1.561479905602    -0.010131320732    12.000000000000
         C            1.205131218916     1.561479905602    -0.010131320732    12.000000000000
         C           -0.002590781084     3.776403905602     0.013805679268    12.000000000000
         C            1.187823218916     0.167713905602    -0.000628320732    12.000000000000
         C           -1.139487181084     0.248986605602    -0.000796520732    12.000000000000
         C           -0.002590781084    -0.557906094398     0.005288679268    12.000000000000
         H           -2.160008781084     2.090307905602    -0.018307320732     1.007825032230
         H            2.154828218916     2.090306905602    -0.018306320732     1.007825032230
         H           -0.002580781084     4.145602905602     1.044774679268     1.007825032230
         H            0.883176218916     4.178011905602    -0.485453320732     1.007825032230
         H           -0.888366781084     4.178011905602    -0.485435320732     1.007825032230
         H           -0.002591781084    -1.642888094398     0.009424679268     1.007825032230

  Basis Set: AUG-CC-PVTZ
    Blend: AUG-CC-PVTZ
  Basis Set: (AUG-CC-PVTZ AUX)
    Blend: AUG-CC-PVTZ-JKFIT
	 Reference Energy          =   -5413.5748774376143047 [Eh]
	 Singles Energy            =      -0.0000000000000000 [Eh]
	 Same-Spin Energy          =      -0.4874678483787729 [Eh]
	 Opposite-Spin Energy      =      -1.3633019981923136 [Eh]
	 Correlation Energy        =      -1.8507698465710865 [Eh]
	 Total Energy              =   -5415.4256472841852883 [Eh]

	 ================> DF-SCS-MP2 Energies <==================
	-----------------------------------------------------------
	 SCS Same-Spin Scale       =       0.3333333333333333 [-]
	 SCS Opposite-Spin Scale   =       1.2000000000000000 [-]
	 SCS Same-Spin Energy      =      -0.1624892827929243 [Eh]
	 SCS Opposite-Spin Energy  =      -1.6359623978307762 [Eh]
	 SCS Correlation Energy    =      -1.7984516806237005 [Eh]
	 SCS Total Energy          =   -5415.3733291182379617 [Eh]
	-----------------------------------------------------------

  Dipole Moment: [D]
     X:     0.3941      Y:     2.4432      Z:     0.0366     Total:     2.4751

*** Psi4 exiting successfully. Buy a developer a beer!
