                               Psi4 1.4a3.dev225

  ==> Input File <==

--------------------------------------------------------------------------
#psi4
#
memory 32 gb

molecule  {
0 1
 Br        2.8426960    -0.9006560     0.0010230
 Br       -2.8426960    -0.9006560     0.0010230
  C        0.0000000     2.1518200    -0.0164640
  C       -1.2077220     1.4432500    -0.0102500
  C        1.2077220     1.4432500    -0.0102500
  C        0.0000000     3.6581740     0.0136870
  C        1.1775685     0.0701484    -0.0009155
  C       -1.1904140     0.0494850    -0.0007470
  C        0.0000000    -0.6761360     0.0051700
  H       -2.1574180     1.9720780    -0.0184260
  H        2.1574190     1.9720770    -0.0184250
  H        0.0000100     4.0273730     1.0446560
  H        0.8857670     4.0597820    -0.4855720
  H       -0.8857760     4.0597820    -0.4855540
  H       -0.0000010    -1.7611180     0.0093060
units angstrom
no_reorient  #important for SAPT in psi4, default
symmetry c1  #important for SAPT in psi4, default
}

set PROPERTIES_ORIGIN ["COM"]
properties('MP2/aug-cc-pvtz', properties = ['dipole'])
--------------------------------------------------------------------------

    Molecular point group: c1
  Charge       = 0
  Multiplicity = 1
  Basis Set: AUG-CC-PVTZ
    Blend: AUG-CC-PVTZ
  Basis Set: (AUG-CC-PVTZ AUX)
    Blend: AUG-CC-PVTZ-JKFIT

    Orbital Energies [Eh]
    ---------------------

    Doubly Occupied:

       1A   -490.032301     2A   -490.029819     3A    -65.172013
       4A    -65.169454     5A    -58.527337     6A    -58.525932
       7A    -58.525901     8A    -58.524787     9A    -58.523374
      10A    -58.523347    11A    -11.315646    12A    -11.314712
      13A    -11.273426    14A    -11.265504    15A    -11.259053
      16A    -11.257498    17A    -11.243431    18A     -9.844716
      19A     -9.842022    20A     -7.456347    21A     -7.453598
      22A     -7.449485    23A     -7.449431    24A     -7.446784
      25A     -7.446749    26A     -3.200136    27A     -3.197357
      28A     -3.196574    29A     -3.196351    30A     -3.193850
      31A     -3.193656    32A     -3.187589    33A     -3.187580
      34A     -3.184912    35A     -3.184903    36A     -1.197464
      37A     -1.095145    38A     -1.087830    39A     -1.003387
      40A     -0.978332    41A     -0.960591    42A     -0.815966
      43A     -0.815232    44A     -0.710735    45A     -0.679302
      46A     -0.605047    47A     -0.598785    48A     -0.589037
      49A     -0.584115    50A     -0.560267    51A     -0.543177
      52A     -0.511241    53A     -0.487617    54A     -0.466483
      55A     -0.425502    56A     -0.422895    57A     -0.419124
      58A     -0.345880    59A     -0.342557

  @DF-RHF Final Energy: -5413.58279570584000

   => Energetics <=

    Nuclear Repulsion Energy =            881.4362093801431683
    One-Electron Energy =               -9283.9554437038732431
    Two-Electron Energy =                2988.9364386178908717
    Total Energy =                      -5413.5827957058390894
  Basis Set: (AUG-CC-PVTZ AUX)
    Blend: AUG-CC-PVTZ-RI
    Molecular point group: c1

    Geometry (in Angstrom), charge = 0, multiplicity = 1:

       Center              X                  Y                   Z               Mass
    ------------   -----------------  -----------------  -----------------  -----------------
         BR           2.843317844190    -0.779492106327     0.001141693791    78.918337600000
         BR          -2.842074155810    -0.779492106327     0.001141693791    78.918337600000
         C            0.000621844190     2.272983893673    -0.016345306209    12.000000000000
         C           -1.207100155810     1.564413893673    -0.010131306209    12.000000000000
         C            1.208343844190     1.564413893673    -0.010131306209    12.000000000000
         C            0.000621844190     3.779337893673     0.013805693791    12.000000000000
         C            1.178190344190     0.191312293673    -0.000796806209    12.000000000000
         C           -1.189792155810     0.170648893673    -0.000628306209    12.000000000000
         C            0.000621844190    -0.554972106327     0.005288693791    12.000000000000
         H           -2.156796155810     2.093241893673    -0.018307306209     1.007825032230
         H            2.158040844190     2.093240893673    -0.018306306209     1.007825032230
         H            0.000631844190     4.148536893673     1.044774693791     1.007825032230
         H            0.886388844190     4.180945893673    -0.485453306209     1.007825032230
         H           -0.885154155810     4.180945893673    -0.485435306209     1.007825032230
         H            0.000620844190    -1.639954106327     0.009424693791     1.007825032230

  Basis Set: AUG-CC-PVTZ
    Blend: AUG-CC-PVTZ
  Basis Set: (AUG-CC-PVTZ AUX)
    Blend: AUG-CC-PVTZ-JKFIT
	 Reference Energy          =   -5413.5827957058399988 [Eh]
	 Singles Energy            =      -0.0000000000000000 [Eh]
	 Same-Spin Energy          =      -0.4878525091266877 [Eh]
	 Opposite-Spin Energy      =      -1.3639487578034919 [Eh]
	 Correlation Energy        =      -1.8518012669301795 [Eh]
	 Total Energy              =   -5415.4345969727701231 [Eh]

	 ================> DF-SCS-MP2 Energies <==================
	-----------------------------------------------------------
	 SCS Same-Spin Scale       =       0.3333333333333333 [-]
	 SCS Opposite-Spin Scale   =       1.2000000000000000 [-]
	 SCS Same-Spin Energy      =      -0.1626175030422292 [Eh]
	 SCS Opposite-Spin Energy  =      -1.6367385093641902 [Eh]
	 SCS Correlation Energy    =      -1.7993560124064194 [Eh]
	 SCS Total Energy          =   -5415.3821517182468597 [Eh]
	-----------------------------------------------------------

  Dipole Moment: [D]
     X:    -0.0931      Y:     2.2401      Z:     0.0366     Total:     2.2423

*** Psi4 exiting successfully. Buy a developer a beer!
