                               Psi4 1.4a3.dev225

  ==> Input File <==

--------------------------------------------------------------------------
#psi4
#
memory 32 gb

molecule  {
0 1
 Br        2.8426960    -0.9006560     0.0010230
 Br       -2.8258623    -0.9293467     0.0012652
  C        0.0000000     2.1518200    -0.0164640
  C       -1.2077220     1.4432500    -0.0102500
  C        1.2077220     1.4432500    -0.0102500
  C        0.0000000     3.6581740     0.0136870
  C        1.1904140     0.0494840    -0.0007470
  C       -1.1904140     0.0494850    -0.0007470
  C        0.0000000    -0.6761360     0.0051700
  H       -2.1574180     1.9720780    -0.0184260
  H        2.1574190     1.9720770    -0.0184250
  H        0.0000100     4.0273730     1.0446560
  H        0.8857670     4.0597820    -0.4855720
  H       -0.8857760     4.0597820    -0.4855540
  H       -0.0000010    -1.7611180     0.0093060
units angstrom
no_reorient  #important for SAPT in psi4, default
symmetry c1  #important for SAPT in psi4, default
}

set PROPERTIES_ORIGIN ["COM"]
properties('MP2/aug-cc-pvtz', properties = ['dipole'])
--------------------------------------------------------------------------

    Molecular point group: c1
  Charge       = 0
  Multiplicity = 1
  Basis Set: AUG-CC-PVTZ
    Blend: AUG-CC-PVTZ
  Basis Set: (AUG-CC-PVTZ AUX)
    Blend: AUG-CC-PVTZ-JKFIT

    Orbital Energies [Eh]
    ---------------------

    Doubly Occupied:

       1A   -490.031965     2A   -490.031870     3A    -65.171673
       4A    -65.171579     5A    -58.526999     6A    -58.526903
       7A    -58.525591     8A    -58.525561     9A    -58.525497
      10A    -58.525468    11A    -11.314960    12A    -11.314806
      13A    -11.272658    14A    -11.264425    15A    -11.259188
      16A    -11.258823    17A    -11.243005    18A     -9.844373
      19A     -9.844279    20A     -7.456008    21A     -7.455912
      22A     -7.449137    23A     -7.449087    24A     -7.449045
      25A     -7.448995    26A     -3.199800    27A     -3.199702
      28A     -3.196234    29A     -3.196138    30A     -3.196013
      31A     -3.195917    32A     -3.187239    33A     -3.187230
      34A     -3.187149    35A     -3.187140    36A     -1.195023
      37A     -1.094964    38A     -1.088665    39A     -1.004038
      40A     -0.977121    41A     -0.959235    42A     -0.816265
      43A     -0.813442    44A     -0.708996    45A     -0.677581
      46A     -0.604276    47A     -0.598018    48A     -0.588215
      49A     -0.583131    50A     -0.560052    51A     -0.541991
      52A     -0.510877    53A     -0.491173    54A     -0.467170
      55A     -0.426016    56A     -0.423314    57A     -0.419717
      58A     -0.345509    59A     -0.339893

  @DF-RHF Final Energy: -5413.58293665988640

   => Energetics <=

    Nuclear Repulsion Energy =            881.8648478873302565
    One-Electron Energy =               -9284.7854602787137992
    Two-Electron Energy =                2989.3376757314963470
    Total Energy =                      -5413.5829366598863999
  Basis Set: (AUG-CC-PVTZ AUX)
    Blend: AUG-CC-PVTZ-RI
    Molecular point group: c1

    Geometry (in Angstrom), charge = 0, multiplicity = 1:

       Center              X                  Y                   Z               Mass
    ------------   -----------------  -----------------  -----------------  -----------------
         BR           2.837336676142    -0.769357531505     0.001056427887    78.918337600000
         BR          -2.831221623858    -0.798048231505     0.001298627887    78.918337600000
         C           -0.005359323858     2.283118468495    -0.016430572113    12.000000000000
         C           -1.213081323858     1.574548468495    -0.010216572113    12.000000000000
         C            1.202362676142     1.574548468495    -0.010216572113    12.000000000000
         C           -0.005359323858     3.789472468495     0.013720427887    12.000000000000
         C            1.185054676142     0.180782468495    -0.000713572113    12.000000000000
         C           -1.195773323858     0.180783468495    -0.000713572113    12.000000000000
         C           -0.005359323858    -0.544837531505     0.005203427887    12.000000000000
         H           -2.162777323858     2.103376468495    -0.018392572113     1.007825032230
         H            2.152059676142     2.103375468495    -0.018391572113     1.007825032230
         H           -0.005349323858     4.158671468495     1.044689427887     1.007825032230
         H            0.880407676142     4.191080468495    -0.485538572113     1.007825032230
         H           -0.891135323858     4.191080468495    -0.485520572113     1.007825032230
         H           -0.005360323858    -1.629819531505     0.009339427887     1.007825032230

  Basis Set: AUG-CC-PVTZ
    Blend: AUG-CC-PVTZ
  Basis Set: (AUG-CC-PVTZ AUX)
    Blend: AUG-CC-PVTZ-JKFIT
	 Reference Energy          =   -5413.5829366598863999 [Eh]
	 Singles Energy            =      -0.0000000000000000 [Eh]
	 Same-Spin Energy          =      -0.4880424934357246 [Eh]
	 Opposite-Spin Energy      =      -1.3642923065260779 [Eh]
	 Correlation Energy        =      -1.8523347999618025 [Eh]
	 Total Energy              =   -5415.4352714598480816 [Eh]

	 ================> DF-SCS-MP2 Energies <==================
	-----------------------------------------------------------
	 SCS Same-Spin Scale       =       0.3333333333333333 [-]
	 SCS Opposite-Spin Scale   =       1.2000000000000000 [-]
	 SCS Same-Spin Energy      =      -0.1626808311452415 [Eh]
	 SCS Opposite-Spin Energy  =      -1.6371507678312935 [Eh]
	 SCS Correlation Energy    =      -1.7998315989765350 [Eh]
	 SCS Total Energy          =   -5415.3827682588625976 [Eh]
	-----------------------------------------------------------

  Dipole Moment: [D]
     X:    -0.0067      Y:     2.1884      Z:     0.0364     Total:     2.1887

*** Psi4 exiting successfully. Buy a developer a beer!
