                               Psi4 1.4a3.dev225

  ==> Input File <==

--------------------------------------------------------------------------
#psi4
#
memory 32 gb

molecule  {
0 1
 Br        2.8426960    -0.9006560     0.0010230
 Br       -2.8426960    -0.9006560     0.0010230
  C        0.0000000     2.1518200    -0.0164640
  C       -1.2077220     1.4432500    -0.0102500
  C        1.2077220     1.4432500    -0.0102500
  C        0.0000000     3.6581740     0.0136870
  C        1.1904140     0.0494840    -0.0007470
  C       -1.2337584     0.0245599    -0.0007006
  C        0.0000000    -0.6761360     0.0051700
  H       -2.1574180     1.9720780    -0.0184260
  H        2.1574190     1.9720770    -0.0184250
  H        0.0000100     4.0273730     1.0446560
  H        0.8857670     4.0597820    -0.4855720
  H       -0.8857760     4.0597820    -0.4855540
  H       -0.0000010    -1.7611180     0.0093060
units angstrom
no_reorient  #important for SAPT in psi4, default
symmetry c1  #important for SAPT in psi4, default
}

set PROPERTIES_ORIGIN ["COM"]
properties('MP2/aug-cc-pvtz', properties = ['dipole'])
--------------------------------------------------------------------------

    Molecular point group: c1
  Charge       = 0
  Multiplicity = 1
  Basis Set: AUG-CC-PVTZ
    Blend: AUG-CC-PVTZ
  Basis Set: (AUG-CC-PVTZ AUX)
    Blend: AUG-CC-PVTZ-JKFIT

    Orbital Energies [Eh]
    ---------------------

    Doubly Occupied:

       1A   -490.036594     2A   -490.031070     3A    -65.176518
       4A    -65.170770     5A    -58.531812     6A    -58.530435
       7A    -58.530398     8A    -58.526098     9A    -58.524687
      10A    -58.524660    11A    -11.316101    12A    -11.313308
      13A    -11.270929    14A    -11.265652    15A    -11.259900
      16A    -11.258048    17A    -11.241997    18A     -9.849590
      19A     -9.843462    20A     -7.461360    21A     -7.455105
      22A     -7.454378    23A     -7.454288    24A     -7.448217
      25A     -7.448179    26A     -3.205217    27A     -3.201515
      28A     -3.201227    29A     -3.198900    30A     -3.195324
      31A     -3.195115    32A     -3.192437    33A     -3.192428
      34A     -3.186319    35A     -3.186310    36A     -1.189833
      37A     -1.099692    38A     -1.087065    39A     -1.004961
      40A     -0.975403    41A     -0.955538    42A     -0.814791
      43A     -0.810990    44A     -0.705065    45A     -0.673723
      46A     -0.605388    47A     -0.596286    48A     -0.587500
      49A     -0.578274    50A     -0.559484    51A     -0.539220
      52A     -0.513126    53A     -0.495253    54A     -0.470433
      55A     -0.427759    56A     -0.423582    57A     -0.420040
      58A     -0.342895    59A     -0.335201

  @DF-RHF Final Energy: -5413.57966372007922

   => Energetics <=

    Nuclear Repulsion Energy =            881.9769290317535706
    One-Electron Energy =               -9284.9334875600870873
    Two-Electron Energy =                2989.3768948082552015
    Total Energy =                      -5413.5796637200792247
  Basis Set: (AUG-CC-PVTZ AUX)
    Blend: AUG-CC-PVTZ-RI
    Molecular point group: c1

    Geometry (in Angstrom), charge = 0, multiplicity = 1:

       Center              X                  Y                   Z               Mass
    ------------   -----------------  -----------------  -----------------  -----------------
         BR           2.844794290241    -0.777285127148     0.001131290522    78.918337600000
         BR          -2.840597709759    -0.777285127148     0.001131290522    78.918337600000
         C            0.002098290241     2.275190872852    -0.016355709478    12.000000000000
         C           -1.205623709759     1.566620872852    -0.010141709478    12.000000000000
         C            1.209820290241     1.566620872852    -0.010141709478    12.000000000000
         C            0.002098290241     3.781544872852     0.013795290522    12.000000000000
         C            1.192512290241     0.172854872852    -0.000638709478    12.000000000000
         C           -1.231660109759     0.147930772852    -0.000592309478    12.000000000000
         C            0.002098290241    -0.552765127148     0.005278290522    12.000000000000
         H           -2.155319709759     2.095448872852    -0.018317709478     1.007825032230
         H            2.159517290241     2.095447872852    -0.018316709478     1.007825032230
         H            0.002108290241     4.150743872852     1.044764290522     1.007825032230
         H            0.887865290241     4.183152872852    -0.485463709478     1.007825032230
         H           -0.883677709759     4.183152872852    -0.485445709478     1.007825032230
         H            0.002097290241    -1.637747127148     0.009414290522     1.007825032230

  Basis Set: AUG-CC-PVTZ
    Blend: AUG-CC-PVTZ
  Basis Set: (AUG-CC-PVTZ AUX)
    Blend: AUG-CC-PVTZ-JKFIT
	 Reference Energy          =   -5413.5796637200792247 [Eh]
	 Singles Energy            =      -0.0000000000000000 [Eh]
	 Same-Spin Energy          =      -0.4886299876821453 [Eh]
	 Opposite-Spin Energy      =      -1.3653435262687394 [Eh]
	 Correlation Energy        =      -1.8539735139508848 [Eh]
	 Total Energy              =   -5415.4336372340303569 [Eh]

	 ================> DF-SCS-MP2 Energies <==================
	-----------------------------------------------------------
	 SCS Same-Spin Scale       =       0.3333333333333333 [-]
	 SCS Opposite-Spin Scale   =       1.2000000000000000 [-]
	 SCS Same-Spin Energy      =      -0.1628766625607151 [Eh]
	 SCS Opposite-Spin Energy  =      -1.6384122315224874 [Eh]
	 SCS Correlation Energy    =      -1.8012888940832024 [Eh]
	 SCS Total Energy          =   -5415.3809526141621973 [Eh]
	-----------------------------------------------------------

  Dipole Moment: [D]
     X:    -0.2177      Y:     2.0519      Z:     0.0363     Total:     2.0638

*** Psi4 exiting successfully. Buy a developer a beer!
