                               Psi4 1.4a3.dev225

  ==> Input File <==

--------------------------------------------------------------------------
#psi4
#
memory 32 gb

molecule  {
0 1
 Br        2.8426960    -0.9006560     0.0010230
 Br       -2.8426960    -0.9006560     0.0010230
  C        0.0000000     2.1518200    -0.0164640
  C       -1.2077220     1.4432500    -0.0102500
  C        1.2317022     1.4858197    -0.0089929
  C        0.0000000     3.6581740     0.0136870
  C        1.1904140     0.0494840    -0.0007470
  C       -1.1904140     0.0494850    -0.0007470
  C        0.0000000    -0.6761360     0.0051700
  H       -2.1574180     1.9720780    -0.0184260
  H        2.1574190     1.9720770    -0.0184250
  H        0.0000100     4.0273730     1.0446560
  H        0.8857670     4.0597820    -0.4855720
  H       -0.8857760     4.0597820    -0.4855540
  H       -0.0000010    -1.7611180     0.0093060
units angstrom
no_reorient  #important for SAPT in psi4, default
symmetry c1  #important for SAPT in psi4, default
}

set PROPERTIES_ORIGIN ["COM"]
properties('MP2/aug-cc-pvtz', properties = ['dipole'])
--------------------------------------------------------------------------

    Molecular point group: c1
  Charge       = 0
  Multiplicity = 1
  Basis Set: AUG-CC-PVTZ
    Blend: AUG-CC-PVTZ
  Basis Set: (AUG-CC-PVTZ AUX)
    Blend: AUG-CC-PVTZ-JKFIT

    Orbital Energies [Eh]
    ---------------------

    Doubly Occupied:

       1A   -490.032603     2A   -490.031586     3A    -65.172310
       4A    -65.171303     5A    -58.527634     6A    -58.526620
       7A    -58.526229     8A    -58.526196     9A    -58.525226
      10A    -58.525194    11A    -11.319791    12A    -11.316250
      13A    -11.272883    14A    -11.265048    15A    -11.260164
      16A    -11.259163    17A    -11.241509    18A     -9.845008
      19A     -9.844015    20A     -7.456641    21A     -7.455621
      22A     -7.449777    23A     -7.449716    24A     -7.448804
      25A     -7.448745    26A     -3.200434    27A     -3.199400
      28A     -3.196873    29A     -3.196641    30A     -3.195863
      31A     -3.195633    32A     -3.187875    33A     -3.187866
      34A     -3.186927    35A     -3.186917    36A     -1.191741
      37A     -1.093367    38A     -1.088881    39A     -1.004015
      40A     -0.976229    41A     -0.958148    42A     -0.819378
      43A     -0.808489    44A     -0.714186    45A     -0.675045
      46A     -0.603132    47A     -0.598241    48A     -0.595255
      49A     -0.585226    50A     -0.559060    51A     -0.539744
      52A     -0.506702    53A     -0.493203    54A     -0.466215
      55A     -0.425683    56A     -0.422956    57A     -0.419779
      58A     -0.347232    59A     -0.336551

  @DF-RHF Final Energy: -5413.57917247231944

   => Energetics <=

    Nuclear Repulsion Energy =            880.5653878582410243
    One-Electron Energy =               -9282.1672802735538426
    Two-Electron Energy =                2988.0227199429928078
    Total Energy =                      -5413.5791724723194420
  Basis Set: (AUG-CC-PVTZ AUX)
    Blend: AUG-CC-PVTZ-RI
    Molecular point group: c1

    Geometry (in Angstrom), charge = 0, multiplicity = 1:

       Center              X                  Y                   Z               Mass
    ------------   -----------------  -----------------  -----------------  -----------------
         BR           2.841535118932    -0.780552537808     0.001072680761    78.918337600000
         BR          -2.843856881068    -0.780552537808     0.001072680761    78.918337600000
         C           -0.001160881068     2.271923462192    -0.016414319239    12.000000000000
         C           -1.208882881068     1.563353462192    -0.010200319239    12.000000000000
         C            1.230541318932     1.605923162192    -0.008943219239    12.000000000000
         C           -0.001160881068     3.778277462192     0.013736680761    12.000000000000
         C            1.189253118932     0.169587462192    -0.000697319239    12.000000000000
         C           -1.191574881068     0.169588462192    -0.000697319239    12.000000000000
         C           -0.001160881068    -0.556032537808     0.005219680761    12.000000000000
         H           -2.158578881068     2.092181462192    -0.018376319239     1.007825032230
         H            2.156258118932     2.092180462192    -0.018375319239     1.007825032230
         H           -0.001150881068     4.147476462192     1.044705680761     1.007825032230
         H            0.884606118932     4.179885462192    -0.485522319239     1.007825032230
         H           -0.886936881068     4.179885462192    -0.485504319239     1.007825032230
         H           -0.001161881068    -1.641014537808     0.009355680761     1.007825032230

  Basis Set: AUG-CC-PVTZ
    Blend: AUG-CC-PVTZ
  Basis Set: (AUG-CC-PVTZ AUX)
    Blend: AUG-CC-PVTZ-JKFIT
	 Reference Energy          =   -5413.5791724723194420 [Eh]
	 Singles Energy            =      -0.0000000000000000 [Eh]
	 Same-Spin Energy          =      -0.4880562831778874 [Eh]
	 Opposite-Spin Energy      =      -1.3646779816973158 [Eh]
	 Correlation Energy        =      -1.8527342648752032 [Eh]
	 Total Energy              =   -5415.4319067371943675 [Eh]

	 ================> DF-SCS-MP2 Energies <==================
	-----------------------------------------------------------
	 SCS Same-Spin Scale       =       0.3333333333333333 [-]
	 SCS Opposite-Spin Scale   =       1.2000000000000000 [-]
	 SCS Same-Spin Energy      =      -0.1626854277259625 [Eh]
	 SCS Opposite-Spin Energy  =      -1.6376135780367789 [Eh]
	 SCS Correlation Energy    =      -1.8002990057627413 [Eh]
	 SCS Total Energy          =   -5415.3794714780824506 [Eh]
	-----------------------------------------------------------

  Dipole Moment: [D]
     X:    -0.0089      Y:     2.1500      Z:     0.0355     Total:     2.1503

*** Psi4 exiting successfully. Buy a developer a beer!
