                               Psi4 1.4a3.dev225

  ==> Input File <==

--------------------------------------------------------------------------
#psi4
#
memory 32 gb

molecule  {
0 1
 Br        2.8426960    -0.9006560     0.0010230
 Br       -2.8426960    -0.9006560     0.0010230
  C        0.0000000     2.1518200    -0.0164640
  C       -1.2077220     1.4432500    -0.0102500
  C        1.2077220     1.4432500    -0.0102500
  C        0.0000000     3.6581740     0.0136870
  C        1.1904140     0.0494840    -0.0007470
  C       -1.1904140     0.0494850    -0.0007470
  C        0.0000000    -0.6761360     0.0051700
  H       -2.1574180     1.9720780    -0.0184260
  H        2.1574190     1.9720770    -0.0184250
  H        0.0000109     4.0610873     1.1388014
  H        0.8857670     4.0597820    -0.4855720
  H       -0.8857760     4.0597820    -0.4855540
  H       -0.0000010    -1.7611180     0.0093060
units angstrom
no_reorient  #important for SAPT in psi4, default
symmetry c1  #important for SAPT in psi4, default
}

set PROPERTIES_ORIGIN ["COM"]
properties('MP2/aug-cc-pvtz', properties = ['dipole'])
--------------------------------------------------------------------------

    Molecular point group: c1
  Charge       = 0
  Multiplicity = 1
  Basis Set: AUG-CC-PVTZ
    Blend: AUG-CC-PVTZ
  Basis Set: (AUG-CC-PVTZ AUX)
    Blend: AUG-CC-PVTZ-JKFIT

    Orbital Energies [Eh]
    ---------------------

    Doubly Occupied:

       1A   -490.032178     2A   -490.032178     3A    -65.171884
       4A    -65.171884     5A    -58.527210     6A    -58.527210
       7A    -58.525802     8A    -58.525802     9A    -58.525772
      10A    -58.525772    11A    -11.315219    12A    -11.315210
      13A    -11.273194    14A    -11.265182    15A    -11.259338
      16A    -11.259277    17A    -11.254363    18A     -9.844583
      19A     -9.844582    20A     -7.456219    21A     -7.456219
      22A     -7.449345    23A     -7.449345    24A     -7.449296
      25A     -7.449296    26A     -3.200012    27A     -3.200011
      28A     -3.196444    29A     -3.196444    30A     -3.196225
      31A     -3.196224    32A     -3.187447    33A     -3.187447
      34A     -3.187438    35A     -3.187437    36A     -1.195298
      37A     -1.095419    38A     -1.087577    39A     -1.003767
      40A     -0.977105    41A     -0.954303    42A     -0.816714
      43A     -0.811310    44A     -0.709116    45A     -0.678064
      46A     -0.604523    47A     -0.589561    48A     -0.583398
      49A     -0.582424    50A     -0.561364    51A     -0.536841
      52A     -0.510570    53A     -0.491664    54A     -0.467506
      55A     -0.426193    56A     -0.422716    57A     -0.420058
      58A     -0.345264    59A     -0.340013

  @DF-RHF Final Energy: -5413.57656070642406

   => Energetics <=

    Nuclear Repulsion Energy =            881.1608248349774613
    One-Electron Energy =               -9283.3702528449375677
    Two-Electron Energy =                2988.6328673035372958
    Total Energy =                      -5413.5765607064240612
  Basis Set: (AUG-CC-PVTZ AUX)
    Blend: AUG-CC-PVTZ-RI
    Molecular point group: c1

    Geometry (in Angstrom), charge = 0, multiplicity = 1:

       Center              X                  Y                   Z               Mass
    ------------   -----------------  -----------------  -----------------  -----------------
         BR           2.842695992275    -0.778628819435     0.000750768046    78.918337600000
         BR          -2.842696007725    -0.778628819435     0.000750768046    78.918337600000
         C           -0.000000007725     2.273847180565    -0.016736231954    12.000000000000
         C           -1.207722007725     1.565277180565    -0.010522231954    12.000000000000
         C            1.207721992275     1.565277180565    -0.010522231954    12.000000000000
         C           -0.000000007725     3.780201180565     0.013414768046    12.000000000000
         C            1.190413992275     0.171511180565    -0.001019231954    12.000000000000
         C           -1.190414007725     0.171512180565    -0.001019231954    12.000000000000
         C           -0.000000007725    -0.554108819435     0.004897768046    12.000000000000
         H           -2.157418007725     2.094105180565    -0.018698231954     1.007825032230
         H            2.157418992275     2.094104180565    -0.018697231954     1.007825032230
         H            0.000010892275     4.183114480565     1.138529168046     1.007825032230
         H            0.885766992275     4.181809180565    -0.485844231954     1.007825032230
         H           -0.885776007725     4.181809180565    -0.485826231954     1.007825032230
         H           -0.000001007725    -1.639090819435     0.009033768046     1.007825032230

  Basis Set: AUG-CC-PVTZ
    Blend: AUG-CC-PVTZ
  Basis Set: (AUG-CC-PVTZ AUX)
    Blend: AUG-CC-PVTZ-JKFIT
	 Reference Energy          =   -5413.5765607064240612 [Eh]
	 Singles Energy            =      -0.0000000000000000 [Eh]
	 Same-Spin Energy          =      -0.4880333189401551 [Eh]
	 Opposite-Spin Energy      =      -1.3649627777629965 [Eh]
	 Correlation Energy        =      -1.8529960967031516 [Eh]
	 Total Energy              =   -5415.4295568031275252 [Eh]

	 ================> DF-SCS-MP2 Energies <==================
	-----------------------------------------------------------
	 SCS Same-Spin Scale       =       0.3333333333333333 [-]
	 SCS Opposite-Spin Scale   =       1.2000000000000000 [-]
	 SCS Same-Spin Energy      =      -0.1626777729800517 [Eh]
	 SCS Opposite-Spin Energy  =      -1.6379553333155956 [Eh]
	 SCS Correlation Energy    =      -1.8006331062956473 [Eh]
	 SCS Total Energy          =   -5415.3771938127192698 [Eh]
	-----------------------------------------------------------

  Dipole Moment: [D]
     X:     0.0000      Y:     2.1359      Z:     0.0040     Total:     2.1359

*** Psi4 exiting successfully. Buy a developer a beer!
