                               Psi4 1.4a3.dev225

  ==> Input File <==

--------------------------------------------------------------------------
#psi4
#
memory 32 gb

molecule  {
0 1
 Br        2.8426960    -0.9006560     0.0010230
 Br       -2.8426960    -0.9006560     0.0010230
  C        0.0000000     2.1518200    -0.0164640
  C       -1.2077220     1.4432500    -0.0102500
  C        1.1645968     1.4685515    -0.0104719
  C        0.0000000     3.6581740     0.0136870
  C        1.1904140     0.0494840    -0.0007470
  C       -1.1904140     0.0494850    -0.0007470
  C        0.0000000    -0.6761360     0.0051700
  H       -2.1574180     1.9720780    -0.0184260
  H        2.1574190     1.9720770    -0.0184250
  H        0.0000100     4.0273730     1.0446560
  H        0.8857670     4.0597820    -0.4855720
  H       -0.8857760     4.0597820    -0.4855540
  H       -0.0000010    -1.7611180     0.0093060
units angstrom
no_reorient  #important for SAPT in psi4, default
symmetry c1  #important for SAPT in psi4, default
}

set PROPERTIES_ORIGIN ["COM"]
properties('MP2/aug-cc-pvtz', properties = ['dipole'])
--------------------------------------------------------------------------

    Molecular point group: c1
  Charge       = 0
  Multiplicity = 1
  Basis Set: AUG-CC-PVTZ
    Blend: AUG-CC-PVTZ
  Basis Set: (AUG-CC-PVTZ AUX)
    Blend: AUG-CC-PVTZ-JKFIT

    Orbital Energies [Eh]
    ---------------------

    Doubly Occupied:

       1A   -490.034179     2A   -490.031600     3A    -65.173817
       4A    -65.171307     5A    -58.529158     6A    -58.527734
       7A    -58.527703     8A    -58.526633     9A    -58.525225
      10A    -58.525197    11A    -11.316656    12A    -11.314035
      13A    -11.265595    14A    -11.264948    15A    -11.259159
      16A    -11.257588    17A    -11.241889    18A     -9.846454
      19A     -9.844006    20A     -7.458114    21A     -7.455641
      22A     -7.451190    23A     -7.451134    24A     -7.448767
      25A     -7.448727    26A     -3.201938    27A     -3.199431
      28A     -3.198345    29A     -3.198117    30A     -3.195862
      31A     -3.195652    32A     -3.189260    33A     -3.189252
      34A     -3.186875    35A     -3.186866    36A     -1.196848
      37A     -1.093985    38A     -1.091749    39A     -1.004671
      40A     -0.976028    41A     -0.958876    42A     -0.819471
      43A     -0.811914    44A     -0.706044    45A     -0.678533
      46A     -0.605252    47A     -0.598511    48A     -0.587248
      49A     -0.577026    50A     -0.558747    51A     -0.541481
      52A     -0.509171    53A     -0.493446    54A     -0.466703
      55A     -0.426712    56A     -0.425826    57A     -0.420261
      58A     -0.350277    59A     -0.336878

  @DF-RHF Final Energy: -5413.57989439852554

   => Energetics <=

    Nuclear Repulsion Energy =            881.6914153253254653
    One-Electron Energy =               -9284.3951927233010792
    Two-Electron Energy =                2989.1238829994504158
    Total Energy =                      -5413.5798943985246297
  Basis Set: (AUG-CC-PVTZ AUX)
    Blend: AUG-CC-PVTZ-RI
    Molecular point group: c1

    Geometry (in Angstrom), charge = 0, multiplicity = 1:

       Center              X                  Y                   Z               Mass
    ------------   -----------------  -----------------  -----------------  -----------------
         BR           2.844783678810    -0.779716587471     0.001144278875    78.918337600000
         BR          -2.840608321190    -0.779716587471     0.001144278875    78.918337600000
         C            0.002087678810     2.272759412529    -0.016342721125    12.000000000000
         C           -1.205634321190     1.564189412529    -0.010128721125    12.000000000000
         C            1.166684478810     1.589490912529    -0.010350621125    12.000000000000
         C            0.002087678810     3.779113412529     0.013808278875    12.000000000000
         C            1.192501678810     0.170423412529    -0.000625721125    12.000000000000
         C           -1.188326321190     0.170424412529    -0.000625721125    12.000000000000
         C            0.002087678810    -0.555196587471     0.005291278875    12.000000000000
         H           -2.155330321190     2.093017412529    -0.018304721125     1.007825032230
         H            2.159506678810     2.093016412529    -0.018303721125     1.007825032230
         H            0.002097678810     4.148312412529     1.044777278875     1.007825032230
         H            0.887854678810     4.180721412529    -0.485450721125     1.007825032230
         H           -0.883688321190     4.180721412529    -0.485432721125     1.007825032230
         H            0.002086678810    -1.640178587471     0.009427278875     1.007825032230

  Basis Set: AUG-CC-PVTZ
    Blend: AUG-CC-PVTZ
  Basis Set: (AUG-CC-PVTZ AUX)
    Blend: AUG-CC-PVTZ-JKFIT
	 Reference Energy          =   -5413.5798943985255391 [Eh]
	 Singles Energy            =      -0.0000000000000000 [Eh]
	 Same-Spin Energy          =      -0.4880165481883948 [Eh]
	 Opposite-Spin Energy      =      -1.3644582008039912 [Eh]
	 Correlation Energy        =      -1.8524747489923858 [Eh]
	 Total Energy              =   -5415.4323691475183296 [Eh]

	 ================> DF-SCS-MP2 Energies <==================
	-----------------------------------------------------------
	 SCS Same-Spin Scale       =       0.3333333333333333 [-]
	 SCS Opposite-Spin Scale   =       1.2000000000000000 [-]
	 SCS Same-Spin Energy      =      -0.1626721827294649 [Eh]
	 SCS Opposite-Spin Energy  =      -1.6373498409647893 [Eh]
	 SCS Correlation Energy    =      -1.8000220236942541 [Eh]
	 SCS Total Energy          =   -5415.3799164222200488 [Eh]
	-----------------------------------------------------------

  Dipole Moment: [D]
     X:     0.0638      Y:     2.0964      Z:     0.0355     Total:     2.0977

*** Psi4 exiting successfully. Buy a developer a beer!
