                               Psi4 1.4a3.dev225

  ==> Input File <==

--------------------------------------------------------------------------
#psi4
#
memory 32 gb

molecule  {
0 1
 Br        2.8426960    -0.9006560     0.0010230
 Br       -2.8426960    -0.9006560     0.0010230
  C        0.0000000     2.1518200    -0.0164640
  C       -1.2077220     1.4432500    -0.0102500
  C        1.2077220     1.4432500    -0.0102500
  C        0.0000000     3.6581740     0.0136870
  C        1.1904140     0.0494840    -0.0007470
  C       -1.1904140     0.0494850    -0.0007470
  C        0.0000000    -0.6761360     0.0051700
  H       -2.1574180     1.9720780    -0.0184260
  H        2.1574190     1.9720770    -0.0184250
  H        0.0000100     4.0273730     1.0446560
  H        0.8452552     4.0414139    -0.4627377
  H       -0.8857760     4.0597820    -0.4855540
  H       -0.0000010    -1.7611180     0.0093060
units angstrom
no_reorient  #important for SAPT in psi4, default
symmetry c1  #important for SAPT in psi4, default
}

set PROPERTIES_ORIGIN ["COM"]
properties('MP2/aug-cc-pvtz', properties = ['dipole'])
--------------------------------------------------------------------------

    Molecular point group: c1
  Charge       = 0
  Multiplicity = 1
  Basis Set: AUG-CC-PVTZ
    Blend: AUG-CC-PVTZ
  Basis Set: (AUG-CC-PVTZ AUX)
    Blend: AUG-CC-PVTZ-JKFIT

    Orbital Energies [Eh]
    ---------------------

    Doubly Occupied:

       1A   -490.031917     2A   -490.031844     3A    -65.171625
       4A    -65.171552     5A    -58.526950     6A    -58.526877
       7A    -58.525543     8A    -58.525514     9A    -58.525470
      10A    -58.525440    11A    -11.314898    12A    -11.314798
      13A    -11.272119    14A    -11.264635    15A    -11.258777
      16A    -11.258515    17A    -11.236878    18A     -9.844324
      19A     -9.844251    20A     -7.455958    21A     -7.455885
      22A     -7.449089    23A     -7.449040    24A     -7.449017
      25A     -7.448966    26A     -3.199749    27A     -3.199675
      28A     -3.196184    29A     -3.196111    30A     -3.195964
      31A     -3.195890    32A     -3.187193    33A     -3.187183
      34A     -3.187120    35A     -3.187111    36A     -1.194926
      37A     -1.095040    38A     -1.089150    39A     -1.004860
      40A     -0.976690    41A     -0.962487    42A     -0.816423
      43A     -0.814605    44A     -0.708972    45A     -0.678254
      46A     -0.605368    47A     -0.599374    48A     -0.588421
      49A     -0.583008    50A     -0.565989    51A     -0.542166
      52A     -0.510505    53A     -0.491460    54A     -0.467187
      55A     -0.425901    56A     -0.423187    57A     -0.419772
      58A     -0.345629    59A     -0.339645

  @DF-RHF Final Energy: -5413.58205884362724

   => Energetics <=

    Nuclear Repulsion Energy =            881.8417199775378776
    One-Electron Energy =               -9284.7253966450043663
    Two-Electron Energy =                2989.3016178238394787
    Total Energy =                      -5413.5820588436272374
  Basis Set: (AUG-CC-PVTZ AUX)
    Blend: AUG-CC-PVTZ-RI
    Molecular point group: c1

    Geometry (in Angstrom), charge = 0, multiplicity = 1:

       Center              X                  Y                   Z               Mass
    ------------   -----------------  -----------------  -----------------  -----------------
         BR           2.842860705507    -0.778417067060     0.001040698902    78.918337600000
         BR          -2.842531294493    -0.778417067060     0.001040698902    78.918337600000
         C            0.000164705507     2.274058932940    -0.016446301098    12.000000000000
         C           -1.207557294493     1.565488932940    -0.010232301098    12.000000000000
         C            1.207886705507     1.565488932940    -0.010232301098    12.000000000000
         C            0.000164705507     3.780412932940     0.013704698902    12.000000000000
         C            1.190578705507     0.171722932940    -0.000729301098    12.000000000000
         C           -1.190249294493     0.171723932940    -0.000729301098    12.000000000000
         C            0.000164705507    -0.553897067060     0.005187698902    12.000000000000
         H           -2.157253294493     2.094316932940    -0.018408301098     1.007825032230
         H            2.157583705507     2.094315932940    -0.018407301098     1.007825032230
         H            0.000174705507     4.149611932940     1.044673698902     1.007825032230
         H            0.845419905507     4.163652832940    -0.462720001098     1.007825032230
         H           -0.885611294493     4.182020932940    -0.485536301098     1.007825032230
         H            0.000163705507    -1.638879067060     0.009323698902     1.007825032230

  Basis Set: AUG-CC-PVTZ
    Blend: AUG-CC-PVTZ
  Basis Set: (AUG-CC-PVTZ AUX)
    Blend: AUG-CC-PVTZ-JKFIT
	 Reference Energy          =   -5413.5820588436272374 [Eh]
	 Singles Energy            =      -0.0000000000000000 [Eh]
	 Same-Spin Energy          =      -0.4880319337334381 [Eh]
	 Opposite-Spin Energy      =      -1.3639976842647339 [Eh]
	 Correlation Energy        =      -1.8520296179981721 [Eh]
	 Total Energy              =   -5415.4340884616258336 [Eh]

	 ================> DF-SCS-MP2 Energies <==================
	-----------------------------------------------------------
	 SCS Same-Spin Scale       =       0.3333333333333333 [-]
	 SCS Opposite-Spin Scale   =       1.2000000000000000 [-]
	 SCS Same-Spin Energy      =      -0.1626773112444794 [Eh]
	 SCS Opposite-Spin Energy  =      -1.6367972211176807 [Eh]
	 SCS Correlation Energy    =      -1.7994745323621599 [Eh]
	 SCS Total Energy          =   -5415.3815333759894202 [Eh]
	-----------------------------------------------------------

  Dipole Moment: [D]
     X:     0.0133      Y:     2.1976      Z:     0.0300     Total:     2.1979

*** Psi4 exiting successfully. Buy a developer a beer!
