                               Psi4 1.4a3.dev225

  ==> Input File <==

--------------------------------------------------------------------------
#psi4
#
memory 32 gb

molecule  {
0 1
 Br        2.8258622    -0.9293471     0.0012007
 Br       -2.8426960    -0.9006560     0.0010230
  C        0.0000000     2.1518200    -0.0164640
  C       -1.2077220     1.4432500    -0.0102500
  C        1.2077220     1.4432500    -0.0102500
  C        0.0000000     3.6581740     0.0136870
  C        1.1904140     0.0494840    -0.0007470
  C       -1.1904140     0.0494850    -0.0007470
  C        0.0000000    -0.6761360     0.0051700
  H       -2.1574180     1.9720780    -0.0184260
  H        2.1574190     1.9720770    -0.0184250
  H        0.0000100     4.0273730     1.0446560
  H        0.8857670     4.0597820    -0.4855720
  H       -0.8857760     4.0597820    -0.4855540
  H       -0.0000010    -1.7611180     0.0093060
units angstrom
no_reorient  #important for SAPT in psi4, default
symmetry c1  #important for SAPT in psi4, default
}

set PROPERTIES_ORIGIN ["COM"]
properties('MP2/aug-cc-pvtz', properties = ['dipole'])
--------------------------------------------------------------------------

    Molecular point group: c1
  Charge       = 0
  Multiplicity = 1
  Basis Set: AUG-CC-PVTZ
    Blend: AUG-CC-PVTZ
  Basis Set: (AUG-CC-PVTZ AUX)
    Blend: AUG-CC-PVTZ-JKFIT

    Orbital Energies [Eh]
    ---------------------

    Doubly Occupied:

       1A   -490.031965     2A   -490.031870     3A    -65.171673
       4A    -65.171579     5A    -58.526999     6A    -58.526903
       7A    -58.525591     8A    -58.525562     9A    -58.525497
      10A    -58.525468    11A    -11.314961    12A    -11.314806
      13A    -11.272658    14A    -11.264425    15A    -11.259188
      16A    -11.258823    17A    -11.243005    18A     -9.844373
      19A     -9.844278    20A     -7.456008    21A     -7.455912
      22A     -7.449137    23A     -7.449087    24A     -7.449045
      25A     -7.448995    26A     -3.199800    27A     -3.199702
      28A     -3.196234    29A     -3.196138    30A     -3.196014
      31A     -3.195917    32A     -3.187239    33A     -3.187230
      34A     -3.187149    35A     -3.187140    36A     -1.195023
      37A     -1.094964    38A     -1.088665    39A     -1.004038
      40A     -0.977121    41A     -0.959235    42A     -0.816265
      43A     -0.813442    44A     -0.708996    45A     -0.677581
      46A     -0.604276    47A     -0.598018    48A     -0.588215
      49A     -0.583131    50A     -0.560052    51A     -0.541991
      52A     -0.510877    53A     -0.491173    54A     -0.467170
      55A     -0.426016    56A     -0.423314    57A     -0.419717
      58A     -0.345509    59A     -0.339893

  @DF-RHF Final Energy: -5413.58293664127359

   => Energetics <=

    Nuclear Repulsion Energy =            881.8648465500691600
    One-Electron Energy =               -9284.7854575737383129
    Two-Electron Energy =                2989.3376743823964716
    Total Energy =                      -5413.5829366412735908
  Basis Set: (AUG-CC-PVTZ AUX)
    Blend: AUG-CC-PVTZ-RI
    Molecular point group: c1

    Geometry (in Angstrom), charge = 0, multiplicity = 1:

       Center              X                  Y                   Z               Mass
    ------------   -----------------  -----------------  -----------------  -----------------
         BR           2.831221547563    -0.798048504158     0.001254662655    78.918337600000
         BR          -2.837336652437    -0.769357404158     0.001076962655    78.918337600000
         C            0.005359347563     2.283118595842    -0.016410037345    12.000000000000
         C           -1.202362652437     1.574548595842    -0.010196037345    12.000000000000
         C            1.213081347563     1.574548595842    -0.010196037345    12.000000000000
         C            0.005359347563     3.789472595842     0.013740962655    12.000000000000
         C            1.195773347563     0.180782595842    -0.000693037345    12.000000000000
         C           -1.185054652437     0.180783595842    -0.000693037345    12.000000000000
         C            0.005359347563    -0.544837404158     0.005223962655    12.000000000000
         H           -2.152058652437     2.103376595842    -0.018372037345     1.007825032230
         H            2.162778347563     2.103375595842    -0.018371037345     1.007825032230
         H            0.005369347563     4.158671595842     1.044709962655     1.007825032230
         H            0.891126347563     4.191080595842    -0.485518037345     1.007825032230
         H           -0.880416652437     4.191080595842    -0.485500037345     1.007825032230
         H            0.005358347563    -1.629819404158     0.009359962655     1.007825032230

  Basis Set: AUG-CC-PVTZ
    Blend: AUG-CC-PVTZ
  Basis Set: (AUG-CC-PVTZ AUX)
    Blend: AUG-CC-PVTZ-JKFIT
	 Reference Energy          =   -5413.5829366412735908 [Eh]
	 Singles Energy            =      -0.0000000000000000 [Eh]
	 Same-Spin Energy          =      -0.4880424961072396 [Eh]
	 Opposite-Spin Energy      =      -1.3642923112233574 [Eh]
	 Correlation Energy        =      -1.8523348073305970 [Eh]
	 Total Energy              =   -5415.4352714486039986 [Eh]

	 ================> DF-SCS-MP2 Energies <==================
	-----------------------------------------------------------
	 SCS Same-Spin Scale       =       0.3333333333333333 [-]
	 SCS Opposite-Spin Scale   =       1.2000000000000000 [-]
	 SCS Same-Spin Energy      =      -0.1626808320357465 [Eh]
	 SCS Opposite-Spin Energy  =      -1.6371507734680288 [Eh]
	 SCS Correlation Energy    =      -1.7998316055037753 [Eh]
	 SCS Total Energy          =   -5415.3827682467772320 [Eh]
	-----------------------------------------------------------

  Dipole Moment: [D]
     X:     0.0067      Y:     2.1884      Z:     0.0364     Total:     2.1887

*** Psi4 exiting successfully. Buy a developer a beer!
