                               Psi4 1.4a3.dev225

  ==> Input File <==

--------------------------------------------------------------------------
#psi4
#
memory 32 gb

molecule  {
0 1
 Br        2.8426960    -0.9006560     0.0010230
 Br       -2.8426960    -0.9006560     0.0010230
  C        0.0000000     2.1518200    -0.0164640
  C       -1.2077220     1.4432500    -0.0102500
  C        1.2077220     1.4432500    -0.0102500
  C        0.0000000     3.6581740     0.0136870
  C        1.1904140     0.0494840    -0.0007470
  C       -1.0170364     0.1491854    -0.0009327
  C        0.0000000    -0.6761360     0.0051700
  H       -2.1574180     1.9720780    -0.0184260
  H        2.1574190     1.9720770    -0.0184250
  H        0.0000100     4.0273730     1.0446560
  H        0.8857670     4.0597820    -0.4855720
  H       -0.8857760     4.0597820    -0.4855540
  H       -0.0000010    -1.7611180     0.0093060
units angstrom
no_reorient  #important for SAPT in psi4, default
symmetry c1  #important for SAPT in psi4, default
}

set PROPERTIES_ORIGIN ["COM"]
properties('MP2/aug-cc-pvtz', properties = ['dipole'])
--------------------------------------------------------------------------

    Molecular point group: c1
  Charge       = 0
  Multiplicity = 1
  Basis Set: AUG-CC-PVTZ
    Blend: AUG-CC-PVTZ
  Basis Set: (AUG-CC-PVTZ AUX)
    Blend: AUG-CC-PVTZ-JKFIT

    Orbital Energies [Eh]
    ---------------------

    Doubly Occupied:

       1A   -490.037428     2A   -490.005758     3A    -65.177156
       4A    -65.145226     5A    -58.532475     6A    -58.531074
       7A    -58.531032     8A    -58.500507     9A    -58.499182
      10A    -58.499168    11A    -11.324873    12A    -11.319138
      13A    -11.282233    14A    -11.266232    15A    -11.263623
      16A    -11.259402    17A    -11.248458    18A     -9.849868
      19A     -9.817262    20A     -7.461493    21A     -7.454652
      22A     -7.454553    23A     -7.428252    24A     -7.422244
      25A     -7.422204    26A     -3.205279    27A     -3.201739
      28A     -3.201470    29A     -3.192737    30A     -3.192727
      31A     -3.171632    32A     -3.168704    33A     -3.168643
      34A     -3.160739    35A     -3.160730    36A     -1.224608
      37A     -1.105736    38A     -1.087882    39A     -1.004813
      40A     -0.980105    41A     -0.966362    42A     -0.825677
      43A     -0.819481    44A     -0.726879    45A     -0.698980
      46A     -0.625740    47A     -0.607432    48A     -0.602532
      49A     -0.582548    50A     -0.563067    51A     -0.559792
      52A     -0.517042    53A     -0.465161    54A     -0.446471
      55A     -0.425480    56A     -0.413156    57A     -0.402895
      58A     -0.360348    59A     -0.353571

  @DF-RHF Final Energy: -5413.55274871980964

   => Energetics <=

    Nuclear Repulsion Energy =            880.8800409609262942
    One-Electron Energy =               -9283.0182787058747635
    Two-Electron Energy =                2988.5854890251384859
    Total Energy =                      -5413.5527487198096424
  Basis Set: (AUG-CC-PVTZ AUX)
    Blend: AUG-CC-PVTZ-RI
    Molecular point group: c1

    Geometry (in Angstrom), charge = 0, multiplicity = 1:

       Center              X                  Y                   Z               Mass
    ------------   -----------------  -----------------  -----------------  -----------------
         BR           2.834302818706    -0.783318224323     0.001142526440    78.918337600000
         BR          -2.851089181294    -0.783318224323     0.001142526440    78.918337600000
         C           -0.008393181294     2.269157775677    -0.016344473560    12.000000000000
         C           -1.216115181294     1.560587775677    -0.010130473560    12.000000000000
         C            1.199328818706     1.560587775677    -0.010130473560    12.000000000000
         C           -0.008393181294     3.775511775677     0.013806526440    12.000000000000
         C            1.182020818706     0.166821775677    -0.000627473560    12.000000000000
         C           -1.025429581294     0.266523175677    -0.000813173560    12.000000000000
         C           -0.008393181294    -0.558798224323     0.005289526440    12.000000000000
         H           -2.165811181294     2.089415775677    -0.018306473560     1.007825032230
         H            2.149025818706     2.089414775677    -0.018305473560     1.007825032230
         H           -0.008383181294     4.144710775677     1.044775526440     1.007825032230
         H            0.877373818706     4.177119775677    -0.485452473560     1.007825032230
         H           -0.894169181294     4.177119775677    -0.485434473560     1.007825032230
         H           -0.008394181294    -1.643780224323     0.009425526440     1.007825032230

  Basis Set: AUG-CC-PVTZ
    Blend: AUG-CC-PVTZ
  Basis Set: (AUG-CC-PVTZ AUX)
    Blend: AUG-CC-PVTZ-JKFIT
	 Reference Energy          =   -5413.5527487198096424 [Eh]
	 Singles Energy            =      -0.0000000000000000 [Eh]
	 Same-Spin Energy          =      -0.4878206830507096 [Eh]
	 Opposite-Spin Energy      =      -1.3629611530889720 [Eh]
	 Correlation Energy        =      -1.8507818361396815 [Eh]
	 Total Energy              =   -5415.4035305559491462 [Eh]

	 ================> DF-SCS-MP2 Energies <==================
	-----------------------------------------------------------
	 SCS Same-Spin Scale       =       0.3333333333333333 [-]
	 SCS Opposite-Spin Scale   =       1.2000000000000000 [-]
	 SCS Same-Spin Energy      =      -0.1626068943502365 [Eh]
	 SCS Opposite-Spin Energy  =      -1.6355533837067664 [Eh]
	 SCS Correlation Energy    =      -1.7981602780570030 [Eh]
	 SCS Total Energy          =   -5415.3509089978670090 [Eh]
	-----------------------------------------------------------

  Dipole Moment: [D]
     X:     1.0382      Y:     2.7853      Z:     0.0375     Total:     2.9728

*** Psi4 exiting successfully. Buy a developer a beer!
