                               Psi4 1.4a3.dev225

  ==> Input File <==

--------------------------------------------------------------------------
#psi4
#
memory 32 gb

molecule  {
0 1
 Br        2.8426960    -0.9006560     0.0010230
 Br       -2.8426960    -0.9006560     0.0010230
  C       -0.0456304     2.1522148     0.0096774
  C       -1.2077220     1.4432500    -0.0102500
  C        1.2077220     1.4432500    -0.0102500
  C        0.0000000     3.6581740     0.0136870
  C        1.1904140     0.0494840    -0.0007470
  C       -1.1904140     0.0494850    -0.0007470
  C        0.0000000    -0.6761360     0.0051700
  H       -2.1574180     1.9720780    -0.0184260
  H        2.1574190     1.9720770    -0.0184250
  H        0.0000100     4.0273730     1.0446560
  H        0.8857670     4.0597820    -0.4855720
  H       -0.8857760     4.0597820    -0.4855540
  H       -0.0000010    -1.7611180     0.0093060
units angstrom
no_reorient  #important for SAPT in psi4, default
symmetry c1  #important for SAPT in psi4, default
}

set PROPERTIES_ORIGIN ["COM"]
properties('MP2/aug-cc-pvtz', properties = ['dipole'])
--------------------------------------------------------------------------

    Molecular point group: c1
  Charge       = 0
  Multiplicity = 1
  Basis Set: AUG-CC-PVTZ
    Blend: AUG-CC-PVTZ
  Basis Set: (AUG-CC-PVTZ AUX)
    Blend: AUG-CC-PVTZ-JKFIT

    Orbital Energies [Eh]
    ---------------------

    Doubly Occupied:

       1A   -490.032319     2A   -490.031524     3A    -65.172016
       4A    -65.171241     5A    -58.527343     6A    -58.526564
       7A    -58.525935     8A    -58.525903     9A    -58.525159
      10A    -58.525131    11A    -11.315395    12A    -11.314362
      13A    -11.272331    14A    -11.264733    15A    -11.262578
      16A    -11.254590    17A    -11.243057    18A     -9.844707
      19A     -9.843948    20A     -7.456345    21A     -7.455579
      22A     -7.449472    23A     -7.449412    24A     -7.448714
      25A     -7.448673    26A     -3.200142    27A     -3.199364
      28A     -3.196579    29A     -3.196344    30A     -3.195797
      31A     -3.195590    32A     -3.187565    33A     -3.187556
      34A     -3.186827    35A     -3.186818    36A     -1.195170
      37A     -1.095930    38A     -1.087994    39A     -1.004304
      40A     -0.977179    41A     -0.958923    42A     -0.820351
      43A     -0.809275    44A     -0.708987    45A     -0.677216
      46A     -0.605818    47A     -0.598183    48A     -0.588217
      49A     -0.582099    50A     -0.560260    51A     -0.542026
      52A     -0.511129    53A     -0.489470    54A     -0.467251
      55A     -0.425907    56A     -0.423379    57A     -0.419765
      58A     -0.348439    59A     -0.337204

  @DF-RHF Final Energy: -5413.58036519894449

   => Energetics <=

    Nuclear Repulsion Energy =            881.6125833502381965
    One-Electron Energy =               -9284.2777197098821489
    Two-Electron Energy =                2989.0847711606998018
    Total Energy =                      -5413.5803651989444916
  Basis Set: (AUG-CC-PVTZ AUX)
    Blend: AUG-CC-PVTZ-RI
    Molecular point group: c1

    Geometry (in Angstrom), charge = 0, multiplicity = 1:

       Center              X                  Y                   Z               Mass
    ------------   -----------------  -----------------  -----------------  -----------------
         BR           2.844904955074    -0.778510858777    -0.000131963553    78.918337600000
         BR          -2.840487044926    -0.778510858777    -0.000131963553    78.918337600000
         C           -0.043421444926     2.274359941223     0.008522436447    12.000000000000
         C           -1.205513044926     1.565395141223    -0.011404963553    12.000000000000
         C            1.209930955074     1.565395141223    -0.011404963553    12.000000000000
         C            0.002208955074     3.780319141223     0.012532036447    12.000000000000
         C            1.192622955074     0.171629141223    -0.001901963553    12.000000000000
         C           -1.188205044926     0.171630141223    -0.001901963553    12.000000000000
         C            0.002208955074    -0.553990858777     0.004015036447    12.000000000000
         H           -2.155209044926     2.094223141223    -0.019580963553     1.007825032230
         H            2.159627955074     2.094222141223    -0.019579963553     1.007825032230
         H            0.002218955074     4.149518141223     1.043501036447     1.007825032230
         H            0.887975955074     4.181927141223    -0.486726963553     1.007825032230
         H           -0.883567044926     4.181927141223    -0.486708963553     1.007825032230
         H            0.002207955074    -1.638972858777     0.008151036447     1.007825032230

  Basis Set: AUG-CC-PVTZ
    Blend: AUG-CC-PVTZ
  Basis Set: (AUG-CC-PVTZ AUX)
    Blend: AUG-CC-PVTZ-JKFIT
	 Reference Energy          =   -5413.5803651989444916 [Eh]
	 Singles Energy            =      -0.0000000000000000 [Eh]
	 Same-Spin Energy          =      -0.4879615208205569 [Eh]
	 Opposite-Spin Energy      =      -1.3643903384410445 [Eh]
	 Correlation Energy        =      -1.8523518592616015 [Eh]
	 Total Energy              =   -5415.4327170582064355 [Eh]

	 ================> DF-SCS-MP2 Energies <==================
	-----------------------------------------------------------
	 SCS Same-Spin Scale       =       0.3333333333333333 [-]
	 SCS Opposite-Spin Scale   =       1.2000000000000000 [-]
	 SCS Same-Spin Energy      =      -0.1626538402735190 [Eh]
	 SCS Opposite-Spin Energy  =      -1.6372684061292533 [Eh]
	 SCS Correlation Energy    =      -1.7999222464027722 [Eh]
	 SCS Total Energy          =   -5415.3802874453476761 [Eh]
	-----------------------------------------------------------

  Dipole Moment: [D]
     X:    -0.0257      Y:     2.1878      Z:     0.0292     Total:     2.1881

*** Psi4 exiting successfully. Buy a developer a beer!
