                               Psi4 1.4a3.dev225

  ==> Input File <==

--------------------------------------------------------------------------
#psi4
#
memory 32 gb

molecule  {
0 1
 Br        2.8426960    -0.9006560     0.0010230
 Br       -2.8426960    -0.9006560     0.0010230
  C        0.0000000     2.1518200    -0.0164640
  C       -1.2077220     1.4432500    -0.0102500
  C        1.2077220     1.4432500    -0.0102500
  C        0.0000000     3.6581740     0.0136870
  C        1.1904140     0.0494840    -0.0007470
  C       -1.1904140     0.0494850    -0.0007470
  C        0.0000000    -0.6761360     0.0051700
  H       -2.2011008     1.9964023    -0.0188021
  H        2.1574190     1.9720770    -0.0184250
  H        0.0000100     4.0273730     1.0446560
  H        0.8857670     4.0597820    -0.4855720
  H       -0.8857760     4.0597820    -0.4855540
  H       -0.0000010    -1.7611180     0.0093060
units angstrom
no_reorient  #important for SAPT in psi4, default
symmetry c1  #important for SAPT in psi4, default
}

set PROPERTIES_ORIGIN ["COM"]
properties('MP2/aug-cc-pvtz', properties = ['dipole'])
--------------------------------------------------------------------------

    Molecular point group: c1
  Charge       = 0
  Multiplicity = 1
  Basis Set: AUG-CC-PVTZ
    Blend: AUG-CC-PVTZ
  Basis Set: (AUG-CC-PVTZ AUX)
    Blend: AUG-CC-PVTZ-JKFIT

    Orbital Energies [Eh]
    ---------------------

    Doubly Occupied:

       1A   -490.032060     2A   -490.031927     3A    -65.171767
       4A    -65.171633     5A    -58.527093     6A    -58.526959
       7A    -58.525685     8A    -58.525656     9A    -58.525551
      10A    -58.525520    11A    -11.315319    12A    -11.315059
      13A    -11.272881    14A    -11.265054    15A    -11.264267
      16A    -11.259134    17A    -11.242842    18A     -9.844466
      19A     -9.844331    20A     -7.456102    21A     -7.455971
      22A     -7.449230    23A     -7.449181    24A     -7.449093
      25A     -7.449040    26A     -3.199894    27A     -3.199766
      28A     -3.196327    29A     -3.196198    30A     -3.196107
      31A     -3.195972    32A     -3.187333    33A     -3.187323
      34A     -3.187189    35A     -3.187180    36A     -1.194985
      37A     -1.094837    38A     -1.088334    39A     -1.004381
      40A     -0.975545    41A     -0.958863    42A     -0.815254
      43A     -0.812661    44A     -0.704024    45A     -0.677725
      46A     -0.604283    47A     -0.597910    48A     -0.587479
      49A     -0.577519    50A     -0.559694    51A     -0.542137
      52A     -0.510525    53A     -0.490621    54A     -0.467335
      55A     -0.426011    56A     -0.423304    57A     -0.419862
      58A     -0.345880    59A     -0.339888

  @DF-RHF Final Energy: -5413.58043840229948

   => Energetics <=

    Nuclear Repulsion Energy =            881.3166082379697173
    One-Electron Energy =               -9283.6977533951048827
    Two-Electron Energy =                2988.8007067548346640
    Total Energy =                      -5413.5804384022994782
  Basis Set: (AUG-CC-PVTZ AUX)
    Blend: AUG-CC-PVTZ-RI
    Molecular point group: c1

    Geometry (in Angstrom), charge = 0, multiplicity = 1:

       Center              X                  Y                   Z               Mass
    ------------   -----------------  -----------------  -----------------  -----------------
         BR           2.842873597901    -0.778590642338     0.001135065854    78.918337600000
         BR          -2.842518402099    -0.778590642338     0.001135065854    78.918337600000
         C            0.000177597901     2.273885357662    -0.016351934146    12.000000000000
         C           -1.207544402099     1.565315357662    -0.010137934146    12.000000000000
         C            1.207899597901     1.565315357662    -0.010137934146    12.000000000000
         C            0.000177597901     3.780239357662     0.013799065854    12.000000000000
         C            1.190591597901     0.171549357662    -0.000634934146    12.000000000000
         C           -1.190236402099     0.171550357662    -0.000634934146    12.000000000000
         C            0.000177597901    -0.554070642338     0.005282065854    12.000000000000
         H           -2.200923202099     2.118467657662    -0.018690034146     1.007825032230
         H            2.157596597901     2.094142357662    -0.018312934146     1.007825032230
         H            0.000187597901     4.149438357662     1.044768065854     1.007825032230
         H            0.885944597901     4.181847357662    -0.485459934146     1.007825032230
         H           -0.885598402099     4.181847357662    -0.485441934146     1.007825032230
         H            0.000176597901    -1.639052642338     0.009418065854     1.007825032230

  Basis Set: AUG-CC-PVTZ
    Blend: AUG-CC-PVTZ
  Basis Set: (AUG-CC-PVTZ AUX)
    Blend: AUG-CC-PVTZ-JKFIT
	 Reference Energy          =   -5413.5804384022994782 [Eh]
	 Singles Energy            =      -0.0000000000000000 [Eh]
	 Same-Spin Energy          =      -0.4881964193302379 [Eh]
	 Opposite-Spin Energy      =      -1.3647144588693694 [Eh]
	 Correlation Energy        =      -1.8529108781996073 [Eh]
	 Total Energy              =   -5415.4333492804989874 [Eh]

	 ================> DF-SCS-MP2 Energies <==================
	-----------------------------------------------------------
	 SCS Same-Spin Scale       =       0.3333333333333333 [-]
	 SCS Opposite-Spin Scale   =       1.2000000000000000 [-]
	 SCS Same-Spin Energy      =      -0.1627321397767460 [Eh]
	 SCS Opposite-Spin Energy  =      -1.6376573506432432 [Eh]
	 SCS Correlation Energy    =      -1.8003894904199893 [Eh]
	 SCS Total Energy          =   -5415.3808278927190258 [Eh]
	-----------------------------------------------------------

  Dipole Moment: [D]
     X:     0.0038      Y:     2.1753      Z:     0.0367     Total:     2.1756

*** Psi4 exiting successfully. Buy a developer a beer!
