                               Psi4 1.4a3.dev225

  ==> Input File <==

--------------------------------------------------------------------------
#psi4
#
memory 32 gb

molecule  {
0 1
 Br        2.8426960    -0.9006560     0.0010230
 Br       -2.8426960    -0.9006560     0.0010230
  C        0.0000000     2.1518200    -0.0164640
  C       -1.2077220     1.4432500    -0.0102500
  C        1.2077220     1.4432500    -0.0102500
  C        0.0000000     3.6581740     0.0136870
  C        1.1904140     0.0494840    -0.0007470
  C       -1.1904140     0.0494850    -0.0007470
  C        0.0170773    -0.6865455     0.0052549
  H       -2.1574180     1.9720780    -0.0184260
  H        2.1574190     1.9720770    -0.0184250
  H        0.0000100     4.0273730     1.0446560
  H        0.8857670     4.0597820    -0.4855720
  H       -0.8857760     4.0597820    -0.4855540
  H       -0.0000010    -1.7611180     0.0093060
units angstrom
no_reorient  #important for SAPT in psi4, default
symmetry c1  #important for SAPT in psi4, default
}

set PROPERTIES_ORIGIN ["COM"]
properties('MP2/aug-cc-pvtz', properties = ['dipole'])
--------------------------------------------------------------------------

    Molecular point group: c1
  Charge       = 0
  Multiplicity = 1
  Basis Set: AUG-CC-PVTZ
    Blend: AUG-CC-PVTZ
  Basis Set: (AUG-CC-PVTZ AUX)
    Blend: AUG-CC-PVTZ-JKFIT

    Orbital Energies [Eh]
    ---------------------

    Doubly Occupied:

       1A   -490.032374     2A   -490.031052     3A    -65.172071
       4A    -65.170788     5A    -58.527396     6A    -58.526107
       7A    -58.525990     8A    -58.525960     9A    -58.524707
      10A    -58.524677    11A    -11.317198    12A    -11.314342
      13A    -11.272887    14A    -11.265278    15A    -11.259106
      16A    -11.258704    17A    -11.243092    18A     -9.844762
      19A     -9.843512    20A     -7.456393    21A     -7.455137
      22A     -7.449529    23A     -7.449475    24A     -7.448288
      25A     -7.448241    26A     -3.200187    27A     -3.198914
      28A     -3.196625    29A     -3.196400    30A     -3.195360
      31A     -3.195143    32A     -3.187632    33A     -3.187623
      34A     -3.186404    35A     -3.186395    36A     -1.194218
      37A     -1.095089    38A     -1.088249    39A     -1.003740
      40A     -0.976733    41A     -0.959705    42A     -0.815321
      43A     -0.813720    44A     -0.710382    45A     -0.677005
      46A     -0.605949    47A     -0.598054    48A     -0.588806
      49A     -0.583126    50A     -0.560021    51A     -0.541377
      52A     -0.511806    53A     -0.490174    54A     -0.467165
      55A     -0.425901    56A     -0.423098    57A     -0.419414
      58A     -0.345623    59A     -0.339327

  @DF-RHF Final Energy: -5413.58238683213585

   => Energetics <=

    Nuclear Repulsion Energy =            881.4528815145091585
    One-Electron Energy =               -9283.9670388494268991
    Two-Electron Energy =                2988.9317705027815464
    Total Energy =                      -5413.5823868321358532
  Basis Set: (AUG-CC-PVTZ AUX)
    Blend: AUG-CC-PVTZ-RI
    Molecular point group: c1

    Geometry (in Angstrom), charge = 0, multiplicity = 1:

       Center              X                  Y                   Z               Mass
    ------------   -----------------  -----------------  -----------------  -----------------
         BR           2.841869287031    -0.777987824632     0.001129426744    78.918337600000
         BR          -2.843522712969    -0.777987824632     0.001129426744    78.918337600000
         C           -0.000826712969     2.274488175368    -0.016357573256    12.000000000000
         C           -1.208548712969     1.565918175368    -0.010143573256    12.000000000000
         C            1.206895287031     1.565918175368    -0.010143573256    12.000000000000
         C           -0.000826712969     3.780842175368     0.013793426744    12.000000000000
         C            1.189587287031     0.172152175368    -0.000640573256    12.000000000000
         C           -1.191240712969     0.172153175368    -0.000640573256    12.000000000000
         C            0.016250587031    -0.563877324632     0.005361326744    12.000000000000
         H           -2.158244712969     2.094746175368    -0.018319573256     1.007825032230
         H            2.156592287031     2.094745175368    -0.018318573256     1.007825032230
         H           -0.000816712969     4.150041175368     1.044762426744     1.007825032230
         H            0.884940287031     4.182450175368    -0.485465573256     1.007825032230
         H           -0.886602712969     4.182450175368    -0.485447573256     1.007825032230
         H           -0.000827712969    -1.638449824632     0.009412426744     1.007825032230

  Basis Set: AUG-CC-PVTZ
    Blend: AUG-CC-PVTZ
  Basis Set: (AUG-CC-PVTZ AUX)
    Blend: AUG-CC-PVTZ-JKFIT
	 Reference Energy          =   -5413.5823868321358532 [Eh]
	 Singles Energy            =      -0.0000000000000000 [Eh]
	 Same-Spin Energy          =      -0.4880318441452608 [Eh]
	 Opposite-Spin Energy      =      -1.3643448194301147 [Eh]
	 Correlation Energy        =      -1.8523766635753756 [Eh]
	 Total Energy              =   -5415.4347634957111950 [Eh]

	 ================> DF-SCS-MP2 Energies <==================
	-----------------------------------------------------------
	 SCS Same-Spin Scale       =       0.3333333333333333 [-]
	 SCS Opposite-Spin Scale   =       1.2000000000000000 [-]
	 SCS Same-Spin Energy      =      -0.1626772813817536 [Eh]
	 SCS Opposite-Spin Energy  =      -1.6372137833161375 [Eh]
	 SCS Correlation Energy    =      -1.7998910646978912 [Eh]
	 SCS Total Energy          =   -5415.3822778968333296 [Eh]
	-----------------------------------------------------------

  Dipole Moment: [D]
     X:    -0.0426      Y:     2.1887      Z:     0.0365     Total:     2.1894

*** Psi4 exiting successfully. Buy a developer a beer!
