                               Psi4 1.4a3.dev225

  ==> Input File <==

--------------------------------------------------------------------------
#psi4
#
memory 32 gb

molecule  {
0 1
 Br        2.8426960    -0.9006560     0.0010230
 Br       -2.8426960    -0.9006560     0.0010230
  C        0.0000000     2.1518200    -0.0164640
  C       -1.2077220     1.4432500    -0.0102500
  C        1.2077220     1.4432500    -0.0102500
  C        0.0000000     3.6581740     0.0136870
  C        1.1904140     0.0494840    -0.0007470
  C       -1.1904140     0.0494850    -0.0007470
  C        0.0000000    -0.6761360     0.0051700
  H       -2.1137352     1.9477537    -0.0180499
  H        2.1574190     1.9720770    -0.0184250
  H        0.0000100     4.0273730     1.0446560
  H        0.8857670     4.0597820    -0.4855720
  H       -0.8857760     4.0597820    -0.4855540
  H       -0.0000010    -1.7611180     0.0093060
units angstrom
no_reorient  #important for SAPT in psi4, default
symmetry c1  #important for SAPT in psi4, default
}

set PROPERTIES_ORIGIN ["COM"]
properties('MP2/aug-cc-pvtz', properties = ['dipole'])
--------------------------------------------------------------------------

    Molecular point group: c1
  Charge       = 0
  Multiplicity = 1
  Basis Set: AUG-CC-PVTZ
    Blend: AUG-CC-PVTZ
  Basis Set: (AUG-CC-PVTZ AUX)
    Blend: AUG-CC-PVTZ-JKFIT

    Orbital Energies [Eh]
    ---------------------

    Doubly Occupied:

       1A   -490.032017     2A   -490.031896     3A    -65.171725
       4A    -65.171603     5A    -58.527049     6A    -58.526928
       7A    -58.525644     8A    -58.525615     9A    -58.525522
      10A    -58.525492    11A    -11.314878    12A    -11.314639
      13A    -11.272162    14A    -11.264505    15A    -11.258548
      16A    -11.253170    17A    -11.242995    18A     -9.844424
      19A     -9.844302    20A     -7.456055    21A     -7.455936
      22A     -7.449191    23A     -7.449145    24A     -7.449067
      25A     -7.449017    26A     -3.199843    27A     -3.199727
      28A     -3.196279    29A     -3.196162    30A     -3.196064
      31A     -3.195941    32A     -3.187300    33A     -3.187291
      34A     -3.187171    35A     -3.187161    36A     -1.195131
      37A     -1.095597    38A     -1.088558    39A     -1.004297
      40A     -0.978431    41A     -0.959766    42A     -0.818563
      43A     -0.813447    44A     -0.714529    45A     -0.677417
      46A     -0.604085    47A     -0.598104    48A     -0.592214
      49A     -0.585353    50A     -0.560256    51A     -0.541870
      52A     -0.510753    53A     -0.491875    54A     -0.467233
      55A     -0.425974    56A     -0.423164    57A     -0.419839
      58A     -0.345543    59A     -0.339649

  @DF-RHF Final Energy: -5413.58231318540766

   => Energetics <=

    Nuclear Repulsion Energy =            881.9091078704550455
    One-Electron Energy =               -9284.8506238068857783
    Two-Electron Energy =                2989.3592027510226217
    Total Energy =                      -5413.5823131854085659
  Basis Set: (AUG-CC-PVTZ AUX)
    Blend: AUG-CC-PVTZ-RI
    Molecular point group: c1

    Geometry (in Angstrom), charge = 0, multiplicity = 1:

       Center              X                  Y                   Z               Mass
    ------------   -----------------  -----------------  -----------------  -----------------
         BR           2.842518393968    -0.778392850827     0.001132007621    78.918337600000
         BR          -2.842873606032    -0.778392850827     0.001132007621    78.918337600000
         C           -0.000177606032     2.274083149173    -0.016354992379    12.000000000000
         C           -1.207899606032     1.565513149173    -0.010140992379    12.000000000000
         C            1.207544393968     1.565513149173    -0.010140992379    12.000000000000
         C           -0.000177606032     3.780437149173     0.013796007621    12.000000000000
         C            1.190236393968     0.171747149173    -0.000637992379    12.000000000000
         C           -1.190591606032     0.171748149173    -0.000637992379    12.000000000000
         C           -0.000177606032    -0.553872850827     0.005279007621    12.000000000000
         H           -2.113912806032     2.070016849173    -0.017940892379     1.007825032230
         H            2.157241393968     2.094340149173    -0.018315992379     1.007825032230
         H           -0.000167606032     4.149636149173     1.044765007621     1.007825032230
         H            0.885589393968     4.182045149173    -0.485462992379     1.007825032230
         H           -0.885953606032     4.182045149173    -0.485444992379     1.007825032230
         H           -0.000178606032    -1.638854850827     0.009415007621     1.007825032230

  Basis Set: AUG-CC-PVTZ
    Blend: AUG-CC-PVTZ
  Basis Set: (AUG-CC-PVTZ AUX)
    Blend: AUG-CC-PVTZ-JKFIT
	 Reference Energy          =   -5413.5823131854076564 [Eh]
	 Singles Energy            =      -0.0000000000000000 [Eh]
	 Same-Spin Energy          =      -0.4878980812920440 [Eh]
	 Opposite-Spin Energy      =      -1.3639645773084019 [Eh]
	 Correlation Energy        =      -1.8518626586004459 [Eh]
	 Total Energy              =   -5415.4341758440077683 [Eh]

	 ================> DF-SCS-MP2 Energies <==================
	-----------------------------------------------------------
	 SCS Same-Spin Scale       =       0.3333333333333333 [-]
	 SCS Opposite-Spin Scale   =       1.2000000000000000 [-]
	 SCS Same-Spin Energy      =      -0.1626326937640147 [Eh]
	 SCS Opposite-Spin Energy  =      -1.6367574927700823 [Eh]
	 SCS Correlation Energy    =      -1.7993901865340969 [Eh]
	 SCS Total Energy          =   -5415.3817033719415122 [Eh]
	-----------------------------------------------------------

  Dipole Moment: [D]
     X:    -0.0016      Y:     2.1813      Z:     0.0364     Total:     2.1816

*** Psi4 exiting successfully. Buy a developer a beer!
