                               Psi4 1.4a3.dev225

  ==> Input File <==

--------------------------------------------------------------------------
#psi4
#
memory 32 gb

molecule  {
0 1
 Br        2.8426960    -0.9006560     0.0010230
 Br       -2.8426960    -0.9006560     0.0010230
  C        0.0000000     2.1518200    -0.0164640
  C       -1.2077220     1.4432500    -0.0102500
  C        1.0352212     1.5444562    -0.0111376
  C        0.0000000     3.6581740     0.0136870
  C        1.1904140     0.0494840    -0.0007470
  C       -1.1904140     0.0494850    -0.0007470
  C        0.0000000    -0.6761360     0.0051700
  H       -2.1574180     1.9720780    -0.0184260
  H        2.1574190     1.9720770    -0.0184250
  H        0.0000100     4.0273730     1.0446560
  H        0.8857670     4.0597820    -0.4855720
  H       -0.8857760     4.0597820    -0.4855540
  H       -0.0000010    -1.7611180     0.0093060
units angstrom
no_reorient  #important for SAPT in psi4, default
symmetry c1  #important for SAPT in psi4, default
}

set PROPERTIES_ORIGIN ["COM"]
properties('MP2/aug-cc-pvtz', properties = ['dipole'])
--------------------------------------------------------------------------

    Molecular point group: c1
  Charge       = 0
  Multiplicity = 1
  Basis Set: AUG-CC-PVTZ
    Blend: AUG-CC-PVTZ
  Basis Set: (AUG-CC-PVTZ AUX)
    Blend: AUG-CC-PVTZ-JKFIT

    Orbital Energies [Eh]
    ---------------------

    Doubly Occupied:

       1A   -490.039860     2A   -490.031016     3A    -65.179318
       4A    -65.170720     5A    -58.534699     6A    -58.533224
       7A    -58.533195     8A    -58.526046     9A    -58.524636
      10A    -58.524613    11A    -11.321189    12A    -11.312177
      13A    -11.265471    14A    -11.260686    15A    -11.252342
      16A    -11.240490    17A    -11.239444    18A     -9.851796
      19A     -9.843414    20A     -7.463525    21A     -7.456438
      22A     -7.456382    23A     -7.455051    24A     -7.448168
      25A     -7.448145    26A     -3.207435    27A     -3.203760
      28A     -3.203530    29A     -3.198842    30A     -3.195265
      31A     -3.195073    32A     -3.194426    33A     -3.194418
      34A     -3.186283    35A     -3.186274    36A     -1.207830
      37A     -1.110127    38A     -1.086497    39A     -1.005584
      40A     -0.974397    41A     -0.959603    42A     -0.830181
      43A     -0.802587    44A     -0.698555    45A     -0.681561
      46A     -0.609397    47A     -0.603059    48A     -0.586766
      49A     -0.567562    50A     -0.550076    51A     -0.540886
      52A     -0.509572    53A     -0.476794    54A     -0.465751
      55A     -0.437972    56A     -0.427679    57A     -0.420705
      58A     -0.366824    59A     -0.328653

  @DF-RHF Final Energy: -5413.52138352566089

   => Energetics <=

    Nuclear Repulsion Energy =            882.3075001230115504
    One-Electron Energy =               -9285.4058334173696494
    Two-Electron Energy =                2989.5769497686965224
    Total Energy =                      -5413.5213835256618040
  Basis Set: (AUG-CC-PVTZ AUX)
    Blend: AUG-CC-PVTZ-RI
    Molecular point group: c1

    Geometry (in Angstrom), charge = 0, multiplicity = 1:

       Center              X                  Y                   Z               Mass
    ------------   -----------------  -----------------  -----------------  -----------------
         BR           2.851046727439    -0.783391119819     0.001176505287    78.918337600000
         BR          -2.834345272561    -0.783391119819     0.001176505287    78.918337600000
         C            0.008350727439     2.269084880181    -0.016310494713    12.000000000000
         C           -1.199371272561     1.560514880181    -0.010096494713    12.000000000000
         C            1.043571927439     1.661721080181    -0.010984094713    12.000000000000
         C            0.008350727439     3.775438880181     0.013840505287    12.000000000000
         C            1.198764727439     0.166748880181    -0.000593494713    12.000000000000
         C           -1.182063272561     0.166749880181    -0.000593494713    12.000000000000
         C            0.008350727439    -0.558871119819     0.005323505287    12.000000000000
         H           -2.149067272561     2.089342880181    -0.018272494713     1.007825032230
         H            2.165769727439     2.089341880181    -0.018271494713     1.007825032230
         H            0.008360727439     4.144637880181     1.044809505287     1.007825032230
         H            0.894117727439     4.177046880181    -0.485418494713     1.007825032230
         H           -0.877425272561     4.177046880181    -0.485400494713     1.007825032230
         H            0.008349727439    -1.643853119819     0.009459505287     1.007825032230

  Basis Set: AUG-CC-PVTZ
    Blend: AUG-CC-PVTZ
  Basis Set: (AUG-CC-PVTZ AUX)
    Blend: AUG-CC-PVTZ-JKFIT
	 Reference Energy          =   -5413.5213835256608945 [Eh]
	 Singles Energy            =      -0.0000000000000000 [Eh]
	 Same-Spin Energy          =      -0.4875596573880112 [Eh]
	 Opposite-Spin Energy      =      -1.3661954913808134 [Eh]
	 Correlation Energy        =      -1.8537551487688246 [Eh]
	 Total Energy              =   -5415.3751386744297633 [Eh]

	 ================> DF-SCS-MP2 Energies <==================
	-----------------------------------------------------------
	 SCS Same-Spin Scale       =       0.3333333333333333 [-]
	 SCS Opposite-Spin Scale   =       1.2000000000000000 [-]
	 SCS Same-Spin Energy      =      -0.1625198857960037 [Eh]
	 SCS Opposite-Spin Energy  =      -1.6394345896569760 [Eh]
	 SCS Correlation Energy    =      -1.8019544754529797 [Eh]
	 SCS Total Energy          =   -5415.3233380011142799 [Eh]
	-----------------------------------------------------------

  Dipole Moment: [D]
     X:     0.1914      Y:     1.8401      Z:     0.0320     Total:     1.8503

*** Psi4 exiting successfully. Buy a developer a beer!
