                               Psi4 1.4a3.dev225

  ==> Input File <==

--------------------------------------------------------------------------
#psi4
#
memory 32 gb

molecule  {
0 1
 Br        2.8426960    -0.9006560     0.0010230
 Br       -2.8426960    -0.9006560     0.0010230
  C        0.0000000     2.1518200    -0.0164640
  C       -1.2077220     1.4432500    -0.0102500
  C        1.2077220     1.4432500    -0.0102500
  C        0.0000000     3.6581740     0.0136870
  C        1.1904140     0.0494840    -0.0007470
  C       -1.1904140     0.0494850    -0.0007470
  C        0.0000000    -0.6761360     0.0051700
  H       -2.1574180     1.9720780    -0.0184260
  H        2.1574190     1.9720770    -0.0184250
  H        0.0000100     4.0273730     1.0446560
  H        0.8695623     4.0524348    -0.4764383
  H       -0.8857760     4.0597820    -0.4855540
  H       -0.0000010    -1.7611180     0.0093060
units angstrom
no_reorient  #important for SAPT in psi4, default
symmetry c1  #important for SAPT in psi4, default
}

set PROPERTIES_ORIGIN ["COM"]
properties('MP2/aug-cc-pvtz', properties = ['dipole'])
--------------------------------------------------------------------------

    Molecular point group: c1
  Charge       = 0
  Multiplicity = 1
  Basis Set: AUG-CC-PVTZ
    Blend: AUG-CC-PVTZ
  Basis Set: (AUG-CC-PVTZ AUX)
    Blend: AUG-CC-PVTZ-JKFIT

    Orbital Energies [Eh]
    ---------------------

    Doubly Occupied:

       1A   -490.031945     2A   -490.031915     3A    -65.171653
       4A    -65.171623     5A    -58.526978     6A    -58.526948
       7A    -58.525571     8A    -58.525542     9A    -58.525541
      10A    -58.525511    11A    -11.314928    12A    -11.314886
      13A    -11.272335    14A    -11.264710    15A    -11.258811
      16A    -11.258690    17A    -11.240518    18A     -9.844352
      19A     -9.844321    20A     -7.455986    21A     -7.455956
      22A     -7.449117    23A     -7.449087    24A     -7.449067
      25A     -7.449037    26A     -3.199778    27A     -3.199747
      28A     -3.196212    29A     -3.196182    30A     -3.195992
      31A     -3.195961    32A     -3.187220    33A     -3.187211
      34A     -3.187190    35A     -3.187181    36A     -1.194973
      37A     -1.095100    38A     -1.088688    39A     -1.004517
      40A     -0.976747    41A     -0.960517    42A     -0.816355
      43A     -0.813849    44A     -0.708980    45A     -0.677813
      46A     -0.604476    47A     -0.598543    48A     -0.588421
      49A     -0.583014    50A     -0.562548    51A     -0.542092
      52A     -0.510590    53A     -0.491384    54A     -0.467238
      55A     -0.425951    56A     -0.423208    57A     -0.419815
      58A     -0.345667    59A     -0.339705

  @DF-RHF Final Energy: -5413.58304920776391

   => Energetics <=

    Nuclear Repulsion Energy =            881.6986187906051100
    One-Electron Energy =               -9284.4475545946024795
    Two-Electron Energy =                2989.1658865962331220
    Total Energy =                      -5413.5830492077639065
  Basis Set: (AUG-CC-PVTZ AUX)
    Blend: AUG-CC-PVTZ-RI
    Molecular point group: c1

    Geometry (in Angstrom), charge = 0, multiplicity = 1:

       Center              X                  Y                   Z               Mass
    ------------   -----------------  -----------------  -----------------  -----------------
         BR           2.842761879682    -0.778461874936     0.001096401685    78.918337600000
         BR          -2.842630120318    -0.778461874936     0.001096401685    78.918337600000
         C            0.000065879682     2.274014125064    -0.016390598315    12.000000000000
         C           -1.207656120318     1.565444125064    -0.010176598315    12.000000000000
         C            1.207787879682     1.565444125064    -0.010176598315    12.000000000000
         C            0.000065879682     3.780368125064     0.013760401685    12.000000000000
         C            1.190479879682     0.171678125064    -0.000673598315    12.000000000000
         C           -1.190348120318     0.171679125064    -0.000673598315    12.000000000000
         C            0.000065879682    -0.553941874936     0.005243401685    12.000000000000
         H           -2.157352120318     2.094272125064    -0.018352598315     1.007825032230
         H            2.157484879682     2.094271125064    -0.018351598315     1.007825032230
         H            0.000075879682     4.149567125064     1.044729401685     1.007825032230
         H            0.869628179682     4.174628925064    -0.476364898315     1.007825032230
         H           -0.885710120318     4.181976125064    -0.485480598315     1.007825032230
         H            0.000064879682    -1.638923874936     0.009379401685     1.007825032230

  Basis Set: AUG-CC-PVTZ
    Blend: AUG-CC-PVTZ
  Basis Set: (AUG-CC-PVTZ AUX)
    Blend: AUG-CC-PVTZ-JKFIT
	 Reference Energy          =   -5413.5830492077639065 [Eh]
	 Singles Energy            =      -0.0000000000000000 [Eh]
	 Same-Spin Energy          =      -0.4880331576785212 [Eh]
	 Opposite-Spin Energy      =      -1.3641626706838792 [Eh]
	 Correlation Energy        =      -1.8521958283624005 [Eh]
	 Total Energy              =   -5415.4352450361266165 [Eh]

	 ================> DF-SCS-MP2 Energies <==================
	-----------------------------------------------------------
	 SCS Same-Spin Scale       =       0.3333333333333333 [-]
	 SCS Opposite-Spin Scale   =       1.2000000000000000 [-]
	 SCS Same-Spin Energy      =      -0.1626777192261737 [Eh]
	 SCS Opposite-Spin Energy  =      -1.6369952048206551 [Eh]
	 SCS Correlation Energy    =      -1.7996729240468288 [Eh]
	 SCS Total Energy          =   -5415.3827221318106240 [Eh]
	-----------------------------------------------------------

  Dipole Moment: [D]
     X:     0.0056      Y:     2.1869      Z:     0.0338     Total:     2.1872

*** Psi4 exiting successfully. Buy a developer a beer!
