                               Psi4 1.4a3.dev225

  ==> Input File <==

--------------------------------------------------------------------------
#psi4
#
memory 32 gb

molecule  {
0 1
 Br        2.8426960    -0.9006560     0.0010230
 Br       -2.8426960    -0.9006560     0.0010230
  C        0.0000000     2.1518200    -0.0164640
  C       -1.2077220     1.4432500    -0.0102500
  C        1.2077220     1.4432500    -0.0102500
  C        0.0000000     3.6581740     0.0136870
  C        1.1904140     0.0494840    -0.0007470
  C       -1.1643645     0.0905879    -0.0008347
  C        0.0000000    -0.6761360     0.0051700
  H       -2.1574180     1.9720780    -0.0184260
  H        2.1574190     1.9720770    -0.0184250
  H        0.0000100     4.0273730     1.0446560
  H        0.8857670     4.0597820    -0.4855720
  H       -0.8857760     4.0597820    -0.4855540
  H       -0.0000010    -1.7611180     0.0093060
units angstrom
no_reorient  #important for SAPT in psi4, default
symmetry c1  #important for SAPT in psi4, default
}

set PROPERTIES_ORIGIN ["COM"]
properties('MP2/aug-cc-pvtz', properties = ['dipole'])
--------------------------------------------------------------------------

    Molecular point group: c1
  Charge       = 0
  Multiplicity = 1
  Basis Set: AUG-CC-PVTZ
    Blend: AUG-CC-PVTZ
  Basis Set: (AUG-CC-PVTZ AUX)
    Blend: AUG-CC-PVTZ-JKFIT

    Orbital Energies [Eh]
    ---------------------

    Doubly Occupied:

       1A   -490.032665     2A   -490.027512     3A    -65.172382
       4A    -65.167086     5A    -58.527705     6A    -58.526301
       7A    -58.526270     8A    -58.522424     9A    -58.521008
      10A    -58.520983    11A    -11.316396    12A    -11.314568
      13A    -11.274437    14A    -11.266323    15A    -11.259316
      16A    -11.256186    17A    -11.243987    18A     -9.845088
      19A     -9.839538    20A     -7.456717    21A     -7.451052
      22A     -7.449861    23A     -7.449803    24A     -7.444302
      25A     -7.444280    26A     -3.200503    27A     -3.196945
      28A     -3.196719    29A     -3.194777    30A     -3.191332
      31A     -3.191160    32A     -3.187966    33A     -3.187957
      34A     -3.182460    35A     -3.182451    36A     -1.200151
      37A     -1.096074    38A     -1.086771    39A     -1.002438
      40A     -0.979923    41A     -0.961706    42A     -0.817479
      43A     -0.815207    44A     -0.712543    45A     -0.681132
      46A     -0.606460    47A     -0.599666    48A     -0.590805
      49A     -0.583923    50A     -0.560546    51A     -0.544527
      52A     -0.511933    53A     -0.483331    54A     -0.465934
      55A     -0.425187    56A     -0.422376    57A     -0.418031
      58A     -0.346157    59A     -0.345327

  @DF-RHF Final Energy: -5413.58138432084979

   => Energetics <=

    Nuclear Repulsion Energy =            881.2815589098477176
    One-Electron Energy =               -9283.6737068520997127
    Two-Electron Energy =                2988.8107636214017475
    Total Energy =                      -5413.5813843208497929
  Basis Set: (AUG-CC-PVTZ AUX)
    Blend: AUG-CC-PVTZ-RI
    Molecular point group: c1

    Geometry (in Angstrom), charge = 0, multiplicity = 1:

       Center              X                  Y                   Z               Mass
    ------------   -----------------  -----------------  -----------------  -----------------
         BR           2.841434944505    -0.780481530294     0.001137782278    78.918337600000
         BR          -2.843957055495    -0.780481530294     0.001137782278    78.918337600000
         C           -0.001261055495     2.271994469706    -0.016349217722    12.000000000000
         C           -1.208983055495     1.563424469706    -0.010135217722    12.000000000000
         C            1.206460944505     1.563424469706    -0.010135217722    12.000000000000
         C           -0.001261055495     3.778348469706     0.013801782278    12.000000000000
         C            1.189152944505     0.169658469706    -0.000632217722    12.000000000000
         C           -1.165625555495     0.210762369706    -0.000719917722    12.000000000000
         C           -0.001261055495    -0.555961530294     0.005284782278    12.000000000000
         H           -2.158679055495     2.092252469706    -0.018311217722     1.007825032230
         H            2.156157944505     2.092251469706    -0.018310217722     1.007825032230
         H           -0.001251055495     4.147547469706     1.044770782278     1.007825032230
         H            0.884505944505     4.179956469706    -0.485457217722     1.007825032230
         H           -0.887037055495     4.179956469706    -0.485439217722     1.007825032230
         H           -0.001262055495    -1.640943530294     0.009420782278     1.007825032230

  Basis Set: AUG-CC-PVTZ
    Blend: AUG-CC-PVTZ
  Basis Set: (AUG-CC-PVTZ AUX)
    Blend: AUG-CC-PVTZ-JKFIT
	 Reference Energy          =   -5413.5813843208497929 [Eh]
	 Singles Energy            =      -0.0000000000000000 [Eh]
	 Same-Spin Energy          =      -0.4876967746653895 [Eh]
	 Opposite-Spin Energy      =      -1.3636751168162284 [Eh]
	 Correlation Energy        =      -1.8513718914816180 [Eh]
	 Total Energy              =   -5415.4327562123316966 [Eh]

	 ================> DF-SCS-MP2 Energies <==================
	-----------------------------------------------------------
	 SCS Same-Spin Scale       =       0.3333333333333333 [-]
	 SCS Opposite-Spin Scale   =       1.2000000000000000 [-]
	 SCS Same-Spin Energy      =      -0.1625655915551298 [Eh]
	 SCS Opposite-Spin Energy  =      -1.6364101401794742 [Eh]
	 SCS Correlation Energy    =      -1.7989757317346040 [Eh]
	 SCS Total Energy          =   -5415.3803600525843649 [Eh]
	-----------------------------------------------------------

  Dipole Moment: [D]
     X:     0.1895      Y:     2.3041      Z:     0.0366     Total:     2.3122

*** Psi4 exiting successfully. Buy a developer a beer!
