                               Psi4 1.4a3.dev225

  ==> Input File <==

--------------------------------------------------------------------------
#psi4
#
memory 32 gb

molecule  {
0 1
 Br        2.8426960    -0.9006560     0.0010230
 Br       -2.8426960    -0.9006560     0.0010230
  C        0.0000000     2.1518200    -0.0164640
  C       -1.2077220     1.4432500    -0.0102500
  C        1.2077220     1.4432500    -0.0102500
  C        0.0000000     3.6581740     0.0136870
  C        1.1904140     0.0494840    -0.0007470
  C       -1.1904140     0.0494850    -0.0007470
  C        0.0000000    -0.6761360     0.0051700
  H       -2.1748911     1.9818077    -0.0185764
  H        2.1574190     1.9720770    -0.0184250
  H        0.0000100     4.0273730     1.0446560
  H        0.8857670     4.0597820    -0.4855720
  H       -0.8857760     4.0597820    -0.4855540
  H       -0.0000010    -1.7611180     0.0093060
units angstrom
no_reorient  #important for SAPT in psi4, default
symmetry c1  #important for SAPT in psi4, default
}

set PROPERTIES_ORIGIN ["COM"]
properties('MP2/aug-cc-pvtz', properties = ['dipole'])
--------------------------------------------------------------------------

    Molecular point group: c1
  Charge       = 0
  Multiplicity = 1
  Basis Set: AUG-CC-PVTZ
    Blend: AUG-CC-PVTZ
  Basis Set: (AUG-CC-PVTZ AUX)
    Blend: AUG-CC-PVTZ-JKFIT

    Orbital Energies [Eh]
    ---------------------

    Doubly Occupied:

       1A   -490.032001     2A   -490.031949     3A    -65.171709
       4A    -65.171656     5A    -58.527034     6A    -58.526982
       7A    -58.525627     8A    -58.525597     9A    -58.525574
      10A    -58.525544    11A    -11.315092    12A    -11.314990
      13A    -11.272637    14A    -11.264878    15A    -11.261032
      16A    -11.258946    17A    -11.242887    18A     -9.844407
      19A     -9.844355    20A     -7.456043    21A     -7.455992
      22A     -7.449172    23A     -7.449122    24A     -7.449119
      25A     -7.449067    26A     -3.199834    27A     -3.199784
      28A     -3.196268    29A     -3.196218    30A     -3.196048
      31A     -3.195995    32A     -3.187274    33A     -3.187265
      34A     -3.187219    35A     -3.187210    36A     -1.194991
      37A     -1.095005    38A     -1.088386    39A     -1.004348
      40A     -0.976249    41A     -0.959121    42A     -0.815766
      43A     -0.813164    44A     -0.706934    45A     -0.677618
      46A     -0.604218    47A     -0.597938    48A     -0.587837
      49A     -0.581057    50A     -0.559930    51A     -0.542048
      52A     -0.510599    53A     -0.491064    54A     -0.467297
      55A     -0.425996    56A     -0.423253    57A     -0.419853
      58A     -0.345767    59A     -0.339799

  @DF-RHF Final Energy: -5413.58232078369474

   => Energetics <=

    Nuclear Repulsion Energy =            881.4886715451314103
    One-Electron Energy =               -9284.0364563001749048
    Two-Electron Energy =                2988.9654639713480719
    Total Energy =                      -5413.5823207836947404
  Basis Set: (AUG-CC-PVTZ AUX)
    Blend: AUG-CC-PVTZ-RI
    Molecular point group: c1

    Geometry (in Angstrom), charge = 0, multiplicity = 1:

       Center              X                  Y                   Z               Mass
    ------------   -----------------  -----------------  -----------------  -----------------
         BR           2.842767036640    -0.778531304804     0.001134148221    78.918337600000
         BR          -2.842624963360    -0.778531304804     0.001134148221    78.918337600000
         C            0.000071036640     2.273944695196    -0.016352851779    12.000000000000
         C           -1.207650963360     1.565374695196    -0.010138851779    12.000000000000
         C            1.207793036640     1.565374695196    -0.010138851779    12.000000000000
         C            0.000071036640     3.780298695196     0.013798148221    12.000000000000
         C            1.190485036640     0.171608695196    -0.000635851779    12.000000000000
         C           -1.190342963360     0.171609695196    -0.000635851779    12.000000000000
         C            0.000071036640    -0.554011304804     0.005281148221    12.000000000000
         H           -2.174820063360     2.103932395196    -0.018465251779     1.007825032230
         H            2.157490036640     2.094201695196    -0.018313851779     1.007825032230
         H            0.000081036640     4.149497695196     1.044767148221     1.007825032230
         H            0.885838036640     4.181906695196    -0.485460851779     1.007825032230
         H           -0.885704963360     4.181906695196    -0.485442851779     1.007825032230
         H            0.000070036640    -1.638993304804     0.009417148221     1.007825032230

  Basis Set: AUG-CC-PVTZ
    Blend: AUG-CC-PVTZ
  Basis Set: (AUG-CC-PVTZ AUX)
    Blend: AUG-CC-PVTZ-JKFIT
	 Reference Energy          =   -5413.5823207836947404 [Eh]
	 Singles Energy            =      -0.0000000000000000 [Eh]
	 Same-Spin Energy          =      -0.4880976308491373 [Eh]
	 Opposite-Spin Energy      =      -1.3644455361348566 [Eh]
	 Correlation Energy        =      -1.8525431669839940 [Eh]
	 Total Energy              =   -5415.4348639506788459 [Eh]

	 ================> DF-SCS-MP2 Energies <==================
	-----------------------------------------------------------
	 SCS Same-Spin Scale       =       0.3333333333333333 [-]
	 SCS Opposite-Spin Scale   =       1.2000000000000000 [-]
	 SCS Same-Spin Energy      =      -0.1626992102830458 [Eh]
	 SCS Opposite-Spin Energy  =      -1.6373346433618279 [Eh]
	 SCS Correlation Energy    =      -1.8000338536448737 [Eh]
	 SCS Total Energy          =   -5415.3823546373396312 [Eh]
	-----------------------------------------------------------

  Dipole Moment: [D]
     X:     0.0013      Y:     2.1778      Z:     0.0366     Total:     2.1781

*** Psi4 exiting successfully. Buy a developer a beer!
