                               Psi4 1.4a3.dev225

  ==> Input File <==

--------------------------------------------------------------------------
#psi4
#
memory 32 gb

molecule  {
0 1
 Br        2.8426960    -0.9006560     0.0010230
 Br       -2.8426960    -0.9006560     0.0010230
  C        0.0000000     2.1518200    -0.0164640
  C       -1.2077220     1.4432500    -0.0102500
  C        1.2077220     1.4432500    -0.0102500
  C        0.0000000     3.6581740     0.0136870
  C        1.1904140     0.0494840    -0.0007470
  C       -1.1904140     0.0494850    -0.0007470
  C        0.0000000    -0.6761360     0.0051700
  H       -2.1574180     1.9720780    -0.0184260
  H        2.1574190     1.9720770    -0.0184250
  H        0.0000118     4.0948015     1.2329467
  H        0.8857670     4.0597820    -0.4855720
  H       -0.8857760     4.0597820    -0.4855540
  H       -0.0000010    -1.7611180     0.0093060
units angstrom
no_reorient  #important for SAPT in psi4, default
symmetry c1  #important for SAPT in psi4, default
}

set PROPERTIES_ORIGIN ["COM"]
properties('MP2/aug-cc-pvtz', properties = ['dipole'])
--------------------------------------------------------------------------

    Molecular point group: c1
  Charge       = 0
  Multiplicity = 1
  Basis Set: AUG-CC-PVTZ
    Blend: AUG-CC-PVTZ
  Basis Set: (AUG-CC-PVTZ AUX)
    Blend: AUG-CC-PVTZ-JKFIT

    Orbital Energies [Eh]
    ---------------------

    Doubly Occupied:

       1A   -490.032482     2A   -490.032482     3A    -65.172187
       4A    -65.172187     5A    -58.527513     6A    -58.527513
       7A    -58.526104     8A    -58.526104     9A    -58.526075
      10A    -58.526075    11A    -11.315594    12A    -11.315584
      13A    -11.274052    14A    -11.265815    15A    -11.264940
      16A    -11.260039    17A    -11.259978    18A     -9.844885
      19A     -9.844885    20A     -7.456524    21A     -7.456524
      22A     -7.449645    23A     -7.449645    24A     -7.449597
      25A     -7.449596    26A     -3.200318    27A     -3.200317
      28A     -3.196748    29A     -3.196747    30A     -3.196529
      31A     -3.196528    32A     -3.187744    33A     -3.187744
      34A     -3.187735    35A     -3.187735    36A     -1.195777
      37A     -1.095818    38A     -1.087358    39A     -1.003663
      40A     -0.977553    41A     -0.951024    42A     -0.817221
      43A     -0.810100    44A     -0.709486    45A     -0.678762
      46A     -0.605580    47A     -0.589701    48A     -0.583930
      49A     -0.572343    50A     -0.563044    51A     -0.528938
      52A     -0.509568    53A     -0.492137    54A     -0.467840
      55A     -0.426496    56A     -0.422069    57A     -0.420362
      58A     -0.344834    59A     -0.340390

  @DF-RHF Final Energy: -5413.56319126527796

   => Energetics <=

    Nuclear Repulsion Energy =            880.7568888958863909
    One-Electron Energy =               -9282.5238339150091633
    Two-Electron Energy =                2988.2037537538440120
    Total Energy =                      -5413.5631912652788742
  Basis Set: (AUG-CC-PVTZ AUX)
    Blend: AUG-CC-PVTZ-RI
    Molecular point group: c1

    Geometry (in Angstrom), charge = 0, multiplicity = 1:

       Center              X                  Y                   Z               Mass
    ------------   -----------------  -----------------  -----------------  -----------------
         BR           2.842695988616    -0.778765891880     0.000367999762    78.918337600000
         BR          -2.842696011384    -0.778765891880     0.000367999762    78.918337600000
         C           -0.000000011384     2.273710108120    -0.017119000238    12.000000000000
         C           -1.207722011384     1.565140108120    -0.010905000238    12.000000000000
         C            1.207721988616     1.565140108120    -0.010905000238    12.000000000000
         C           -0.000000011384     3.780064108120     0.013031999762    12.000000000000
         C            1.190413988616     0.171374108120    -0.001402000238    12.000000000000
         C           -1.190414011384     0.171375108120    -0.001402000238    12.000000000000
         C           -0.000000011384    -0.554245891880     0.004514999762    12.000000000000
         H           -2.157418011384     2.093968108120    -0.019081000238     1.007825032230
         H            2.157418988616     2.093967108120    -0.019080000238     1.007825032230
         H            0.000011788616     4.216691608120     1.232291699762     1.007825032230
         H            0.885766988616     4.181672108120    -0.486227000238     1.007825032230
         H           -0.885776011384     4.181672108120    -0.486209000238     1.007825032230
         H           -0.000001011384    -1.639227891880     0.008650999762     1.007825032230

  Basis Set: AUG-CC-PVTZ
    Blend: AUG-CC-PVTZ
  Basis Set: (AUG-CC-PVTZ AUX)
    Blend: AUG-CC-PVTZ-JKFIT
	 Reference Energy          =   -5413.5631912652779647 [Eh]
	 Singles Energy            =      -0.0000000000000000 [Eh]
	 Same-Spin Energy          =      -0.4880315928533322 [Eh]
	 Opposite-Spin Energy      =      -1.3657853455583000 [Eh]
	 Correlation Energy        =      -1.8538169384116321 [Eh]
	 Total Energy              =   -5415.4170082036898748 [Eh]

	 ================> DF-SCS-MP2 Energies <==================
	-----------------------------------------------------------
	 SCS Same-Spin Scale       =       0.3333333333333333 [-]
	 SCS Opposite-Spin Scale   =       1.2000000000000000 [-]
	 SCS Same-Spin Energy      =      -0.1626771976177774 [Eh]
	 SCS Opposite-Spin Energy  =      -1.6389424146699600 [Eh]
	 SCS Correlation Energy    =      -1.8016196122877375 [Eh]
	 SCS Total Energy          =   -5415.3648108775660148 [Eh]
	-----------------------------------------------------------

  Dipole Moment: [D]
     X:     0.0000      Y:     2.0755      Z:    -0.0406     Total:     2.0758

*** Psi4 exiting successfully. Buy a developer a beer!
