                               Psi4 1.4a3.dev225

  ==> Input File <==

--------------------------------------------------------------------------
#psi4
#
memory 32 gb

molecule  {
0 1
 Br        2.8426960    -0.9006560     0.0010230
 Br       -2.8426960    -0.9006560     0.0010230
  C        0.0000000     2.1518200    -0.0164640
  C       -1.1104535     1.4410627    -0.0101553
  C        1.2077220     1.4432500    -0.0102500
  C        0.0000000     3.6581740     0.0136870
  C        1.1904140     0.0494840    -0.0007470
  C       -1.1904140     0.0494850    -0.0007470
  C        0.0000000    -0.6761360     0.0051700
  H       -2.1574180     1.9720780    -0.0184260
  H        2.1574190     1.9720770    -0.0184250
  H        0.0000100     4.0273730     1.0446560
  H        0.8857670     4.0597820    -0.4855720
  H       -0.8857760     4.0597820    -0.4855540
  H       -0.0000010    -1.7611180     0.0093060
units angstrom
no_reorient  #important for SAPT in psi4, default
symmetry c1  #important for SAPT in psi4, default
}

set PROPERTIES_ORIGIN ["COM"]
properties('MP2/aug-cc-pvtz', properties = ['dipole'])
--------------------------------------------------------------------------

    Molecular point group: c1
  Charge       = 0
  Multiplicity = 1
  Basis Set: AUG-CC-PVTZ
    Blend: AUG-CC-PVTZ
  Basis Set: (AUG-CC-PVTZ AUX)
    Blend: AUG-CC-PVTZ-JKFIT

    Orbital Energies [Eh]
    ---------------------

    Doubly Occupied:

       1A   -490.036121     2A   -490.030889     3A    -65.175700
       4A    -65.170596     5A    -58.531060     6A    -58.529608
       7A    -58.529579     8A    -58.525922     9A    -58.524512
      10A    -58.524489    11A    -11.313520    12A    -11.312293
      13A    -11.265049    14A    -11.261228    15A    -11.259238
      16A    -11.255895    17A    -11.242778    18A     -9.848280
      19A     -9.843293    20A     -7.459990    21A     -7.454932
      22A     -7.452965    23A     -7.452914    24A     -7.448046
      25A     -7.448024    26A     -3.203852    27A     -3.200208
      28A     -3.199983    29A     -3.198721    30A     -3.195143
      31A     -3.194952    32A     -3.190987    33A     -3.190979
      34A     -3.186160    35A     -3.186152    36A     -1.202334
      37A     -1.095570    38A     -1.093324    39A     -1.005812
      40A     -0.975998    41A     -0.960092    42A     -0.826841
      43A     -0.809508    44A     -0.700359    45A     -0.681237
      46A     -0.607445    47A     -0.600111    48A     -0.586909
      49A     -0.565640    50A     -0.555548    51A     -0.543822
      52A     -0.515314    53A     -0.486778    54A     -0.467438
      55A     -0.428340    56A     -0.427782    57A     -0.420185
      58A     -0.352036    59A     -0.338044

  @DF-RHF Final Energy: -5413.57105609176051

   => Energetics <=

    Nuclear Repulsion Energy =            882.8454525012080012
    One-Electron Energy =               -9286.6519774000917096
    Two-Electron Energy =                2990.2354688071231976
    Total Energy =                      -5413.5710560917614202
  Basis Set: (AUG-CC-PVTZ AUX)
    Blend: AUG-CC-PVTZ-RI
    Molecular point group: c1

    Geometry (in Angstrom), charge = 0, multiplicity = 1:

       Center              X                  Y                   Z               Mass
    ------------   -----------------  -----------------  -----------------  -----------------
         BR           2.837987246019    -0.778385859798     0.001128952328    78.918337600000
         BR          -2.847404753981    -0.778385859798     0.001128952328    78.918337600000
         C           -0.004708753981     2.274090140202    -0.016358047672    12.000000000000
         C           -1.115162253981     1.563332840202    -0.010049347672    12.000000000000
         C            1.203013246019     1.565520140202    -0.010144047672    12.000000000000
         C           -0.004708753981     3.780444140202     0.013792952328    12.000000000000
         C            1.185705246019     0.171754140202    -0.000641047672    12.000000000000
         C           -1.195122753981     0.171755140202    -0.000641047672    12.000000000000
         C           -0.004708753981    -0.553865859798     0.005275952328    12.000000000000
         H           -2.162126753981     2.094348140202    -0.018320047672     1.007825032230
         H            2.152710246019     2.094347140202    -0.018319047672     1.007825032230
         H           -0.004698753981     4.149643140202     1.044761952328     1.007825032230
         H            0.881058246019     4.182052140202    -0.485466047672     1.007825032230
         H           -0.890484753981     4.182052140202    -0.485448047672     1.007825032230
         H           -0.004709753981    -1.638847859798     0.009411952328     1.007825032230

  Basis Set: AUG-CC-PVTZ
    Blend: AUG-CC-PVTZ
  Basis Set: (AUG-CC-PVTZ AUX)
    Blend: AUG-CC-PVTZ-JKFIT
	 Reference Energy          =   -5413.5710560917605108 [Eh]
	 Singles Energy            =      -0.0000000000000000 [Eh]
	 Same-Spin Energy          =      -0.4882232539052401 [Eh]
	 Opposite-Spin Energy      =      -1.3648077439277715 [Eh]
	 Correlation Energy        =      -1.8530309978330117 [Eh]
	 Total Energy              =   -5415.4240870895937405 [Eh]

	 ================> DF-SCS-MP2 Energies <==================
	-----------------------------------------------------------
	 SCS Same-Spin Scale       =       0.3333333333333333 [-]
	 SCS Opposite-Spin Scale   =       1.2000000000000000 [-]
	 SCS Same-Spin Energy      =      -0.1627410846350800 [Eh]
	 SCS Opposite-Spin Energy  =      -1.6377692927133258 [Eh]
	 SCS Correlation Energy    =      -1.8005103773484059 [Eh]
	 SCS Total Energy          =   -5415.3715664691089842 [Eh]
	-----------------------------------------------------------

  Dipole Moment: [D]
     X:    -0.0951      Y:     2.0588      Z:     0.0354     Total:     2.0613

*** Psi4 exiting successfully. Buy a developer a beer!
