                               Psi4 1.4a3.dev225

  ==> Input File <==

--------------------------------------------------------------------------
#psi4
#
memory 32 gb

molecule  {
0 1
 Br        2.8426960    -0.9006560     0.0010230
 Br       -2.8426960    -0.9006560     0.0010230
  C        0.0000000     2.1518200    -0.0164640
  C       -1.2077220     1.4432500    -0.0102500
  C        1.2939724     1.3926469    -0.0098062
  C        0.0000000     3.6581740     0.0136870
  C        1.1904140     0.0494840    -0.0007470
  C       -1.1904140     0.0494850    -0.0007470
  C        0.0000000    -0.6761360     0.0051700
  H       -2.1574180     1.9720780    -0.0184260
  H        2.1574190     1.9720770    -0.0184250
  H        0.0000100     4.0273730     1.0446560
  H        0.8857670     4.0597820    -0.4855720
  H       -0.8857760     4.0597820    -0.4855540
  H       -0.0000010    -1.7611180     0.0093060
units angstrom
no_reorient  #important for SAPT in psi4, default
symmetry c1  #important for SAPT in psi4, default
}

set PROPERTIES_ORIGIN ["COM"]
properties('MP2/aug-cc-pvtz', properties = ['dipole'])
--------------------------------------------------------------------------

    Molecular point group: c1
  Charge       = 0
  Multiplicity = 1
  Basis Set: AUG-CC-PVTZ
    Blend: AUG-CC-PVTZ
  Basis Set: (AUG-CC-PVTZ AUX)
    Blend: AUG-CC-PVTZ-JKFIT

    Orbital Energies [Eh]
    ---------------------

    Doubly Occupied:

       1A   -490.032904     2A   -490.027289     3A    -65.172609
       4A    -65.167147     5A    -58.527934     6A    -58.526528
       7A    -58.526493     8A    -58.522439     9A    -58.521065
      10A    -58.521039    11A    -11.317113    12A    -11.311729
      13A    -11.283938    14A    -11.264472    15A    -11.260612
      16A    -11.258213    17A    -11.244953    18A     -9.845306
      19A     -9.839980    20A     -7.456941    21A     -7.451565
      22A     -7.450078    23A     -7.450006    24A     -7.444795
      25A     -7.444768    26A     -3.200735    27A     -3.197177
      28A     -3.196933    29A     -3.195285    30A     -3.191772
      31A     -3.191578    32A     -3.188169    33A     -3.188159
      34A     -3.182971    35A     -3.182960    36A     -1.193067
      37A     -1.100437    38A     -1.081269    39A     -1.003744
      40A     -0.978209    41A     -0.960695    42A     -0.819510
      43A     -0.807328    44A     -0.715429    45A     -0.677216
      46A     -0.605109    47A     -0.598628    48A     -0.596064
      49A     -0.586117    50A     -0.560516    51A     -0.543391
      52A     -0.513386    53A     -0.480537    54A     -0.468930
      55A     -0.425029    56A     -0.419180    57A     -0.417891
      58A     -0.347211    59A     -0.336738

  @DF-RHF Final Energy: -5413.57169205749688

   => Energetics <=

    Nuclear Repulsion Energy =            881.5798637316385111
    One-Electron Energy =               -9284.2605430474359309
    Two-Electron Energy =                2989.1089872583006581
    Total Energy =                      -5413.5716920574968753
  Basis Set: (AUG-CC-PVTZ AUX)
    Blend: AUG-CC-PVTZ-RI
    Molecular point group: c1

    Geometry (in Angstrom), charge = 0, multiplicity = 1:

       Center              X                  Y                   Z               Mass
    ------------   -----------------  -----------------  -----------------  -----------------
         BR           2.838520630182    -0.776042059965     0.001112052462    78.918337600000
         BR          -2.846871369818    -0.776042059965     0.001112052462    78.918337600000
         C           -0.004175369818     2.276433940035    -0.016374947538    12.000000000000
         C           -1.211897369818     1.567863940035    -0.010160947538    12.000000000000
         C            1.289797030182     1.517260840035    -0.009717147538    12.000000000000
         C           -0.004175369818     3.782787940035     0.013776052462    12.000000000000
         C            1.186238630182     0.174097940035    -0.000657947538    12.000000000000
         C           -1.194589369818     0.174098940035    -0.000657947538    12.000000000000
         C           -0.004175369818    -0.551522059965     0.005259052462    12.000000000000
         H           -2.161593369818     2.096691940035    -0.018336947538     1.007825032230
         H            2.153243630182     2.096690940035    -0.018335947538     1.007825032230
         H           -0.004165369818     4.151986940035     1.044745052462     1.007825032230
         H            0.881591630182     4.184395940035    -0.485482947538     1.007825032230
         H           -0.889951369818     4.184395940035    -0.485464947538     1.007825032230
         H           -0.004176369818    -1.636504059965     0.009395052462     1.007825032230

  Basis Set: AUG-CC-PVTZ
    Blend: AUG-CC-PVTZ
  Basis Set: (AUG-CC-PVTZ AUX)
    Blend: AUG-CC-PVTZ-JKFIT
	 Reference Energy          =   -5413.5716920574968753 [Eh]
	 Singles Energy            =      -0.0000000000000000 [Eh]
	 Same-Spin Energy          =      -0.4879009347303873 [Eh]
	 Opposite-Spin Energy      =      -1.3646743809892348 [Eh]
	 Correlation Energy        =      -1.8525753157196221 [Eh]
	 Total Energy              =   -5415.4242673732169351 [Eh]

	 ================> DF-SCS-MP2 Energies <==================
	-----------------------------------------------------------
	 SCS Same-Spin Scale       =       0.3333333333333333 [-]
	 SCS Opposite-Spin Scale   =       1.2000000000000000 [-]
	 SCS Same-Spin Energy      =      -0.1626336449101291 [Eh]
	 SCS Opposite-Spin Energy  =      -1.6376092571870817 [Eh]
	 SCS Correlation Energy    =      -1.8002429020972108 [Eh]
	 SCS Total Energy          =   -5415.3719349595940002 [Eh]
	-----------------------------------------------------------

  Dipole Moment: [D]
     X:    -0.1454      Y:     2.3342      Z:     0.0385     Total:     2.3390

*** Psi4 exiting successfully. Buy a developer a beer!
