                               Psi4 1.4a3.dev225

  ==> Input File <==

--------------------------------------------------------------------------
#psi4
#
memory 32 gb

molecule  {
0 1
 Br        2.8426960    -0.9006560     0.0010230
 Br       -2.8426960    -0.9006560     0.0010230
  C        0.0000000     2.1518200    -0.0164640
  C       -1.2077220     1.4432500    -0.0102500
  C        1.2077220     1.4432500    -0.0102500
  C        0.0000000     3.6581740     0.0136870
  C        1.1904140     0.0494840    -0.0007470
  C       -1.1904140     0.0494850    -0.0007470
  C        0.0000000    -0.6761360     0.0051700
  H       -2.1574180     1.9720780    -0.0184260
  H        2.1574190     1.9720770    -0.0184250
  H        0.0000102     4.0341159     1.0634851
  H        0.8857670     4.0597820    -0.4855720
  H       -0.8857760     4.0597820    -0.4855540
  H       -0.0000010    -1.7611180     0.0093060
units angstrom
no_reorient  #important for SAPT in psi4, default
symmetry c1  #important for SAPT in psi4, default
}

set PROPERTIES_ORIGIN ["COM"]
properties('MP2/aug-cc-pvtz', properties = ['dipole'])
--------------------------------------------------------------------------

    Molecular point group: c1
  Charge       = 0
  Multiplicity = 1
  Basis Set: AUG-CC-PVTZ
    Blend: AUG-CC-PVTZ
  Basis Set: (AUG-CC-PVTZ AUX)
    Blend: AUG-CC-PVTZ-JKFIT

    Orbital Energies [Eh]
    ---------------------

    Doubly Occupied:

       1A   -490.032002     2A   -490.032002     3A    -65.171709
       4A    -65.171709     5A    -58.527034     6A    -58.527034
       7A    -58.525627     8A    -58.525627     9A    -58.525597
      10A    -58.525597    11A    -11.315000    12A    -11.314990
      13A    -11.272618    14A    -11.264832    15A    -11.258936
      16A    -11.258875    17A    -11.245270    18A     -9.844408
      19A     -9.844407    20A     -7.456043    21A     -7.456043
      22A     -7.449172    23A     -7.449172    24A     -7.449122
      25A     -7.449122    26A     -3.199835    27A     -3.199834
      28A     -3.196269    29A     -3.196268    30A     -3.196049
      31A     -3.196048    32A     -3.187275    33A     -3.187275
      34A     -3.187266    35A     -3.187265    36A     -1.195053
      37A     -1.095189    38A     -1.088197    39A     -1.004170
      40A     -0.976843    41A     -0.958151    42A     -0.816419
      43A     -0.812867    44A     -0.708998    45A     -0.677641
      46A     -0.604072    47A     -0.595054    48A     -0.588307
      49A     -0.583088    50A     -0.560280    51A     -0.541179
      52A     -0.510655    53A     -0.491381    54A     -0.467314
      55A     -0.426021    56A     -0.423129    57A     -0.419882
      58A     -0.345609    59A     -0.339793

  @DF-RHF Final Energy: -5413.58249375443211

   => Energetics <=

    Nuclear Repulsion Energy =            881.5131753749107020
    One-Electron Energy =               -9284.0820878948416066
    Two-Electron Energy =                2988.9864187654989109
    Total Energy =                      -5413.5824937544330169
  Basis Set: (AUG-CC-PVTZ AUX)
    Blend: AUG-CC-PVTZ-RI
    Molecular point group: c1

    Geometry (in Angstrom), charge = 0, multiplicity = 1:

       Center              X                  Y                   Z               Mass
    ------------   -----------------  -----------------  -----------------  -----------------
         BR           2.842695995121    -0.778519161316     0.001056982918    78.918337600000
         BR          -2.842696004879    -0.778519161316     0.001056982918    78.918337600000
         C           -0.000000004879     2.273956838684    -0.016430017082    12.000000000000
         C           -1.207722004879     1.565386838684    -0.010216017082    12.000000000000
         C            1.207721995121     1.565386838684    -0.010216017082    12.000000000000
         C           -0.000000004879     3.780310838684     0.013720982918    12.000000000000
         C            1.190413995121     0.171620838684    -0.000713017082    12.000000000000
         C           -1.190414004879     0.171621838684    -0.000713017082    12.000000000000
         C           -0.000000004879    -0.553999161316     0.005203982918    12.000000000000
         H           -2.157418004879     2.094214838684    -0.018392017082     1.007825032230
         H            2.157418995121     2.094213838684    -0.018391017082     1.007825032230
         H            0.000010195121     4.156252738684     1.063519082918     1.007825032230
         H            0.885766995121     4.181918838684    -0.485538017082     1.007825032230
         H           -0.885776004879     4.181918838684    -0.485520017082     1.007825032230
         H           -0.000001004879    -1.638981161316     0.009339982918     1.007825032230

  Basis Set: AUG-CC-PVTZ
    Blend: AUG-CC-PVTZ
  Basis Set: (AUG-CC-PVTZ AUX)
    Blend: AUG-CC-PVTZ-JKFIT
	 Reference Energy          =   -5413.5824937544321074 [Eh]
	 Singles Energy            =      -0.0000000000000000 [Eh]
	 Same-Spin Energy          =      -0.4880342399264616 [Eh]
	 Opposite-Spin Energy      =      -1.3644071101859261 [Eh]
	 Correlation Energy        =      -1.8524413501123878 [Eh]
	 Total Energy              =   -5415.4349351045448202 [Eh]

	 ================> DF-SCS-MP2 Energies <==================
	-----------------------------------------------------------
	 SCS Same-Spin Scale       =       0.3333333333333333 [-]
	 SCS Opposite-Spin Scale   =       1.2000000000000000 [-]
	 SCS Same-Spin Energy      =      -0.1626780799754872 [Eh]
	 SCS Opposite-Spin Energy  =      -1.6372885322231112 [Eh]
	 SCS Correlation Energy    =      -1.7999666121985984 [Eh]
	 SCS Total Energy          =   -5415.3824603666307667 [Eh]
	-----------------------------------------------------------

  Dipole Moment: [D]
     X:     0.0000      Y:     2.1719      Z:     0.0310     Total:     2.1721

*** Psi4 exiting successfully. Buy a developer a beer!
