                               Psi4 1.4a3.dev225

  ==> Input File <==

--------------------------------------------------------------------------
#psi4
#
memory 32 gb

molecule  {
0 1
 Br        2.8426960    -0.9006560     0.0010230
 Br       -2.8426960    -0.9006560     0.0010230
  C        0.0000000     2.1518200    -0.0164640
  C       -1.2077220     1.4432500    -0.0102500
  C        1.2077220     1.4432500    -0.0102500
  C        0.0000000     3.6581740     0.0136870
  C        1.1904140     0.0494840    -0.0007470
  C       -1.1904140     0.0494850    -0.0007470
  C        0.0000000    -0.6761360     0.0051700
  H       -2.1574180     1.9720780    -0.0184260
  H        2.1574190     1.9720770    -0.0184250
  H        0.0000100     4.0273730     1.0446560
  H        1.0478142     4.1332544    -0.5769093
  H       -0.8857760     4.0597820    -0.4855540
  H       -0.0000010    -1.7611180     0.0093060
units angstrom
no_reorient  #important for SAPT in psi4, default
symmetry c1  #important for SAPT in psi4, default
}

set PROPERTIES_ORIGIN ["COM"]
properties('MP2/aug-cc-pvtz', properties = ['dipole'])
--------------------------------------------------------------------------

    Molecular point group: c1
  Charge       = 0
  Multiplicity = 1
  Basis Set: AUG-CC-PVTZ
    Blend: AUG-CC-PVTZ
  Basis Set: (AUG-CC-PVTZ AUX)
    Blend: AUG-CC-PVTZ-JKFIT

    Orbital Energies [Eh]
    ---------------------

    Doubly Occupied:

       1A   -490.032660     2A   -490.032292     3A    -65.172365
       4A    -65.171998     5A    -58.527691     6A    -58.527324
       7A    -58.526281     8A    -58.526252     9A    -58.525916
      10A    -58.525886    11A    -11.315801    12A    -11.315345
      13A    -11.274436    14A    -11.265597    15A    -11.265271
      16A    -11.260518    17A    -11.259328    18A     -9.845062
      19A     -9.844696    20A     -7.456702    21A     -7.456334
      22A     -7.449821    23A     -7.449773    24A     -7.449458
      25A     -7.449407    26A     -3.200497    27A     -3.200128
      28A     -3.196925    29A     -3.196707    30A     -3.196559
      31A     -3.196338    32A     -3.187919    33A     -3.187910
      34A     -3.187557    35A     -3.187548    36A     -1.195750
      37A     -1.095774    38A     -1.087404    39A     -1.003642
      40A     -0.977461    41A     -0.951142    42A     -0.816980
      43A     -0.809802    44A     -0.709529    45A     -0.676200
      46A     -0.605249    47A     -0.595840    48A     -0.588989
      49A     -0.583492    50A     -0.545723    51A     -0.526722
      52A     -0.510053    53A     -0.489400    54A     -0.467804
      55A     -0.426509    56A     -0.423430    57A     -0.420287
      58A     -0.346213    59A     -0.340351

  @DF-RHF Final Energy: -5413.56268809542507

   => Energetics <=

    Nuclear Repulsion Energy =            880.7790311145434998
    One-Electron Energy =               -9282.5673470934689249
    Two-Electron Energy =                2988.2256278834997829
    Total Energy =                      -5413.5626880954259832
  Basis Set: (AUG-CC-PVTZ AUX)
    Blend: AUG-CC-PVTZ-RI
    Molecular point group: c1

    Geometry (in Angstrom), charge = 0, multiplicity = 1:

       Center              X                  Y                   Z               Mass
    ------------   -----------------  -----------------  -----------------  -----------------
         BR           2.842037157641    -0.778790464676     0.001504888484    78.918337600000
         BR          -2.843354842359    -0.778790464676     0.001504888484    78.918337600000
         C           -0.000658842359     2.273685535324    -0.015982111516    12.000000000000
         C           -1.208380842359     1.565115535324    -0.009768111516    12.000000000000
         C            1.207063157641     1.565115535324    -0.009768111516    12.000000000000
         C           -0.000658842359     3.780039535324     0.014168888484    12.000000000000
         C            1.189755157641     0.171349535324    -0.000265111516    12.000000000000
         C           -1.191072842359     0.171350535324    -0.000265111516    12.000000000000
         C           -0.000658842359    -0.554270464676     0.005651888484    12.000000000000
         H           -2.158076842359     2.093943535324    -0.017944111516     1.007825032230
         H            2.156760157641     2.093942535324    -0.017943111516     1.007825032230
         H           -0.000648842359     4.149238535324     1.045137888484     1.007825032230
         H            1.047155357641     4.255119935324    -0.576427411516     1.007825032230
         H           -0.886434842359     4.181647535324    -0.485072111516     1.007825032230
         H           -0.000659842359    -1.639252464676     0.009787888484     1.007825032230

  Basis Set: AUG-CC-PVTZ
    Blend: AUG-CC-PVTZ
  Basis Set: (AUG-CC-PVTZ AUX)
    Blend: AUG-CC-PVTZ-JKFIT
	 Reference Energy          =   -5413.5626880954250737 [Eh]
	 Singles Energy            =      -0.0000000000000000 [Eh]
	 Same-Spin Energy          =      -0.4880899776345364 [Eh]
	 Opposite-Spin Energy      =      -1.3659595899703150 [Eh]
	 Correlation Energy        =      -1.8540495676048514 [Eh]
	 Total Energy              =   -5415.4167376630302897 [Eh]

	 ================> DF-SCS-MP2 Energies <==================
	-----------------------------------------------------------
	 SCS Same-Spin Scale       =       0.3333333333333333 [-]
	 SCS Opposite-Spin Scale   =       1.2000000000000000 [-]
	 SCS Same-Spin Energy      =      -0.1626966592115121 [Eh]
	 SCS Opposite-Spin Energy  =      -1.6391515079643779 [Eh]
	 SCS Correlation Energy    =      -1.8018481671758901 [Eh]
	 SCS Total Energy          =   -5415.3645362626011774 [Eh]
	-----------------------------------------------------------

  Dipole Moment: [D]
     X:    -0.0744      Y:     2.0765      Z:     0.0754     Total:     2.0792

*** Psi4 exiting successfully. Buy a developer a beer!
