                               Psi4 1.4a3.dev225

  ==> Input File <==

--------------------------------------------------------------------------
#psi4
#
memory 32 gb

molecule  {
0 1
 Br        2.8426960    -0.9006560     0.0010230
 Br       -2.8426960    -0.9006560     0.0010230
  C        0.0000000     2.1518200    -0.0164640
  C       -1.2077220     1.4432500    -0.0102500
  C        1.2077220     1.4432500    -0.0102500
  C        0.0000000     3.6581740     0.0136870
  C        1.1910348     0.0994790    -0.0010879
  C       -1.1904140     0.0494850    -0.0007470
  C        0.0000000    -0.6761360     0.0051700
  H       -2.1574180     1.9720780    -0.0184260
  H        2.1574190     1.9720770    -0.0184250
  H        0.0000100     4.0273730     1.0446560
  H        0.8857670     4.0597820    -0.4855720
  H       -0.8857760     4.0597820    -0.4855540
  H       -0.0000010    -1.7611180     0.0093060
units angstrom
no_reorient  #important for SAPT in psi4, default
symmetry c1  #important for SAPT in psi4, default
}

set PROPERTIES_ORIGIN ["COM"]
properties('MP2/aug-cc-pvtz', properties = ['dipole'])
--------------------------------------------------------------------------

    Molecular point group: c1
  Charge       = 0
  Multiplicity = 1
  Basis Set: AUG-CC-PVTZ
    Blend: AUG-CC-PVTZ
  Basis Set: (AUG-CC-PVTZ AUX)
    Blend: AUG-CC-PVTZ-JKFIT

    Orbital Energies [Eh]
    ---------------------

    Doubly Occupied:

       1A   -490.032100     2A   -490.029582     3A    -65.171818
       4A    -65.169205     5A    -58.527140     6A    -58.525736
       7A    -58.525706     8A    -58.524540     9A    -58.523124
      10A    -58.523097    11A    -11.315483    12A    -11.314488
      13A    -11.274038    14A    -11.268116    15A    -11.258766
      16A    -11.254546    17A    -11.243705    18A     -9.844524
      19A     -9.841751    20A     -7.456153    21A     -7.453318
      22A     -7.449293    23A     -7.449243    24A     -7.446510
      25A     -7.446477    26A     -3.199939    27A     -3.197074
      28A     -3.196376    29A     -3.196160    30A     -3.193575
      31A     -3.193384    32A     -3.187402    33A     -3.187393
      34A     -3.184641    35A     -3.184632    36A     -1.197936
      37A     -1.097244    38A     -1.085901    39A     -1.002154
      40A     -0.981518    41A     -0.959550    42A     -0.818984
      43A     -0.811966    44A     -0.711024    45A     -0.679213
      46A     -0.605940    47A     -0.599136    48A     -0.588498
      49A     -0.584055    50A     -0.560241    51A     -0.542893
      52A     -0.513278    53A     -0.485199    54A     -0.467239
      55A     -0.425598    56A     -0.422970    57A     -0.418536
      58A     -0.346616    59A     -0.342203

  @DF-RHF Final Energy: -5413.58054076733606

   => Energetics <=

    Nuclear Repulsion Energy =            881.3181982109923638
    One-Electron Energy =               -9283.7236238255482021
    Two-Electron Energy =                2988.8248848472185273
    Total Energy =                      -5413.5805407673369700
  Basis Set: (AUG-CC-PVTZ AUX)
    Blend: AUG-CC-PVTZ-RI
    Molecular point group: c1

    Geometry (in Angstrom), charge = 0, multiplicity = 1:

       Center              X                  Y                   Z               Mass
    ------------   -----------------  -----------------  -----------------  -----------------
         BR           2.842665943122    -0.780911995194     0.001150039643    78.918337600000
         BR          -2.842726056878    -0.780911995194     0.001150039643    78.918337600000
         C           -0.000030056878     2.271564004806    -0.016336960357    12.000000000000
         C           -1.207752056878     1.562994004806    -0.010122960357    12.000000000000
         C            1.207691943122     1.562994004806    -0.010122960357    12.000000000000
         C           -0.000030056878     3.777918004806     0.013814039643    12.000000000000
         C            1.191004743122     0.219223004806    -0.000960860357    12.000000000000
         C           -1.190444056878     0.169229004806    -0.000619960357    12.000000000000
         C           -0.000030056878    -0.556391995194     0.005297039643    12.000000000000
         H           -2.157448056878     2.091822004806    -0.018298960357     1.007825032230
         H            2.157388943122     2.091821004806    -0.018297960357     1.007825032230
         H           -0.000020056878     4.147117004806     1.044783039643     1.007825032230
         H            0.885736943122     4.179526004806    -0.485444960357     1.007825032230
         H           -0.885806056878     4.179526004806    -0.485426960357     1.007825032230
         H           -0.000031056878    -1.641373995194     0.009433039643     1.007825032230

  Basis Set: AUG-CC-PVTZ
    Blend: AUG-CC-PVTZ
  Basis Set: (AUG-CC-PVTZ AUX)
    Blend: AUG-CC-PVTZ-JKFIT
	 Reference Energy          =   -5413.5805407673360605 [Eh]
	 Singles Energy            =      -0.0000000000000000 [Eh]
	 Same-Spin Energy          =      -0.4877482763777191 [Eh]
	 Opposite-Spin Energy      =      -1.3639715904839349 [Eh]
	 Correlation Energy        =      -1.8517198668616539 [Eh]
	 Total Energy              =   -5415.4322606341975188 [Eh]

	 ================> DF-SCS-MP2 Energies <==================
	-----------------------------------------------------------
	 SCS Same-Spin Scale       =       0.3333333333333333 [-]
	 SCS Opposite-Spin Scale   =       1.2000000000000000 [-]
	 SCS Same-Spin Energy      =      -0.1625827587925730 [Eh]
	 SCS Opposite-Spin Energy  =      -1.6367659085807218 [Eh]
	 SCS Correlation Energy    =      -1.7993486673732948 [Eh]
	 SCS Total Energy          =   -5415.3798894347091846 [Eh]
	-----------------------------------------------------------

  Dipole Moment: [D]
     X:    -0.0967      Y:     2.2605      Z:     0.0364     Total:     2.2628

*** Psi4 exiting successfully. Buy a developer a beer!
