                               Psi4 1.4a3.dev225

  ==> Input File <==

--------------------------------------------------------------------------
#psi4
#
memory 32 gb

molecule  {
0 1
 Br        2.8426960    -0.9006560     0.0010230
 Br       -2.8426960    -0.9006560     0.0010230
  C        0.0000000     2.1518200    -0.0164640
  C       -1.2077220     1.4432500    -0.0102500
  C        1.1270786     1.3209226    -0.0140604
  C        0.0000000     3.6581740     0.0136870
  C        1.1904140     0.0494840    -0.0007470
  C       -1.1904140     0.0494850    -0.0007470
  C        0.0000000    -0.6761360     0.0051700
  H       -2.1574180     1.9720780    -0.0184260
  H        2.1574190     1.9720770    -0.0184250
  H        0.0000100     4.0273730     1.0446560
  H        0.8857670     4.0597820    -0.4855720
  H       -0.8857760     4.0597820    -0.4855540
  H       -0.0000010    -1.7611180     0.0093060
units angstrom
no_reorient  #important for SAPT in psi4, default
symmetry c1  #important for SAPT in psi4, default
}

set PROPERTIES_ORIGIN ["COM"]
properties('MP2/aug-cc-pvtz', properties = ['dipole'])
--------------------------------------------------------------------------

    Molecular point group: c1
  Charge       = 0
  Multiplicity = 1
  Basis Set: AUG-CC-PVTZ
    Blend: AUG-CC-PVTZ
  Basis Set: (AUG-CC-PVTZ AUX)
    Blend: AUG-CC-PVTZ-JKFIT

    Orbital Energies [Eh]
    ---------------------

    Doubly Occupied:

       1A   -490.033461     2A   -490.030573     3A    -65.173126
       4A    -65.170278     5A    -58.528478     6A    -58.527025
       7A    -58.526999     8A    -58.525606     9A    -58.524194
      10A    -58.524171    11A    -11.311661    12A    -11.299196
      13A    -11.273226    14A    -11.264444    15A    -11.258501
      16A    -11.255516    17A    -11.247274    18A     -9.845770
      19A     -9.842971    20A     -7.457500    21A     -7.454614
      22A     -7.450452    23A     -7.450409    24A     -7.447720
      25A     -7.447702    26A     -3.201336    27A     -3.198405
      28A     -3.197683    29A     -3.197473    30A     -3.194822
      31A     -3.194635    32A     -3.188473    33A     -3.188464
      34A     -3.185833    35A     -3.185824    36A     -1.208885
      37A     -1.103210    38A     -1.086449    39A     -1.007777
      40A     -0.979704    41A     -0.961799    42A     -0.831296
      43A     -0.807742    44A     -0.697424    45A     -0.683843
      46A     -0.608143    47A     -0.601319    48A     -0.587718
      49A     -0.563032    50A     -0.554528    51A     -0.550941
      52A     -0.523426    53A     -0.472353    54A     -0.470954
      55A     -0.426962    56A     -0.424755    57A     -0.419444
      58A     -0.350681    59A     -0.341603

  @DF-RHF Final Energy: -5413.55527258187431

   => Energetics <=

    Nuclear Repulsion Energy =            884.8326717594898128
    One-Electron Energy =               -9290.6402891470097529
    Two-Electron Energy =                2992.2523448056454072
    Total Energy =                      -5413.5552725818743056
  Basis Set: (AUG-CC-PVTZ AUX)
    Blend: AUG-CC-PVTZ-RI
    Molecular point group: c1

    Geometry (in Angstrom), charge = 0, multiplicity = 1:

       Center              X                  Y                   Z               Mass
    ------------   -----------------  -----------------  -----------------  -----------------
         BR           2.846599927864    -0.772569900000     0.001317997489    78.918337600000
         BR          -2.838792072136    -0.772569900000     0.001317997489    78.918337600000
         C            0.003903927864     2.279906100000    -0.016169002511    12.000000000000
         C           -1.203818072136     1.571336100000    -0.009955002511    12.000000000000
         C            1.130982527864     1.449008700000    -0.013765402511    12.000000000000
         C            0.003903927864     3.786260100000     0.013981997489    12.000000000000
         C            1.194317927864     0.177570100000    -0.000452002511    12.000000000000
         C           -1.186510072136     0.177571100000    -0.000452002511    12.000000000000
         C            0.003903927864    -0.548049900000     0.005464997489    12.000000000000
         H           -2.153514072136     2.100164100000    -0.018131002511     1.007825032230
         H            2.161322927864     2.100163100000    -0.018130002511     1.007825032230
         H            0.003913927864     4.155459100000     1.044950997489     1.007825032230
         H            0.889670927864     4.187868100000    -0.485277002511     1.007825032230
         H           -0.881872072136     4.187868100000    -0.485259002511     1.007825032230
         H            0.003902927864    -1.633031900000     0.009600997489     1.007825032230

  Basis Set: AUG-CC-PVTZ
    Blend: AUG-CC-PVTZ
  Basis Set: (AUG-CC-PVTZ AUX)
    Blend: AUG-CC-PVTZ-JKFIT
	 Reference Energy          =   -5413.5552725818743056 [Eh]
	 Singles Energy            =      -0.0000000000000000 [Eh]
	 Same-Spin Energy          =      -0.4884359425661415 [Eh]
	 Opposite-Spin Energy      =      -1.3651515242951819 [Eh]
	 Correlation Energy        =      -1.8535874668613235 [Eh]
	 Total Energy              =   -5415.4088600487357326 [Eh]

	 ================> DF-SCS-MP2 Energies <==================
	-----------------------------------------------------------
	 SCS Same-Spin Scale       =       0.3333333333333333 [-]
	 SCS Opposite-Spin Scale   =       1.2000000000000000 [-]
	 SCS Same-Spin Energy      =      -0.1628119808553805 [Eh]
	 SCS Opposite-Spin Energy  =      -1.6381818291542183 [Eh]
	 SCS Correlation Energy    =      -1.8009938100095988 [Eh]
	 SCS Total Energy          =   -5415.3562663918837643 [Eh]
	-----------------------------------------------------------

  Dipole Moment: [D]
     X:    -0.0260      Y:     2.2503      Z:     0.0395     Total:     2.2508

*** Psi4 exiting successfully. Buy a developer a beer!
