                               Psi4 1.4a3.dev225

  ==> Input File <==

--------------------------------------------------------------------------
#psi4
#
memory 32 gb

molecule  {
0 1
 Br        2.7723931    -1.0135969     0.0017299
 Br       -2.8426960    -0.9006560     0.0010230
  C        0.0000000     2.1518200    -0.0164640
  C       -1.2077220     1.4432500    -0.0102500
  C        1.2077220     1.4432500    -0.0102500
  C        0.0000000     3.6581740     0.0136870
  C        1.1904140     0.0494840    -0.0007470
  C       -1.1904140     0.0494850    -0.0007470
  C        0.0000000    -0.6761360     0.0051700
  H       -2.1574180     1.9720780    -0.0184260
  H        2.1574190     1.9720770    -0.0184250
  H        0.0000100     4.0273730     1.0446560
  H        0.8857670     4.0597820    -0.4855720
  H       -0.8857760     4.0597820    -0.4855540
  H       -0.0000010    -1.7611180     0.0093060
units angstrom
no_reorient  #important for SAPT in psi4, default
symmetry c1  #important for SAPT in psi4, default
}

set PROPERTIES_ORIGIN ["COM"]
properties('MP2/aug-cc-pvtz', properties = ['dipole'])
--------------------------------------------------------------------------

    Molecular point group: c1
  Charge       = 0
  Multiplicity = 1
  Basis Set: AUG-CC-PVTZ
    Blend: AUG-CC-PVTZ
  Basis Set: (AUG-CC-PVTZ AUX)
    Blend: AUG-CC-PVTZ-JKFIT

    Orbital Energies [Eh]
    ---------------------

    Doubly Occupied:

       1A   -490.031930     2A   -490.031573     3A    -65.171645
       4A    -65.171285     5A    -58.526971     6A    -58.526608
       7A    -58.525560     8A    -58.525529     9A    -58.525205
      10A    -58.525175    11A    -11.314972    12A    -11.314345
      13A    -11.273141    14A    -11.263399    15A    -11.260256
      16A    -11.258812    17A    -11.243259    18A     -9.844353
      19A     -9.843988    20A     -7.455996    21A     -7.455615
      22A     -7.449110    23A     -7.449058    24A     -7.448760
      25A     -7.448708    26A     -3.199791    27A     -3.199402
      28A     -3.196221    29A     -3.195997    30A     -3.195844
      31A     -3.195622    32A     -3.187202    33A     -3.187192
      34A     -3.186868    35A     -3.186859    36A     -1.195095
      37A     -1.094583    38A     -1.089352    39A     -1.003177
      40A     -0.978090    41A     -0.958942    42A     -0.815999
      43A     -0.813727    44A     -0.709025    45A     -0.677694
      46A     -0.604591    47A     -0.598179    48A     -0.587545
      49A     -0.583430    50A     -0.560053    51A     -0.542013
      52A     -0.511545    53A     -0.490681    54A     -0.466881
      55A     -0.425961    56A     -0.423576    57A     -0.419179
      58A     -0.344941    59A     -0.340281

  @DF-RHF Final Energy: -5413.58195859597072

   => Energetics <=

    Nuclear Repulsion Energy =            882.8240069057395658
    One-Electron Energy =               -9286.7103471245009132
    Two-Electron Energy =                2990.3043816227905154
    Total Energy =                      -5413.5819585959707183
  Basis Set: (AUG-CC-PVTZ AUX)
    Blend: AUG-CC-PVTZ-RI
    Molecular point group: c1

    Geometry (in Angstrom), charge = 0, multiplicity = 1:

       Center              X                  Y                   Z               Mass
    ------------   -----------------  -----------------  -----------------  -----------------
         BR           2.794775324642    -0.855475821839     0.001615382046    78.918337600000
         BR          -2.820313775358    -0.742534921839     0.000908482046    78.918337600000
         C            0.022382224642     2.309941078161    -0.016578517954    12.000000000000
         C           -1.185339775358     1.601371078161    -0.010364517954    12.000000000000
         C            1.230104224642     1.601371078161    -0.010364517954    12.000000000000
         C            0.022382224642     3.816295078161     0.013572482046    12.000000000000
         C            1.212796224642     0.207605078161    -0.000861517954    12.000000000000
         C           -1.168031775358     0.207606078161    -0.000861517954    12.000000000000
         C            0.022382224642    -0.518014921839     0.005055482046    12.000000000000
         H           -2.135035775358     2.130199078161    -0.018540517954     1.007825032230
         H            2.179801224642     2.130198078161    -0.018539517954     1.007825032230
         H            0.022392224642     4.185494078161     1.044541482046     1.007825032230
         H            0.908149224642     4.217903078161    -0.485686517954     1.007825032230
         H           -0.863393775358     4.217903078161    -0.485668517954     1.007825032230
         H            0.022381224642    -1.602996921839     0.009191482046     1.007825032230

  Basis Set: AUG-CC-PVTZ
    Blend: AUG-CC-PVTZ
  Basis Set: (AUG-CC-PVTZ AUX)
    Blend: AUG-CC-PVTZ-JKFIT
	 Reference Energy          =   -5413.5819585959707183 [Eh]
	 Singles Energy            =      -0.0000000000000000 [Eh]
	 Same-Spin Energy          =      -0.4881111499382995 [Eh]
	 Opposite-Spin Energy      =      -1.3643965222188381 [Eh]
	 Correlation Energy        =      -1.8525076721571376 [Eh]
	 Total Energy              =   -5415.4344662681278351 [Eh]

	 ================> DF-SCS-MP2 Energies <==================
	-----------------------------------------------------------
	 SCS Same-Spin Scale       =       0.3333333333333333 [-]
	 SCS Opposite-Spin Scale   =       1.2000000000000000 [-]
	 SCS Same-Spin Energy      =      -0.1627037166460998 [Eh]
	 SCS Opposite-Spin Energy  =      -1.6372758266626057 [Eh]
	 SCS Correlation Energy    =      -1.7999795433087056 [Eh]
	 SCS Total Energy          =   -5415.3819381392795549 [Eh]
	-----------------------------------------------------------

  Dipole Moment: [D]
     X:     0.0259      Y:     2.2167      Z:     0.0362     Total:     2.2171

*** Psi4 exiting successfully. Buy a developer a beer!
