                               Psi4 1.4a3.dev225

  ==> Input File <==

--------------------------------------------------------------------------
#psi4
#
memory 32 gb

molecule  {
0 1
 Br        2.8426960    -0.9006560     0.0010230
 Br       -2.8426960    -0.9006560     0.0010230
  C        0.0000000     2.1518200    -0.0164640
  C       -1.2077220     1.4432500    -0.0102500
  C        1.2077220     1.4432500    -0.0102500
  C        0.0000000     3.6581740     0.0136870
  C        1.1904140     0.0494840    -0.0007470
  C       -1.1928974     0.2494649    -0.0021105
  C        0.0000000    -0.6761360     0.0051700
  H       -2.1574180     1.9720780    -0.0184260
  H        2.1574190     1.9720770    -0.0184250
  H        0.0000100     4.0273730     1.0446560
  H        0.8857670     4.0597820    -0.4855720
  H       -0.8857760     4.0597820    -0.4855540
  H       -0.0000010    -1.7611180     0.0093060
units angstrom
no_reorient  #important for SAPT in psi4, default
symmetry c1  #important for SAPT in psi4, default
}

set PROPERTIES_ORIGIN ["COM"]
properties('MP2/aug-cc-pvtz', properties = ['dipole'])
--------------------------------------------------------------------------

    Molecular point group: c1
  Charge       = 0
  Multiplicity = 1
  Basis Set: AUG-CC-PVTZ
    Blend: AUG-CC-PVTZ
  Basis Set: (AUG-CC-PVTZ AUX)
    Blend: AUG-CC-PVTZ-JKFIT

    Orbital Energies [Eh]
    ---------------------

    Doubly Occupied:

       1A   -490.032603     2A   -490.020662     3A    -65.172347
       4A    -65.160119     5A    -58.527661     6A    -58.526266
       7A    -58.526235     8A    -58.515455     9A    -58.514044
      10A    -58.514020    11A    -11.317098    12A    -11.309747
      13A    -11.279550    14A    -11.277608    15A    -11.259612
      16A    -11.246599    17A    -11.238504    18A     -9.845074
      19A     -9.832308    20A     -7.456684    21A     -7.449858
      22A     -7.449803    23A     -7.443642    24A     -7.437094
      25A     -7.437086    26A     -3.200455    27A     -3.196904
      28A     -3.196692    29A     -3.187984    30A     -3.187974
      31A     -3.187261    32A     -3.183995    33A     -3.183868
      34A     -3.175345    35A     -3.175336    36A     -1.213723
      37A     -1.111252    38A     -1.078437    39A     -0.997469
      40A     -0.993790    41A     -0.956295    42A     -0.834240
      43A     -0.799455    44A     -0.718862    45A     -0.680963
      46A     -0.614823    47A     -0.604384    48A     -0.597552
      49A     -0.578105    50A     -0.562032    51A     -0.549902
      52A     -0.517727    53A     -0.472523    54A     -0.460932
      55A     -0.424509    56A     -0.419874    57A     -0.411085
      58A     -0.367349    59A     -0.335053

  @DF-RHF Final Energy: -5413.52780243986945

   => Energetics <=

    Nuclear Repulsion Energy =            880.6720535183169432
    One-Electron Energy =               -9282.4680494796411949
    Two-Electron Energy =                2988.2681935214536679
    Total Energy =                      -5413.5278024398703565
  Basis Set: (AUG-CC-PVTZ AUX)
    Blend: AUG-CC-PVTZ-RI
    Molecular point group: c1

    Geometry (in Angstrom), charge = 0, multiplicity = 1:

       Center              X                  Y                   Z               Mass
    ------------   -----------------  -----------------  -----------------  -----------------
         BR           2.842816216864    -0.788172736185     0.001199543518    78.918337600000
         BR          -2.842575783136    -0.788172736185     0.001199543518    78.918337600000
         C            0.000120216864     2.264303263815    -0.016287456482    12.000000000000
         C           -1.207601783136     1.555733263815    -0.010073456482    12.000000000000
         C            1.207842216864     1.555733263815    -0.010073456482    12.000000000000
         C            0.000120216864     3.770657263815     0.013863543518    12.000000000000
         C            1.190534216864     0.161967263815    -0.000570456482    12.000000000000
         C           -1.192777183136     0.361948163815    -0.001933956482    12.000000000000
         C            0.000120216864    -0.563652736185     0.005346543518    12.000000000000
         H           -2.157297783136     2.084561263815    -0.018249456482     1.007825032230
         H            2.157539216864     2.084560263815    -0.018248456482     1.007825032230
         H            0.000130216864     4.139856263815     1.044832543518     1.007825032230
         H            0.885887216864     4.172265263815    -0.485395456482     1.007825032230
         H           -0.885655783136     4.172265263815    -0.485377456482     1.007825032230
         H            0.000119216864    -1.648634736185     0.009482543518     1.007825032230

  Basis Set: AUG-CC-PVTZ
    Blend: AUG-CC-PVTZ
  Basis Set: (AUG-CC-PVTZ AUX)
    Blend: AUG-CC-PVTZ-JKFIT
	 Reference Energy          =   -5413.5278024398694470 [Eh]
	 Singles Energy            =      -0.0000000000000000 [Eh]
	 Same-Spin Energy          =      -0.4862785404724309 [Eh]
	 Opposite-Spin Energy      =      -1.3640387406993326 [Eh]
	 Correlation Energy        =      -1.8503172811717636 [Eh]
	 Total Energy              =   -5415.3781197210410028 [Eh]

	 ================> DF-SCS-MP2 Energies <==================
	-----------------------------------------------------------
	 SCS Same-Spin Scale       =       0.3333333333333333 [-]
	 SCS Opposite-Spin Scale   =       1.2000000000000000 [-]
	 SCS Same-Spin Energy      =      -0.1620928468241436 [Eh]
	 SCS Opposite-Spin Energy  =      -1.6368464888391991 [Eh]
	 SCS Correlation Energy    =      -1.7989393356633427 [Eh]
	 SCS Total Energy          =   -5415.3267417755323549 [Eh]
	-----------------------------------------------------------

  Dipole Moment: [D]
     X:     0.4093      Y:     2.5704      Z:     0.0357     Total:     2.6031

*** Psi4 exiting successfully. Buy a developer a beer!
