                               Psi4 1.4a3.dev225

  ==> Input File <==

--------------------------------------------------------------------------
#psi4
#
memory 32 gb

molecule  {
0 1
 Br        2.8426960    -0.9006560     0.0010230
 Br       -2.8426960    -0.9006560     0.0010230
  C        0.0000000     2.1518200    -0.0164640
  C       -1.2077220     1.4432500    -0.0102500
  C        1.2077220     1.4432500    -0.0102500
  C        0.0000000     3.6581740     0.0136870
  C        1.1904140     0.0494840    -0.0007470
  C       -1.1904140     0.0494850    -0.0007470
  C        0.0000000    -0.6761360     0.0051700
  H       -1.9826868     1.8747808    -0.0169217
  H        2.1574190     1.9720770    -0.0184250
  H        0.0000100     4.0273730     1.0446560
  H        0.8857670     4.0597820    -0.4855720
  H       -0.8857760     4.0597820    -0.4855540
  H       -0.0000010    -1.7611180     0.0093060
units angstrom
no_reorient  #important for SAPT in psi4, default
symmetry c1  #important for SAPT in psi4, default
}

set PROPERTIES_ORIGIN ["COM"]
properties('MP2/aug-cc-pvtz', properties = ['dipole'])
--------------------------------------------------------------------------

    Molecular point group: c1
  Charge       = 0
  Multiplicity = 1
  Basis Set: AUG-CC-PVTZ
    Blend: AUG-CC-PVTZ
  Basis Set: (AUG-CC-PVTZ AUX)
    Blend: AUG-CC-PVTZ-JKFIT

    Orbital Energies [Eh]
    ---------------------

    Doubly Occupied:

       1A   -490.032226     2A   -490.031820     3A    -65.171933
       4A    -65.171527     5A    -58.527255     6A    -58.526852
       7A    -58.525853     8A    -58.525826     9A    -58.525446
      10A    -58.525415    11A    -11.314866    12A    -11.314082
      13A    -11.271588    14A    -11.263881    15A    -11.257878
      16A    -11.243225    17A    -11.235822    18A     -9.844630
      19A     -9.844224    20A     -7.456251    21A     -7.455857
      22A     -7.449402    23A     -7.449361    24A     -7.448992
      25A     -7.448938    26A     -3.200032    27A     -3.199647
      28A     -3.196473    29A     -3.196269    30A     -3.196085
      31A     -3.195861    32A     -3.187524    33A     -3.187515
      34A     -3.187094    35A     -3.187085    36A     -1.196195
      37A     -1.098259    38A     -1.089081    39A     -1.004334
      40A     -0.986563    41A     -0.961146    42A     -0.829614
      43A     -0.813173    44A     -0.732936    45A     -0.677220
      46A     -0.607674    47A     -0.603883    48A     -0.597822
      49A     -0.585873    50A     -0.560565    51A     -0.541641
      52A     -0.511072    53A     -0.493021    54A     -0.467209
      55A     -0.425976    56A     -0.423110    57A     -0.419862
      58A     -0.345262    59A     -0.339590

  @DF-RHF Final Energy: -5413.54857012348020

   => Energetics <=

    Nuclear Repulsion Energy =            882.9220246368419112
    One-Electron Energy =               -9286.7255651801933709
    Two-Electron Energy =                2990.2549704198700056
    Total Energy =                      -5413.5485701234811131
  Basis Set: (AUG-CC-PVTZ AUX)
    Blend: AUG-CC-PVTZ-RI
    Molecular point group: c1

    Geometry (in Angstrom), charge = 0, multiplicity = 1:

       Center              X                  Y                   Z               Mass
    ------------   -----------------  -----------------  -----------------  -----------------
         BR           2.841985588069    -0.778096163560     0.001127420677    78.918337600000
         BR          -2.843406411931    -0.778096163560     0.001127420677    78.918337600000
         C           -0.000710411931     2.274379836440    -0.016359579323    12.000000000000
         C           -1.208432411931     1.565809836440    -0.010145579323    12.000000000000
         C            1.207011588069     1.565809836440    -0.010145579323    12.000000000000
         C           -0.000710411931     3.780733836440     0.013791420677    12.000000000000
         C            1.189703588069     0.172043836440    -0.000642579323    12.000000000000
         C           -1.191124411931     0.172044836440    -0.000642579323    12.000000000000
         C           -0.000710411931    -0.553576163560     0.005274420677    12.000000000000
         H           -1.983397211931     1.997340636440    -0.016817279323     1.007825032230
         H            2.156708588069     2.094636836440    -0.018320579323     1.007825032230
         H           -0.000700411931     4.149932836440     1.044760420677     1.007825032230
         H            0.885056588069     4.182341836440    -0.485467579323     1.007825032230
         H           -0.886486411931     4.182341836440    -0.485449579323     1.007825032230
         H           -0.000711411931    -1.638558163560     0.009410420677     1.007825032230

  Basis Set: AUG-CC-PVTZ
    Blend: AUG-CC-PVTZ
  Basis Set: (AUG-CC-PVTZ AUX)
    Blend: AUG-CC-PVTZ-JKFIT
	 Reference Energy          =   -5413.5485701234802036 [Eh]
	 Singles Energy            =      -0.0000000000000000 [Eh]
	 Same-Spin Energy          =      -0.4876643332334668 [Eh]
	 Opposite-Spin Energy      =      -1.3636839473246658 [Eh]
	 Correlation Energy        =      -1.8513482805581325 [Eh]
	 Total Energy              =   -5415.3999184040385444 [Eh]

	 ================> DF-SCS-MP2 Energies <==================
	-----------------------------------------------------------
	 SCS Same-Spin Scale       =       0.3333333333333333 [-]
	 SCS Opposite-Spin Scale   =       1.2000000000000000 [-]
	 SCS Same-Spin Energy      =      -0.1625547777444889 [Eh]
	 SCS Opposite-Spin Energy  =      -1.6364207367895989 [Eh]
	 SCS Correlation Energy    =      -1.7989755145340878 [Eh]
	 SCS Total Energy          =   -5415.3475456380147079 [Eh]
	-----------------------------------------------------------

  Dipole Moment: [D]
     X:     0.0068      Y:     2.1779      Z:     0.0361     Total:     2.1782

*** Psi4 exiting successfully. Buy a developer a beer!
