                               Psi4 1.4a3.dev225

  ==> Input File <==

--------------------------------------------------------------------------
#psi4
#
memory 32 gb

molecule  {
0 1
 Br        2.8426960    -0.9006560     0.0010230
 Br       -2.8426960    -0.9006560     0.0010230
  C        0.0000000     2.1518200    -0.0164640
  C       -1.1833943     1.4433399    -0.0102306
  C        1.2077220     1.4432500    -0.0102500
  C        0.0000000     3.6581740     0.0136870
  C        1.1904140     0.0494840    -0.0007470
  C       -1.1904140     0.0494850    -0.0007470
  C        0.0000000    -0.6761360     0.0051700
  H       -2.1574180     1.9720780    -0.0184260
  H        2.1574190     1.9720770    -0.0184250
  H        0.0000100     4.0273730     1.0446560
  H        0.8857670     4.0597820    -0.4855720
  H       -0.8857760     4.0597820    -0.4855540
  H       -0.0000010    -1.7611180     0.0093060
units angstrom
no_reorient  #important for SAPT in psi4, default
symmetry c1  #important for SAPT in psi4, default
}

set PROPERTIES_ORIGIN ["COM"]
properties('MP2/aug-cc-pvtz', properties = ['dipole'])
--------------------------------------------------------------------------

    Molecular point group: c1
  Charge       = 0
  Multiplicity = 1
  Basis Set: AUG-CC-PVTZ
    Blend: AUG-CC-PVTZ
  Basis Set: (AUG-CC-PVTZ AUX)
    Blend: AUG-CC-PVTZ-JKFIT

    Orbital Energies [Eh]
    ---------------------

    Doubly Occupied:

       1A   -490.033022     2A   -490.031660     3A    -65.172696
       4A    -65.171367     5A    -58.528030     6A    -58.526693
       7A    -58.526612     8A    -58.526583     9A    -58.525285
      10A    -58.525257    11A    -11.314475    12A    -11.314243
      13A    -11.269648    14A    -11.264789    15A    -11.258908
      16A    -11.258065    17A    -11.242841    18A     -9.845365
      19A     -9.844066    20A     -7.457018    21A     -7.455701
      22A     -7.450111    23A     -7.450060    24A     -7.448828
      25A     -7.448785    26A     -3.200826    27A     -3.199492
      28A     -3.197242    29A     -3.197020    30A     -3.195923
      31A     -3.195711    32A     -3.188194    33A     -3.188185
      34A     -3.186934    35A     -3.186925    36A     -1.196604
      37A     -1.094699    38A     -1.090036    39A     -1.004625
      40A     -0.976629    41A     -0.959373    42A     -0.817820
      43A     -0.813287    44A     -0.706582    45A     -0.678506
      46A     -0.604906    47A     -0.598368    48A     -0.587311
      49A     -0.578390    50A     -0.559839    51A     -0.542374
      52A     -0.511288    53A     -0.491584    54A     -0.467283
      55A     -0.426390    56A     -0.424352    57A     -0.420027
      58A     -0.347107    59A     -0.339404

  @DF-RHF Final Energy: -5413.58241538767288

   => Energetics <=

    Nuclear Repulsion Energy =            881.8968654453825593
    One-Electron Energy =               -9284.8318778628781729
    Two-Electron Energy =                2989.3525970298233005
    Total Energy =                      -5413.5824153876728815
  Basis Set: (AUG-CC-PVTZ AUX)
    Blend: AUG-CC-PVTZ-RI
    Molecular point group: c1

    Geometry (in Angstrom), charge = 0, multiplicity = 1:

       Center              X                  Y                   Z               Mass
    ------------   -----------------  -----------------  -----------------  -----------------
         BR           2.841518296522    -0.778496098625     0.001132597587    78.918337600000
         BR          -2.843873703478    -0.778496098625     0.001132597587    78.918337600000
         C           -0.001177703478     2.273979901375    -0.016354402413    12.000000000000
         C           -1.184572003478     1.565499801375    -0.010121002413    12.000000000000
         C            1.206544296522     1.565409901375    -0.010140402413    12.000000000000
         C           -0.001177703478     3.780333901375     0.013796597587    12.000000000000
         C            1.189236296522     0.171643901375    -0.000637402413    12.000000000000
         C           -1.191591703478     0.171644901375    -0.000637402413    12.000000000000
         C           -0.001177703478    -0.553976098625     0.005279597587    12.000000000000
         H           -2.158595703478     2.094237901375    -0.018316402413     1.007825032230
         H            2.156241296522     2.094236901375    -0.018315402413     1.007825032230
         H           -0.001167703478     4.149532901375     1.044765597587     1.007825032230
         H            0.884589296522     4.181941901375    -0.485462402413     1.007825032230
         H           -0.886953703478     4.181941901375    -0.485444402413     1.007825032230
         H           -0.001178703478    -1.638958098625     0.009415597587     1.007825032230

  Basis Set: AUG-CC-PVTZ
    Blend: AUG-CC-PVTZ
  Basis Set: (AUG-CC-PVTZ AUX)
    Blend: AUG-CC-PVTZ-JKFIT
	 Reference Energy          =   -5413.5824153876728815 [Eh]
	 Singles Energy            =      -0.0000000000000000 [Eh]
	 Same-Spin Energy          =      -0.4880571729753447 [Eh]
	 Opposite-Spin Energy      =      -1.3642989894022313 [Eh]
	 Correlation Energy        =      -1.8523561623775759 [Eh]
	 Total Energy              =   -5415.4347715500507547 [Eh]

	 ================> DF-SCS-MP2 Energies <==================
	-----------------------------------------------------------
	 SCS Same-Spin Scale       =       0.3333333333333333 [-]
	 SCS Opposite-Spin Scale   =       1.2000000000000000 [-]
	 SCS Same-Spin Energy      =      -0.1626857243251149 [Eh]
	 SCS Opposite-Spin Energy  =      -1.6371587872826774 [Eh]
	 SCS Correlation Energy    =      -1.7998445116077924 [Eh]
	 SCS Total Energy          =   -5415.3822598992810526 [Eh]
	-----------------------------------------------------------

  Dipole Moment: [D]
     X:    -0.0285      Y:     2.1512      Z:     0.0362     Total:     2.1517

*** Psi4 exiting successfully. Buy a developer a beer!
