                               Psi4 1.4a3.dev225

  ==> Input File <==

--------------------------------------------------------------------------
#psi4
#
memory 32 gb

molecule  {
0 1
 Br        2.8426960    -0.9006560     0.0010230
 Br       -2.8085305    -0.9577393     0.0015069
  C        0.0000000     2.1518200    -0.0164640
  C       -1.2077220     1.4432500    -0.0102500
  C        1.2077220     1.4432500    -0.0102500
  C        0.0000000     3.6581740     0.0136870
  C        1.1904140     0.0494840    -0.0007470
  C       -1.1904140     0.0494850    -0.0007470
  C        0.0000000    -0.6761360     0.0051700
  H       -2.1574180     1.9720780    -0.0184260
  H        2.1574190     1.9720770    -0.0184250
  H        0.0000100     4.0273730     1.0446560
  H        0.8857670     4.0597820    -0.4855720
  H       -0.8857760     4.0597820    -0.4855540
  H       -0.0000010    -1.7611180     0.0093060
units angstrom
no_reorient  #important for SAPT in psi4, default
symmetry c1  #important for SAPT in psi4, default
}

set PROPERTIES_ORIGIN ["COM"]
properties('MP2/aug-cc-pvtz', properties = ['dipole'])
--------------------------------------------------------------------------

    Molecular point group: c1
  Charge       = 0
  Multiplicity = 1
  Basis Set: AUG-CC-PVTZ
    Blend: AUG-CC-PVTZ
  Basis Set: (AUG-CC-PVTZ AUX)
    Blend: AUG-CC-PVTZ-JKFIT

    Orbital Energies [Eh]
    ---------------------

    Doubly Occupied:

       1A   -490.031959     2A   -490.031773     3A    -65.171668
       4A    -65.171482     5A    -58.526994     6A    -58.526806
       7A    -58.525586     8A    -58.525556     9A    -58.525401
      10A    -58.525371    11A    -11.314967    12A    -11.314657
      13A    -11.272824    14A    -11.264084    15A    -11.259544
      16A    -11.258822    17A    -11.243091    18A     -9.844369
      19A     -9.844183    20A     -7.456007    21A     -7.455814
      22A     -7.449132    23A     -7.449082    24A     -7.448952
      25A     -7.448901    26A     -3.199799    27A     -3.199603
      28A     -3.196232    29A     -3.196042    30A     -3.196011
      31A     -3.195820    32A     -3.187232    33A     -3.187223
      34A     -3.187057    35A     -3.187048    36A     -1.195040
      37A     -1.094808    38A     -1.088900    39A     -1.003748
      40A     -0.977448    41A     -0.959154    42A     -0.816173
      43A     -0.813539    44A     -0.709002    45A     -0.677614
      46A     -0.604377    47A     -0.598072    48A     -0.587996
      49A     -0.583234    50A     -0.560055    51A     -0.541994
      52A     -0.511104    53A     -0.491016    54A     -0.467070
      55A     -0.426020    56A     -0.423403    57A     -0.419563
      58A     -0.345320    59A     -0.340030

  @DF-RHF Final Energy: -5413.58273926539914

   => Energetics <=

    Nuclear Repulsion Energy =            882.1540659183311845
    One-Electron Energy =               -9285.3660683760590473
    Two-Electron Energy =                2989.6292631923270164
    Total Energy =                      -5413.5827392654000505
  Basis Set: (AUG-CC-PVTZ AUX)
    Blend: AUG-CC-PVTZ-RI
    Molecular point group: c1

    Geometry (in Angstrom), charge = 0, multiplicity = 1:

       Center              X                  Y                   Z               Mass
    ------------   -----------------  -----------------  -----------------  -----------------
         BR           2.831818777001    -0.760318222077     0.000979478221    78.918337600000
         BR          -2.819407722999    -0.817401522077     0.001463378221    78.918337600000
         C           -0.010877222999     2.292157777923    -0.016507521779    12.000000000000
         C           -1.218599222999     1.583587777923    -0.010293521779    12.000000000000
         C            1.196844777001     1.583587777923    -0.010293521779    12.000000000000
         C           -0.010877222999     3.798511777923     0.013643478221    12.000000000000
         C            1.179536777001     0.189821777923    -0.000790521779    12.000000000000
         C           -1.201291222999     0.189822777923    -0.000790521779    12.000000000000
         C           -0.010877222999    -0.535798222077     0.005126478221    12.000000000000
         H           -2.168295222999     2.112415777923    -0.018469521779     1.007825032230
         H            2.146541777001     2.112414777923    -0.018468521779     1.007825032230
         H           -0.010867222999     4.167710777923     1.044612478221     1.007825032230
         H            0.874889777001     4.200119777923    -0.485615521779     1.007825032230
         H           -0.896653222999     4.200119777923    -0.485597521779     1.007825032230
         H           -0.010878222999    -1.620780222077     0.009262478221     1.007825032230

  Basis Set: AUG-CC-PVTZ
    Blend: AUG-CC-PVTZ
  Basis Set: (AUG-CC-PVTZ AUX)
    Blend: AUG-CC-PVTZ-JKFIT
	 Reference Energy          =   -5413.5827392653991410 [Eh]
	 Singles Energy            =      -0.0000000000000000 [Eh]
	 Same-Spin Energy          =      -0.4880572016747289 [Eh]
	 Opposite-Spin Energy      =      -1.3643125023891922 [Eh]
	 Correlation Energy        =      -1.8523697040639211 [Eh]
	 Total Energy              =   -5415.4351089694628172 [Eh]

	 ================> DF-SCS-MP2 Energies <==================
	-----------------------------------------------------------
	 SCS Same-Spin Scale       =       0.3333333333333333 [-]
	 SCS Opposite-Spin Scale   =       1.2000000000000000 [-]
	 SCS Same-Spin Energy      =      -0.1626857338915763 [Eh]
	 SCS Opposite-Spin Energy  =      -1.6371750028670307 [Eh]
	 SCS Correlation Energy    =      -1.7998607367586070 [Eh]
	 SCS Total Energy          =   -5415.3826000021581422 [Eh]
	-----------------------------------------------------------

  Dipole Moment: [D]
     X:    -0.0132      Y:     2.1978      Z:     0.0364     Total:     2.1981

*** Psi4 exiting successfully. Buy a developer a beer!
