                               Psi4 1.4a3.dev225

  ==> Input File <==

--------------------------------------------------------------------------
#psi4
#
memory 32 gb

molecule  {
0 1
 Br        2.8426960    -0.9006560     0.0010230
 Br       -2.8426960    -0.9006560     0.0010230
  C        0.0000000     2.1518200    -0.0164640
  C       -1.2077220     1.4432500    -0.0102500
  C        1.3802228     1.3420438    -0.0093624
  C        0.0000000     3.6581740     0.0136870
  C        1.1904140     0.0494840    -0.0007470
  C       -1.1904140     0.0494850    -0.0007470
  C        0.0000000    -0.6761360     0.0051700
  H       -2.1574180     1.9720780    -0.0184260
  H        2.1574190     1.9720770    -0.0184250
  H        0.0000100     4.0273730     1.0446560
  H        0.8857670     4.0597820    -0.4855720
  H       -0.8857760     4.0597820    -0.4855540
  H       -0.0000010    -1.7611180     0.0093060
units angstrom
no_reorient  #important for SAPT in psi4, default
symmetry c1  #important for SAPT in psi4, default
}

set PROPERTIES_ORIGIN ["COM"]
properties('MP2/aug-cc-pvtz', properties = ['dipole'])
--------------------------------------------------------------------------

    Molecular point group: c1
  Charge       = 0
  Multiplicity = 1
  Basis Set: AUG-CC-PVTZ
    Blend: AUG-CC-PVTZ
  Basis Set: (AUG-CC-PVTZ AUX)
    Blend: AUG-CC-PVTZ-JKFIT

    Orbital Energies [Eh]
    ---------------------

    Doubly Occupied:

       1A   -490.034056     2A   -490.022634     3A    -65.173755
       4A    -65.162654     5A    -58.529080     6A    -58.527676
       7A    -58.527635     8A    -58.517910     9A    -58.516566
      10A    -58.516547    11A    -11.319632    12A    -11.309410
      13A    -11.291946    14A    -11.264247    15A    -11.262517
      16A    -11.257541    17A    -11.246651    18A     -9.846448
      19A     -9.835635    20A     -7.458082    21A     -7.451227
      22A     -7.451128    23A     -7.447169    24A     -7.440497
      25A     -7.440482    26A     -3.201880    27A     -3.198332
      28A     -3.198059    29A     -3.190813    30A     -3.189303
      31A     -3.189293    32A     -3.187345    33A     -3.187199
      34A     -3.178739    35A     -3.178726    36A     -1.192763
      37A     -1.106512    38A     -1.076091    39A     -1.003670
      40A     -0.978916    41A     -0.962297    42A     -0.823415
      43A     -0.803433    44A     -0.722527    45A     -0.679925
      46A     -0.613572    47A     -0.598126    48A     -0.596154
      49A     -0.585946    50A     -0.559454    51A     -0.545311
      52A     -0.515278    53A     -0.471359    54A     -0.464627
      55A     -0.424820    56A     -0.416227    57A     -0.413836
      58A     -0.353433    59A     -0.331038

  @DF-RHF Final Energy: -5413.54235083791446

   => Energetics <=

    Nuclear Repulsion Energy =            881.7119586326330136
    One-Electron Energy =               -9284.5295252647629241
    Two-Electron Energy =                2989.2752157942145459
    Total Energy =                      -5413.5423508379153645
  Basis Set: (AUG-CC-PVTZ AUX)
    Blend: AUG-CC-PVTZ-RI
    Molecular point group: c1

    Geometry (in Angstrom), charge = 0, multiplicity = 1:

       Center              X                  Y                   Z               Mass
    ------------   -----------------  -----------------  -----------------  -----------------
         BR           2.834345264430    -0.773592373346     0.001090568187    78.918337600000
         BR          -2.851046735570    -0.773592373346     0.001090568187    78.918337600000
         C           -0.008350735570     2.278883626654    -0.016396431813    12.000000000000
         C           -1.216072735570     1.570313626654    -0.010182431813    12.000000000000
         C            1.371872064430     1.469107426654    -0.009294831813    12.000000000000
         C           -0.008350735570     3.785237626654     0.013754568187    12.000000000000
         C            1.182063264430     0.176547626654    -0.000679431813    12.000000000000
         C           -1.198764735570     0.176548626654    -0.000679431813    12.000000000000
         C           -0.008350735570    -0.549072373346     0.005237568187    12.000000000000
         H           -2.165768735570     2.099141626654    -0.018358431813     1.007825032230
         H            2.149068264430     2.099140626654    -0.018357431813     1.007825032230
         H           -0.008340735570     4.154436626654     1.044723568187     1.007825032230
         H            0.877416264430     4.186845626654    -0.485504431813     1.007825032230
         H           -0.894126735570     4.186845626654    -0.485486431813     1.007825032230
         H           -0.008351735570    -1.634054373346     0.009373568187     1.007825032230

  Basis Set: AUG-CC-PVTZ
    Blend: AUG-CC-PVTZ
  Basis Set: (AUG-CC-PVTZ AUX)
    Blend: AUG-CC-PVTZ-JKFIT
	 Reference Energy          =   -5413.5423508379144550 [Eh]
	 Singles Energy            =      -0.0000000000000000 [Eh]
	 Same-Spin Energy          =      -0.4878428379577306 [Eh]
	 Opposite-Spin Energy      =      -1.3660728417753780 [Eh]
	 Correlation Energy        =      -1.8539156797331087 [Eh]
	 Total Energy              =   -5415.3962665176477458 [Eh]

	 ================> DF-SCS-MP2 Energies <==================
	-----------------------------------------------------------
	 SCS Same-Spin Scale       =       0.3333333333333333 [-]
	 SCS Opposite-Spin Scale   =       1.2000000000000000 [-]
	 SCS Same-Spin Energy      =      -0.1626142793192435 [Eh]
	 SCS Opposite-Spin Energy  =      -1.6392874101304535 [Eh]
	 SCS Correlation Energy    =      -1.8019016894496971 [Eh]
	 SCS Total Energy          =   -5415.3442525273640058 [Eh]
	-----------------------------------------------------------

  Dipole Moment: [D]
     X:    -0.3001      Y:     2.4720      Z:     0.0404     Total:     2.4905

*** Psi4 exiting successfully. Buy a developer a beer!
