                               Psi4 1.4a3.dev225

  ==> Input File <==

--------------------------------------------------------------------------
#psi4
#
memory 32 gb

molecule  {
0 1
 Br        2.8426960    -0.9006560     0.0010230
 Br       -2.8426960    -0.9006560     0.0010230
  C        0.0000000     2.1518200    -0.0164640
  C       -1.2077220     1.4432500    -0.0102500
  C        1.2077220     1.4432500    -0.0102500
  C        0.0000000     3.6581740     0.0136870
  C        1.1904140     0.0494840    -0.0007470
  C       -1.3637916    -0.0502154    -0.0005613
  C        0.0000000    -0.6761360     0.0051700
  H       -2.1574180     1.9720780    -0.0184260
  H        2.1574190     1.9720770    -0.0184250
  H        0.0000100     4.0273730     1.0446560
  H        0.8857670     4.0597820    -0.4855720
  H       -0.8857760     4.0597820    -0.4855540
  H       -0.0000010    -1.7611180     0.0093060
units angstrom
no_reorient  #important for SAPT in psi4, default
symmetry c1  #important for SAPT in psi4, default
}

set PROPERTIES_ORIGIN ["COM"]
properties('MP2/aug-cc-pvtz', properties = ['dipole'])
--------------------------------------------------------------------------

    Molecular point group: c1
  Charge       = 0
  Multiplicity = 1
  Basis Set: AUG-CC-PVTZ
    Blend: AUG-CC-PVTZ
  Basis Set: (AUG-CC-PVTZ AUX)
    Blend: AUG-CC-PVTZ-JKFIT

    Orbital Energies [Eh]
    ---------------------

    Doubly Occupied:

       1A   -490.047999     2A   -490.028867     3A    -65.189055
       4A    -65.168541     5A    -58.544132     6A    -58.542973
       7A    -58.542900     8A    -58.523879     9A    -58.522452
      10A    -58.522433    11A    -11.322895    12A    -11.309550
      13A    -11.269521    14A    -11.267485    15A    -11.264203
      16A    -11.255507    17A    -11.239734    18A     -9.863954
      19A     -9.841214    20A     -7.476174    21A     -7.468927
      22A     -7.468642    23A     -7.452883    24A     -7.445934
      25A     -7.445927    26A     -3.220177    27A     -3.216020
      28A     -3.215423    29A     -3.206969    30A     -3.206956
      31A     -3.196693    32A     -3.193081    33A     -3.192905
      34A     -3.184029    35A     -3.184020    36A     -1.181362
      37A     -1.127513    38A     -1.082082    39A     -1.001121
      40A     -0.969889    41A     -0.945300    42A     -0.809298
      43A     -0.803363    44A     -0.694269    45A     -0.664733
      46A     -0.624019    47A     -0.592431    48A     -0.583061
      49A     -0.563720    50A     -0.556289    51A     -0.536336
      52A     -0.524925    53A     -0.494420    54A     -0.483320
      55A     -0.427690    56A     -0.421900    57A     -0.416899
      58A     -0.337220    59A     -0.317713

  @DF-RHF Final Energy: -5413.53707395185575

   => Energetics <=

    Nuclear Repulsion Energy =            883.6942364063730793
    One-Electron Energy =               -9288.0607604570559488
    Two-Electron Energy =                2990.8294500988276923
    Total Energy =                      -5413.5370739518557457
  Basis Set: (AUG-CC-PVTZ AUX)
    Blend: AUG-CC-PVTZ-RI
    Molecular point group: c1

    Geometry (in Angstrom), charge = 0, multiplicity = 1:

       Center              X                  Y                   Z               Mass
    ------------   -----------------  -----------------  -----------------  -----------------
         BR           2.851089173163    -0.773665268843     0.001124547035    78.918337600000
         BR          -2.834302826837    -0.773665268843     0.001124547035    78.918337600000
         C            0.008393173163     2.278810731157    -0.016362452965    12.000000000000
         C           -1.199328826837     1.570240731157    -0.010148452965    12.000000000000
         C            1.216115173163     1.570240731157    -0.010148452965    12.000000000000
         C            0.008393173163     3.785164731157     0.013788547035    12.000000000000
         C            1.198807173163     0.176474731157    -0.000645452965    12.000000000000
         C           -1.355398426837     0.076775331157    -0.000459752965    12.000000000000
         C            0.008393173163    -0.549145268843     0.005271547035    12.000000000000
         H           -2.149024826837     2.099068731157    -0.018324452965     1.007825032230
         H            2.165812173163     2.099067731157    -0.018323452965     1.007825032230
         H            0.008403173163     4.154363731157     1.044757547035     1.007825032230
         H            0.894160173163     4.186772731157    -0.485470452965     1.007825032230
         H           -0.877382826837     4.186772731157    -0.485452452965     1.007825032230
         H            0.008392173163    -1.634127268843     0.009407547035     1.007825032230

  Basis Set: AUG-CC-PVTZ
    Blend: AUG-CC-PVTZ
  Basis Set: (AUG-CC-PVTZ AUX)
    Blend: AUG-CC-PVTZ-JKFIT
	 Reference Energy          =   -5413.5370739518557457 [Eh]
	 Singles Energy            =      -0.0000000000000000 [Eh]
	 Same-Spin Energy          =      -0.4920658074995480 [Eh]
	 Opposite-Spin Energy      =      -1.3709881290154375 [Eh]
	 Correlation Energy        =      -1.8630539365149856 [Eh]
	 Total Energy              =   -5415.4001278883706618 [Eh]

	 ================> DF-SCS-MP2 Energies <==================
	-----------------------------------------------------------
	 SCS Same-Spin Scale       =       0.3333333333333333 [-]
	 SCS Opposite-Spin Scale   =       1.2000000000000000 [-]
	 SCS Same-Spin Energy      =      -0.1640219358331827 [Eh]
	 SCS Opposite-Spin Energy  =      -1.6451857548185249 [Eh]
	 SCS Correlation Energy    =      -1.8092076906517076 [Eh]
	 SCS Total Energy          =   -5415.3462816425071651 [Eh]
	-----------------------------------------------------------

  Dipole Moment: [D]
     X:    -0.8476      Y:     1.6871      Z:     0.0355     Total:     1.8883

*** Psi4 exiting successfully. Buy a developer a beer!
