                               Psi4 1.4a3.dev225

  ==> Input File <==

--------------------------------------------------------------------------
#psi4
#
memory 32 gb

molecule  {
0 1
 Br        2.8426960    -0.9006560     0.0010230
 Br       -2.8426960    -0.9006560     0.0010230
  C        0.0000000     2.1518200    -0.0164640
  C       -1.2320445     1.4427355    -0.0102665
  C        1.2077220     1.4432500    -0.0102500
  C        0.0000000     3.6581740     0.0136870
  C        1.1904140     0.0494840    -0.0007470
  C       -1.1904140     0.0494850    -0.0007470
  C        0.0000000    -0.6761360     0.0051700
  H       -2.1574180     1.9720780    -0.0184260
  H        2.1574190     1.9720770    -0.0184250
  H        0.0000100     4.0273730     1.0446560
  H        0.8857670     4.0597820    -0.4855720
  H       -0.8857760     4.0597820    -0.4855540
  H       -0.0000010    -1.7611180     0.0093060
units angstrom
no_reorient  #important for SAPT in psi4, default
symmetry c1  #important for SAPT in psi4, default
}

set PROPERTIES_ORIGIN ["COM"]
properties('MP2/aug-cc-pvtz', properties = ['dipole'])
--------------------------------------------------------------------------

    Molecular point group: c1
  Charge       = 0
  Multiplicity = 1
  Basis Set: AUG-CC-PVTZ
    Blend: AUG-CC-PVTZ
  Basis Set: (AUG-CC-PVTZ AUX)
    Blend: AUG-CC-PVTZ-JKFIT

    Orbital Energies [Eh]
    ---------------------

    Doubly Occupied:

       1A   -490.032295     2A   -490.030905     3A    -65.172002
       4A    -65.170645     5A    -58.527327     6A    -58.525961
       7A    -58.525921     8A    -58.525890     9A    -58.524565
      10A    -58.524535    11A    -11.315685    12A    -11.315505
      13A    -11.275284    14A    -11.264773    15A    -11.259609
      16A    -11.258773    17A    -11.243016    18A     -9.844701
      19A     -9.843375    20A     -7.456335    21A     -7.454992
      22A     -7.449468    23A     -7.449412    24A     -7.448157
      25A     -7.448109    26A     -3.200127    27A     -3.198766
      28A     -3.196565    29A     -3.196337    30A     -3.195218
      31A     -3.195000    32A     -3.187568    33A     -3.187558
      34A     -3.186279    35A     -3.186270    36A     -1.193564
      37A     -1.095620    38A     -1.086904    39A     -1.004093
      40A     -0.976923    41A     -0.959304    42A     -0.817345
      43A     -0.811182    44A     -0.711568    45A     -0.676613
      46A     -0.603579    47A     -0.597738    48A     -0.591865
      49A     -0.585161    50A     -0.560084    51A     -0.541658
      52A     -0.510415    53A     -0.490220    54A     -0.467289
      55A     -0.425666    56A     -0.422174    57A     -0.419565
      58A     -0.344580    59A     -0.339866

  @DF-RHF Final Energy: -5413.58201617131363

   => Energetics <=

    Nuclear Repulsion Energy =            881.3282200665478285
    One-Electron Energy =               -9283.7206630583368678
    Two-Electron Energy =                2988.8104268204765503
    Total Energy =                      -5413.5820161713127163
  Basis Set: (AUG-CC-PVTZ AUX)
    Blend: AUG-CC-PVTZ-RI
    Molecular point group: c1

    Geometry (in Angstrom), charge = 0, multiplicity = 1:

       Center              X                  Y                   Z               Mass
    ------------   -----------------  -----------------  -----------------  -----------------
         BR           2.843873443616    -0.778466839734     0.001134335499    78.918337600000
         BR          -2.841518556384    -0.778466839734     0.001134335499    78.918337600000
         C            0.001177443616     2.274009160266    -0.016352664501    12.000000000000
         C           -1.230867056384     1.564924660266    -0.010155164501    12.000000000000
         C            1.208899443616     1.565439160266    -0.010138664501    12.000000000000
         C            0.001177443616     3.780363160266     0.013798335499    12.000000000000
         C            1.191591443616     0.171673160266    -0.000635664501    12.000000000000
         C           -1.189236556384     0.171674160266    -0.000635664501    12.000000000000
         C            0.001177443616    -0.553946839734     0.005281335499    12.000000000000
         H           -2.156240556384     2.094267160266    -0.018314664501     1.007825032230
         H            2.158596443616     2.094266160266    -0.018313664501     1.007825032230
         H            0.001187443616     4.149562160266     1.044767335499     1.007825032230
         H            0.886944443616     4.181971160266    -0.485460664501     1.007825032230
         H           -0.884598556384     4.181971160266    -0.485442664501     1.007825032230
         H            0.001176443616    -1.638928839734     0.009417335499     1.007825032230

  Basis Set: AUG-CC-PVTZ
    Blend: AUG-CC-PVTZ
  Basis Set: (AUG-CC-PVTZ AUX)
    Blend: AUG-CC-PVTZ-JKFIT
	 Reference Energy          =   -5413.5820161713136258 [Eh]
	 Singles Energy            =      -0.0000000000000000 [Eh]
	 Same-Spin Energy          =      -0.4880323026350806 [Eh]
	 Opposite-Spin Energy      =      -1.3643586317985315 [Eh]
	 Correlation Energy        =      -1.8523909344336120 [Eh]
	 Total Energy              =   -5415.4344071057475958 [Eh]

	 ================> DF-SCS-MP2 Energies <==================
	-----------------------------------------------------------
	 SCS Same-Spin Scale       =       0.3333333333333333 [-]
	 SCS Opposite-Spin Scale   =       1.2000000000000000 [-]
	 SCS Same-Spin Energy      =      -0.1626774342116935 [Eh]
	 SCS Opposite-Spin Energy  =      -1.6372303581582377 [Eh]
	 SCS Correlation Energy    =      -1.7999077923699311 [Eh]
	 SCS Total Energy          =   -5415.3819239636832208 [Eh]
	-----------------------------------------------------------

  Dipole Moment: [D]
     X:     0.0310      Y:     2.2057      Z:     0.0369     Total:     2.2063

*** Psi4 exiting successfully. Buy a developer a beer!
