                               Psi4 1.4a3.dev225

  ==> Input File <==

--------------------------------------------------------------------------
#psi4
#
memory 32 gb

molecule  {
0 1
 Br        2.8426960    -0.9006560     0.0010230
 Br       -2.8426960    -0.9006560     0.0010230
  C        0.0000000     2.1518200    -0.0164640
  C       -1.2077220     1.4432500    -0.0102500
  C        1.1951782     1.4222857    -0.0108815
  C        0.0000000     3.6581740     0.0136870
  C        1.1904140     0.0494840    -0.0007470
  C       -1.1904140     0.0494850    -0.0007470
  C        0.0000000    -0.6761360     0.0051700
  H       -2.1574180     1.9720780    -0.0184260
  H        2.1574190     1.9720770    -0.0184250
  H        0.0000100     4.0273730     1.0446560
  H        0.8857670     4.0597820    -0.4855720
  H       -0.8857760     4.0597820    -0.4855540
  H       -0.0000010    -1.7611180     0.0093060
units angstrom
no_reorient  #important for SAPT in psi4, default
symmetry c1  #important for SAPT in psi4, default
}

set PROPERTIES_ORIGIN ["COM"]
properties('MP2/aug-cc-pvtz', properties = ['dipole'])
--------------------------------------------------------------------------

    Molecular point group: c1
  Charge       = 0
  Multiplicity = 1
  Basis Set: AUG-CC-PVTZ
    Blend: AUG-CC-PVTZ
  Basis Set: (AUG-CC-PVTZ AUX)
    Blend: AUG-CC-PVTZ-JKFIT

    Orbital Energies [Eh]
    ---------------------

    Doubly Occupied:

       1A   -490.032175     2A   -490.031677     3A    -65.171876
       4A    -65.171385     5A    -58.527206     6A    -58.526710
       7A    -58.525792     8A    -58.525763     9A    -58.525302
      10A    -58.525274    11A    -11.314337    12A    -11.312410
      13A    -11.272414    14A    -11.264642    15A    -11.258696
      16A    -11.258191    17A    -11.243637    18A     -9.844567
      19A     -9.844083    20A     -7.456217    21A     -7.455719
      22A     -7.449319    23A     -7.449273    24A     -7.448846
      25A     -7.448801    26A     -3.200015    27A     -3.199510
      28A     -3.196435    29A     -3.196219    30A     -3.195941
      31A     -3.195727    32A     -3.187411    33A     -3.187402
      34A     -3.186951    35A     -3.186941    36A     -1.196883
      37A     -1.096270    38A     -1.088097    39A     -1.004629
      40A     -0.977191    41A     -0.959813    42A     -0.816929
      43A     -0.814010    44A     -0.706616    45A     -0.678788
      46A     -0.604771    47A     -0.598394    48A     -0.587299
      49A     -0.578893    50A     -0.560531    51A     -0.543258
      52A     -0.512897    53A     -0.489478    54A     -0.467837
      55A     -0.426156    56A     -0.423401    57A     -0.419812
      58A     -0.345028    59A     -0.341369

  @DF-RHF Final Energy: -5413.58250075175965

   => Energetics <=

    Nuclear Repulsion Energy =            882.1338608071142744
    One-Electron Energy =               -9285.3222959667800751
    Two-Electron Energy =                2989.6059344079058064
    Total Energy =                      -5413.5825007517596532
  Basis Set: (AUG-CC-PVTZ AUX)
    Blend: AUG-CC-PVTZ-RI
    Molecular point group: c1

    Geometry (in Angstrom), charge = 0, multiplicity = 1:

       Center              X                  Y                   Z               Mass
    ------------   -----------------  -----------------  -----------------  -----------------
         BR           2.843303238949    -0.777476868736     0.001164107534    78.918337600000
         BR          -2.842088761051    -0.777476868736     0.001164107534    78.918337600000
         C            0.000607238949     2.274999131264    -0.016322892466    12.000000000000
         C           -1.207114761051     1.566429131264    -0.010108892466    12.000000000000
         C            1.195785438949     1.545464831264    -0.010740392466    12.000000000000
         C            0.000607238949     3.781353131264     0.013828107534    12.000000000000
         C            1.191021238949     0.172663131264    -0.000605892466    12.000000000000
         C           -1.189806761051     0.172664131264    -0.000605892466    12.000000000000
         C            0.000607238949    -0.552956868736     0.005311107534    12.000000000000
         H           -2.156810761051     2.095257131264    -0.018284892466     1.007825032230
         H            2.158026238949     2.095256131264    -0.018283892466     1.007825032230
         H            0.000617238949     4.150552131264     1.044797107534     1.007825032230
         H            0.886374238949     4.182961131264    -0.485430892466     1.007825032230
         H           -0.885168761051     4.182961131264    -0.485412892466     1.007825032230
         H            0.000606238949    -1.637938868736     0.009447107534     1.007825032230

  Basis Set: AUG-CC-PVTZ
    Blend: AUG-CC-PVTZ
  Basis Set: (AUG-CC-PVTZ AUX)
    Blend: AUG-CC-PVTZ-JKFIT
	 Reference Energy          =   -5413.5825007517596532 [Eh]
	 Singles Energy            =      -0.0000000000000000 [Eh]
	 Same-Spin Energy          =      -0.4880527276484850 [Eh]
	 Opposite-Spin Energy      =      -1.3642235937601894 [Eh]
	 Correlation Energy        =      -1.8522763214086744 [Eh]
	 Total Energy              =   -5415.4347770731683340 [Eh]

	 ================> DF-SCS-MP2 Energies <==================
	-----------------------------------------------------------
	 SCS Same-Spin Scale       =       0.3333333333333333 [-]
	 SCS Opposite-Spin Scale   =       1.2000000000000000 [-]
	 SCS Same-Spin Energy      =      -0.1626842425494950 [Eh]
	 SCS Opposite-Spin Energy  =      -1.6370683125122272 [Eh]
	 SCS Correlation Energy    =      -1.7997525550617222 [Eh]
	 SCS Total Energy          =   -5415.3822533068214398 [Eh]
	-----------------------------------------------------------

  Dipole Moment: [D]
     X:     0.0016      Y:     2.1932      Z:     0.0370     Total:     2.1935

*** Psi4 exiting successfully. Buy a developer a beer!
