                               Psi4 1.4a3.dev225

  ==> Input File <==

--------------------------------------------------------------------------
#psi4
#
memory 32 gb

molecule  {
0 1
 Br        2.8426960    -0.9006560     0.0010230
 Br       -2.8426960    -0.9006560     0.0010230
  C        0.0000000     2.1518200    -0.0164640
  C       -1.2077220     1.4432500    -0.0102500
  C        1.2077220     1.4432500    -0.0102500
  C        0.0000000     3.6581740     0.0136870
  C        1.1368958     0.1307527    -0.0014097
  C       -1.1904140     0.0494850    -0.0007470
  C        0.0000000    -0.6761360     0.0051700
  H       -2.1574180     1.9720780    -0.0184260
  H        2.1574190     1.9720770    -0.0184250
  H        0.0000100     4.0273730     1.0446560
  H        0.8857670     4.0597820    -0.4855720
  H       -0.8857760     4.0597820    -0.4855540
  H       -0.0000010    -1.7611180     0.0093060
units angstrom
no_reorient  #important for SAPT in psi4, default
symmetry c1  #important for SAPT in psi4, default
}

set PROPERTIES_ORIGIN ["COM"]
properties('MP2/aug-cc-pvtz', properties = ['dipole'])
--------------------------------------------------------------------------

    Molecular point group: c1
  Charge       = 0
  Multiplicity = 1
  Basis Set: AUG-CC-PVTZ
    Blend: AUG-CC-PVTZ
  Basis Set: (AUG-CC-PVTZ AUX)
    Blend: AUG-CC-PVTZ-JKFIT

    Orbital Energies [Eh]
    ---------------------

    Doubly Occupied:

       1A   -490.033497     2A   -490.022354     3A    -65.173223
       4A    -65.161843     5A    -58.528543     6A    -58.527143
       7A    -58.527109     8A    -58.517180     9A    -58.515770
      10A    -58.515748    11A    -11.318081    12A    -11.314628
      13A    -11.276718    14A    -11.268232    15A    -11.259983
      16A    -11.253692    17A    -11.245245    18A     -9.845936
      19A     -9.834106    20A     -7.457559    21A     -7.450715
      22A     -7.450650    23A     -7.445489    24A     -7.438891
      25A     -7.438889    26A     -3.201341    27A     -3.197789
      28A     -3.197558    29A     -3.189134    30A     -3.188822
      31A     -3.188812    32A     -3.185819    33A     -3.185688
      34A     -3.177126    35A     -3.177117    36A     -1.206268
      37A     -1.099339    38A     -1.084669    39A     -1.000941
      40A     -0.982789    41A     -0.963410    42A     -0.821367
      43A     -0.814301    44A     -0.716379    45A     -0.685061
      46A     -0.610689    47A     -0.601694    48A     -0.594945
      49A     -0.582646    50A     -0.561305    51A     -0.547742
      52A     -0.513456    53A     -0.473352    54A     -0.465649
      55A     -0.425024    56A     -0.420683    57A     -0.414815
      58A     -0.351032    59A     -0.346700

  @DF-RHF Final Energy: -5413.57487742179637

   => Energetics <=

    Nuclear Repulsion Energy =            881.0183997469509904
    One-Electron Energy =               -9283.1971854874136625
    Two-Electron Energy =                2988.6039083186674361
    Total Energy =                      -5413.5748774217954633
  Basis Set: (AUG-CC-PVTZ AUX)
    Blend: AUG-CC-PVTZ-RI
    Molecular point group: c1

    Geometry (in Angstrom), charge = 0, multiplicity = 1:

       Center              X                  Y                   Z               Mass
    ------------   -----------------  -----------------  -----------------  -----------------
         BR           2.845286801999    -0.782425949169     0.001165617920    78.918337600000
         BR          -2.840105198001    -0.782425949169     0.001165617920    78.918337600000
         C            0.002590801999     2.270050050831    -0.016321382080    12.000000000000
         C           -1.205131198001     1.561480050831    -0.010107382080    12.000000000000
         C            1.210312801999     1.561480050831    -0.010107382080    12.000000000000
         C            0.002590801999     3.776404050831     0.013829617920    12.000000000000
         C            1.139486601999     0.248982750831    -0.001267082080    12.000000000000
         C           -1.187823198001     0.167715050831    -0.000604382080    12.000000000000
         C            0.002590801999    -0.557905949169     0.005312617920    12.000000000000
         H           -2.154827198001     2.090308050831    -0.018283382080     1.007825032230
         H            2.160009801999     2.090307050831    -0.018282382080     1.007825032230
         H            0.002600801999     4.145603050831     1.044798617920     1.007825032230
         H            0.888357801999     4.178012050831    -0.485429382080     1.007825032230
         H           -0.883185198001     4.178012050831    -0.485411382080     1.007825032230
         H            0.002589801999    -1.642887949169     0.009448617920     1.007825032230

  Basis Set: AUG-CC-PVTZ
    Blend: AUG-CC-PVTZ
  Basis Set: (AUG-CC-PVTZ AUX)
    Blend: AUG-CC-PVTZ-JKFIT
	 Reference Energy          =   -5413.5748774217963728 [Eh]
	 Singles Energy            =      -0.0000000000000000 [Eh]
	 Same-Spin Energy          =      -0.4874677956014071 [Eh]
	 Opposite-Spin Energy      =      -1.3633019627977658 [Eh]
	 Correlation Energy        =      -1.8507697583991729 [Eh]
	 Total Energy              =   -5415.4256471801954831 [Eh]

	 ================> DF-SCS-MP2 Energies <==================
	-----------------------------------------------------------
	 SCS Same-Spin Scale       =       0.3333333333333333 [-]
	 SCS Opposite-Spin Scale   =       1.2000000000000000 [-]
	 SCS Same-Spin Energy      =      -0.1624892652004690 [Eh]
	 SCS Opposite-Spin Energy  =      -1.6359623553573190 [Eh]
	 SCS Correlation Energy    =      -1.7984516205577881 [Eh]
	 SCS Total Energy          =   -5415.3733290423542712 [Eh]
	-----------------------------------------------------------

  Dipole Moment: [D]
     X:    -0.3941      Y:     2.4432      Z:     0.0368     Total:     2.4751

*** Psi4 exiting successfully. Buy a developer a beer!
