                               Psi4 1.4a3.dev225

  ==> Input File <==

--------------------------------------------------------------------------
#psi4
#
memory 32 gb

molecule  {
0 1
 Br        2.8426960    -0.9006560     0.0010230
 Br       -2.8426960    -0.9006560     0.0010230
  C       -0.1366688     2.1585059     0.0619430
  C       -1.2077220     1.4432500    -0.0102500
  C        1.2077220     1.4432500    -0.0102500
  C        0.0000000     3.6581740     0.0136870
  C        1.1904140     0.0494840    -0.0007470
  C       -1.1904140     0.0494850    -0.0007470
  C        0.0000000    -0.6761360     0.0051700
  H       -2.1574180     1.9720780    -0.0184260
  H        2.1574190     1.9720770    -0.0184250
  H        0.0000100     4.0273730     1.0446560
  H        0.8857670     4.0597820    -0.4855720
  H       -0.8857760     4.0597820    -0.4855540
  H       -0.0000010    -1.7611180     0.0093060
units angstrom
no_reorient  #important for SAPT in psi4, default
symmetry c1  #important for SAPT in psi4, default
}

set PROPERTIES_ORIGIN ["COM"]
properties('MP2/aug-cc-pvtz', properties = ['dipole'])
--------------------------------------------------------------------------

    Molecular point group: c1
  Charge       = 0
  Multiplicity = 1
  Basis Set: AUG-CC-PVTZ
    Blend: AUG-CC-PVTZ
  Basis Set: (AUG-CC-PVTZ AUX)
    Blend: AUG-CC-PVTZ-JKFIT

    Orbital Energies [Eh]
    ---------------------

    Doubly Occupied:

       1A   -490.032882     2A   -490.030525     3A    -65.172558
       4A    -65.170260     5A    -58.527889     6A    -58.526479
       7A    -58.526443     8A    -58.525578     9A    -58.524177
      10A    -58.524153    11A    -11.315952    12A    -11.312904
      13A    -11.271147    14A    -11.268806    15A    -11.265360
      16A    -11.245892    17A    -11.243993    18A     -9.845233
      19A     -9.842984    20A     -7.456876    21A     -7.454603
      22A     -7.450000    23A     -7.449922    24A     -7.447758
      25A     -7.447722    26A     -3.200684    27A     -3.198376
      28A     -3.197127    29A     -3.196865    30A     -3.194811
      31A     -3.194627    32A     -3.188076    33A     -3.188066
      34A     -3.185886    35A     -3.185877    36A     -1.196257
      37A     -1.100540    38A     -1.085970    39A     -1.004213
      40A     -0.979668    41A     -0.956242    42A     -0.830281
      43A     -0.798995    44A     -0.709072    45A     -0.674863
      46A     -0.614761    47A     -0.598947    48A     -0.587749
      49A     -0.577055    50A     -0.561031    51A     -0.542185
      52A     -0.513366    53A     -0.477005    54A     -0.467119
      55A     -0.425746    56A     -0.424419    57A     -0.419193
      58A     -0.357995    59A     -0.329573

  @DF-RHF Final Energy: -5413.55872200189060

   => Energetics <=

    Nuclear Repulsion Energy =            881.5431521361639398
    One-Electron Energy =               -9284.1182743794543057
    Two-Electron Energy =                2989.0164002413989692
    Total Energy =                      -5413.5587220018915104
  Basis Set: (AUG-CC-PVTZ AUX)
    Blend: AUG-CC-PVTZ-RI
    Molecular point group: c1

    Geometry (in Angstrom), charge = 0, multiplicity = 1:

       Center              X                  Y                   Z               Mass
    ------------   -----------------  -----------------  -----------------  -----------------
         BR           2.849312107012    -0.778815409753    -0.002662131486    78.918337600000
         BR          -2.836079892988    -0.778815409753    -0.002662131486    78.918337600000
         C           -0.130052692988     2.280346490247     0.058257868514    12.000000000000
         C           -1.201105892988     1.565090590247    -0.013935131486    12.000000000000
         C            1.214338107012     1.565090590247    -0.013935131486    12.000000000000
         C            0.006616107012     3.780014590247     0.010001868514    12.000000000000
         C            1.197030107012     0.171324590247    -0.004432131486    12.000000000000
         C           -1.183797892988     0.171325590247    -0.004432131486    12.000000000000
         C            0.006616107012    -0.554295409753     0.001484868514    12.000000000000
         H           -2.150801892988     2.093918590247    -0.022111131486     1.007825032230
         H            2.164035107012     2.093917590247    -0.022110131486     1.007825032230
         H            0.006626107012     4.149213590247     1.040970868514     1.007825032230
         H            0.892383107012     4.181622590247    -0.489257131486     1.007825032230
         H           -0.879159892988     4.181622590247    -0.489239131486     1.007825032230
         H            0.006615107012    -1.639277409753     0.005620868514     1.007825032230

  Basis Set: AUG-CC-PVTZ
    Blend: AUG-CC-PVTZ
  Basis Set: (AUG-CC-PVTZ AUX)
    Blend: AUG-CC-PVTZ-JKFIT
	 Reference Energy          =   -5413.5587220018906009 [Eh]
	 Singles Energy            =      -0.0000000000000000 [Eh]
	 Same-Spin Energy          =      -0.4875541496474579 [Eh]
	 Opposite-Spin Energy      =      -1.3653473594036549 [Eh]
	 Correlation Energy        =      -1.8529015090511129 [Eh]
	 Total Energy              =   -5415.4116235109413537 [Eh]

	 ================> DF-SCS-MP2 Energies <==================
	-----------------------------------------------------------
	 SCS Same-Spin Scale       =       0.3333333333333333 [-]
	 SCS Opposite-Spin Scale   =       1.2000000000000000 [-]
	 SCS Same-Spin Energy      =      -0.1625180498824860 [Eh]
	 SCS Opposite-Spin Energy  =      -1.6384168312843859 [Eh]
	 SCS Correlation Energy    =      -1.8009348811668717 [Eh]
	 SCS Total Energy          =   -5415.3596568830571414 [Eh]
	-----------------------------------------------------------

  Dipole Moment: [D]
     X:    -0.0795      Y:     2.2064      Z:     0.0163     Total:     2.2079

*** Psi4 exiting successfully. Buy a developer a beer!
