                               Psi4 1.4a3.dev225

  ==> Input File <==

--------------------------------------------------------------------------
#psi4
#
memory 32 gb

molecule  {
0 1
 Br        2.8426960    -0.9006560     0.0010230
 Br       -2.8426960    -0.9006560     0.0010230
  C        0.0000000     2.1518200    -0.0164640
  C       -1.2077220     1.4432500    -0.0102500
  C        1.2077220     1.4432500    -0.0102500
  C        0.0000000     3.6581740     0.0136870
  C        1.1904140     0.0494840    -0.0007470
  C       -1.1904140     0.0494850    -0.0007470
  C        0.0000000    -0.6761360     0.0051700
  H       -2.1574180     1.9720780    -0.0184260
  H        2.1574190     1.9720770    -0.0184250
  H        0.0000091     3.9936587     0.9505106
  H        0.8857670     4.0597820    -0.4855720
  H       -0.8857760     4.0597820    -0.4855540
  H       -0.0000010    -1.7611180     0.0093060
units angstrom
no_reorient  #important for SAPT in psi4, default
symmetry c1  #important for SAPT in psi4, default
}

set PROPERTIES_ORIGIN ["COM"]
properties('MP2/aug-cc-pvtz', properties = ['dipole'])
--------------------------------------------------------------------------

    Molecular point group: c1
  Charge       = 0
  Multiplicity = 1
  Basis Set: AUG-CC-PVTZ
    Blend: AUG-CC-PVTZ
  Basis Set: (AUG-CC-PVTZ AUX)
    Blend: AUG-CC-PVTZ-JKFIT

    Orbital Energies [Eh]
    ---------------------

    Doubly Occupied:

       1A   -490.031840     2A   -490.031840     3A    -65.171548
       4A    -65.171548     5A    -58.526872     6A    -58.526872
       7A    -58.525466     8A    -58.525466     9A    -58.525436
      10A    -58.525436    11A    -11.314791    12A    -11.314782
      13A    -11.271930    14A    -11.264551    15A    -11.258583
      16A    -11.258520    17A    -11.230809    18A     -9.844247
      19A     -9.844246    20A     -7.455880    21A     -7.455880
      22A     -7.449013    23A     -7.449013    24A     -7.448963
      25A     -7.448963    26A     -3.199671    27A     -3.199670
      28A     -3.196107    29A     -3.196106    30A     -3.195886
      31A     -3.195886    32A     -3.187117    33A     -3.187116
      34A     -3.187107    35A     -3.187107    36A     -1.194921
      37A     -1.094981    38A     -1.090166    39A     -1.005657
      40A     -0.976598    41A     -0.966183    42A     -0.816263
      43A     -0.816142    44A     -0.709146    45A     -0.677220
      46A     -0.616659    47A     -0.602584    48A     -0.588480
      49A     -0.582801    50A     -0.559120    51A     -0.544927
      52A     -0.510555    53A     -0.491108    54A     -0.467137
      55A     -0.425876    56A     -0.423658    57A     -0.419723
      58A     -0.346162    59A     -0.339582

  @DF-RHF Final Energy: -5413.57701940777497

   => Energetics <=

    Nuclear Repulsion Energy =            882.1033846196245349
    One-Electron Energy =               -9285.2209749361754803
    Two-Electron Energy =                2989.5405709087758623
    Total Energy =                      -5413.5770194077758788
  Basis Set: (AUG-CC-PVTZ AUX)
    Blend: AUG-CC-PVTZ-RI
    Molecular point group: c1

    Geometry (in Angstrom), charge = 0, multiplicity = 1:

       Center              X                  Y                   Z               Mass
    ------------   -----------------  -----------------  -----------------  -----------------
         BR           2.842695999593    -0.778354673731     0.001516305428    78.918337600000
         BR          -2.842696000407    -0.778354673731     0.001516305428    78.918337600000
         C           -0.000000000407     2.274121326269    -0.015970694572    12.000000000000
         C           -1.207722000407     1.565551326269    -0.009756694572    12.000000000000
         C            1.207721999593     1.565551326269    -0.009756694572    12.000000000000
         C           -0.000000000407     3.780475326269     0.014180305428    12.000000000000
         C            1.190413999593     0.171785326269    -0.000253694572    12.000000000000
         C           -1.190414000407     0.171786326269    -0.000253694572    12.000000000000
         C           -0.000000000407    -0.553834673731     0.005663305428    12.000000000000
         H           -2.157418000407     2.094379326269    -0.017932694572     1.007825032230
         H            2.157418999593     2.094378326269    -0.017931694572     1.007825032230
         H            0.000009099593     4.115960026269     0.951003905428     1.007825032230
         H            0.885766999593     4.182083326269    -0.485078694572     1.007825032230
         H           -0.885776000407     4.182083326269    -0.485060694572     1.007825032230
         H           -0.000001000407    -1.638816673731     0.009799305428     1.007825032230

  Basis Set: AUG-CC-PVTZ
    Blend: AUG-CC-PVTZ
  Basis Set: (AUG-CC-PVTZ AUX)
    Blend: AUG-CC-PVTZ-JKFIT
	 Reference Energy          =   -5413.5770194077749693 [Eh]
	 Singles Energy            =      -0.0000000000000000 [Eh]
	 Same-Spin Energy          =      -0.4880658043530435 [Eh]
	 Opposite-Spin Energy      =      -1.3638351222743914 [Eh]
	 Correlation Energy        =      -1.8519009266274349 [Eh]
	 Total Energy              =   -5415.4289203344023917 [Eh]

	 ================> DF-SCS-MP2 Energies <==================
	-----------------------------------------------------------
	 SCS Same-Spin Scale       =       0.3333333333333333 [-]
	 SCS Opposite-Spin Scale   =       1.2000000000000000 [-]
	 SCS Same-Spin Energy      =      -0.1626886014510145 [Eh]
	 SCS Opposite-Spin Energy  =      -1.6366021467292697 [Eh]
	 SCS Correlation Energy    =      -1.7992907481802842 [Eh]
	 SCS Total Energy          =   -5415.3763101559552524 [Eh]
	-----------------------------------------------------------

  Dipole Moment: [D]
     X:     0.0000      Y:     2.2056      Z:     0.0567     Total:     2.2063

*** Psi4 exiting successfully. Buy a developer a beer!
