                               Psi4 1.4a3.dev225

  ==> Input File <==

--------------------------------------------------------------------------
#psi4
#
memory 32 gb

molecule  {
0 1
 Br        2.8426960    -0.9006560     0.0010230
 Br       -2.8426960    -0.9006560     0.0010230
  C        0.0000000     2.1518200    -0.0164640
  C       -1.3533186     1.4338049    -0.0103052
  C        1.2077220     1.4432500    -0.0102500
  C        0.0000000     3.6581740     0.0136870
  C        1.1904140     0.0494840    -0.0007470
  C       -1.1904140     0.0494850    -0.0007470
  C        0.0000000    -0.6761360     0.0051700
  H       -2.1574180     1.9720780    -0.0184260
  H        2.1574190     1.9720770    -0.0184250
  H        0.0000100     4.0273730     1.0446560
  H        0.8857670     4.0597820    -0.4855720
  H       -0.8857760     4.0597820    -0.4855540
  H       -0.0000010    -1.7611180     0.0093060
units angstrom
no_reorient  #important for SAPT in psi4, default
symmetry c1  #important for SAPT in psi4, default
}

set PROPERTIES_ORIGIN ["COM"]
properties('MP2/aug-cc-pvtz', properties = ['dipole'])
--------------------------------------------------------------------------

    Molecular point group: c1
  Charge       = 0
  Multiplicity = 1
  Basis Set: AUG-CC-PVTZ
    Blend: AUG-CC-PVTZ
  Basis Set: (AUG-CC-PVTZ AUX)
    Blend: AUG-CC-PVTZ-JKFIT

    Orbital Energies [Eh]
    ---------------------

    Doubly Occupied:

       1A   -490.034211     2A   -490.025610     3A    -65.173913
       4A    -65.165517     5A    -58.529238     6A    -58.527833
       7A    -58.527794     8A    -58.520792     9A    -58.519441
      10A    -58.519413    11A    -11.319663    12A    -11.319456
      13A    -11.287966    14A    -11.265178    15A    -11.263908
      16A    -11.258752    17A    -11.243723    18A     -9.846609
      19A     -9.838404    20A     -7.458243    21A     -7.451387
      22A     -7.451293    23A     -7.449941    24A     -7.443259
      25A     -7.443227    26A     -3.202040    27A     -3.198490
      28A     -3.198223    29A     -3.193630    30A     -3.190164
      31A     -3.189965    32A     -3.189467    33A     -3.189457
      34A     -3.181476    35A     -3.181464    36A     -1.188202
      37A     -1.098403    38A     -1.080606    39A     -1.003899
      40A     -0.977186    41A     -0.960330    42A     -0.826786
      43A     -0.800427    44A     -0.726222    45A     -0.673160
      46A     -0.617313    47A     -0.599869    48A     -0.595652
      49A     -0.585530    50A     -0.558982    51A     -0.540639
      52A     -0.512373    53A     -0.477108    54A     -0.467726
      55A     -0.425387    56A     -0.418020    57A     -0.416225
      58A     -0.345292    59A     -0.335178

  @DF-RHF Final Energy: -5413.55393418684162

   => Energetics <=

    Nuclear Repulsion Energy =            880.1424335164297190
    One-Electron Energy =               -9281.3334199975652155
    Two-Electron Energy =                2987.6370522942929711
    Total Energy =                      -5413.5539341868425254
  Basis Set: (AUG-CC-PVTZ AUX)
    Blend: AUG-CC-PVTZ-RI
    Molecular point group: c1

    Geometry (in Angstrom), charge = 0, multiplicity = 1:

       Center              X                  Y                   Z               Mass
    ------------   -----------------  -----------------  -----------------  -----------------
         BR           2.849744300142    -0.778034511056     0.001136208959    78.918337600000
         BR          -2.835647699858    -0.778034511056     0.001136208959    78.918337600000
         C            0.007048300142     2.274441488944    -0.016350791041    12.000000000000
         C           -1.346270299858     1.556426388944    -0.010191991041    12.000000000000
         C            1.214770300142     1.565871488944    -0.010136791041    12.000000000000
         C            0.007048300142     3.780795488944     0.013800208959    12.000000000000
         C            1.197462300142     0.172105488944    -0.000633791041    12.000000000000
         C           -1.183365699858     0.172106488944    -0.000633791041    12.000000000000
         C            0.007048300142    -0.553514511056     0.005283208959    12.000000000000
         H           -2.150369699858     2.094699488944    -0.018312791041     1.007825032230
         H            2.164467300142     2.094698488944    -0.018311791041     1.007825032230
         H            0.007058300142     4.149994488944     1.044769208959     1.007825032230
         H            0.892815300142     4.182403488944    -0.485458791041     1.007825032230
         H           -0.878727699858     4.182403488944    -0.485440791041     1.007825032230
         H            0.007047300142    -1.638496511056     0.009419208959     1.007825032230

  Basis Set: AUG-CC-PVTZ
    Blend: AUG-CC-PVTZ
  Basis Set: (AUG-CC-PVTZ AUX)
    Blend: AUG-CC-PVTZ-JKFIT
	 Reference Energy          =   -5413.5539341868416159 [Eh]
	 Singles Energy            =      -0.0000000000000000 [Eh]
	 Same-Spin Energy          =      -0.4883161516354262 [Eh]
	 Opposite-Spin Energy      =      -1.3660338600666280 [Eh]
	 Correlation Energy        =      -1.8543500117020542 [Eh]
	 Total Energy              =   -5415.4082841985436971 [Eh]

	 ================> DF-SCS-MP2 Energies <==================
	-----------------------------------------------------------
	 SCS Same-Spin Scale       =       0.3333333333333333 [-]
	 SCS Opposite-Spin Scale   =       1.2000000000000000 [-]
	 SCS Same-Spin Energy      =      -0.1627720505451421 [Eh]
	 SCS Opposite-Spin Energy  =      -1.6392406320799535 [Eh]
	 SCS Correlation Energy    =      -1.8020126826250955 [Eh]
	 SCS Total Energy          =   -5415.3559468694666066 [Eh]
	-----------------------------------------------------------

  Dipole Moment: [D]
     X:     0.2133      Y:     2.3181      Z:     0.0392     Total:     2.3282

*** Psi4 exiting successfully. Buy a developer a beer!
