                               Psi4 1.4a3.dev225

  ==> Input File <==

--------------------------------------------------------------------------
#psi4
#
memory 32 gb

molecule  {
0 1
 Br        2.8426960    -0.9006560     0.0010230
 Br       -2.8426960    -0.9006560     0.0010230
  C        0.0000000     2.1518200    -0.0164640
  C       -1.2077220     1.4432500    -0.0102500
  C        1.2077220     1.4432500    -0.0102500
  C        0.0000000     3.6581740     0.0136870
  C        1.1904140     0.0494840    -0.0007470
  C       -1.2381320    -0.0353219    -0.0005500
  C        0.0000000    -0.6761360     0.0051700
  H       -2.1574180     1.9720780    -0.0184260
  H        2.1574190     1.9720770    -0.0184250
  H        0.0000100     4.0273730     1.0446560
  H        0.8857670     4.0597820    -0.4855720
  H       -0.8857760     4.0597820    -0.4855540
  H       -0.0000010    -1.7611180     0.0093060
units angstrom
no_reorient  #important for SAPT in psi4, default
symmetry c1  #important for SAPT in psi4, default
}

set PROPERTIES_ORIGIN ["COM"]
properties('MP2/aug-cc-pvtz', properties = ['dipole'])
--------------------------------------------------------------------------

    Molecular point group: c1
  Charge       = 0
  Multiplicity = 1
  Basis Set: AUG-CC-PVTZ
    Blend: AUG-CC-PVTZ
  Basis Set: (AUG-CC-PVTZ AUX)
    Blend: AUG-CC-PVTZ-JKFIT

    Orbital Energies [Eh]
    ---------------------

    Doubly Occupied:

       1A   -490.039285     2A   -490.030853     3A    -65.179387
       4A    -65.170538     5A    -58.534652     6A    -58.533304
       7A    -58.533261     8A    -58.525870     9A    -58.524455
      10A    -58.524428    11A    -11.316629    12A    -11.312647
      13A    -11.269321    14A    -11.263921    15A    -11.262505
      16A    -11.258169    17A    -11.241187    18A     -9.852758
      19A     -9.843221    20A     -7.464620    21A     -7.457573
      22A     -7.457449    23A     -7.454871    24A     -7.447969
      25A     -7.447932    26A     -3.208517    27A     -3.204722
      28A     -3.204380    29A     -3.198674    30A     -3.195611
      31A     -3.195601    32A     -3.195093    33A     -3.194881
      34A     -3.186064    35A     -3.186055    36A     -1.187373
      37A     -1.104189    38A     -1.086032    39A     -1.007279
      40A     -0.972044    41A     -0.952581    42A     -0.818704
      43A     -0.804931    44A     -0.702628    45A     -0.671323
      46A     -0.607253    47A     -0.595030    48A     -0.589842
      49A     -0.572863    50A     -0.559621    51A     -0.538862
      52A     -0.511010    53A     -0.498356    54A     -0.472294
      55A     -0.427905    56A     -0.423134    57A     -0.420357
      58A     -0.345374    59A     -0.328751

  @DF-RHF Final Energy: -5413.57238609415799

   => Energetics <=

    Nuclear Repulsion Energy =            882.4286058027205399
    One-Electron Energy =               -9285.7737162617522699
    Two-Electron Energy =                2989.7727243648732838
    Total Energy =                      -5413.5723860941579915
  Basis Set: (AUG-CC-PVTZ AUX)
    Blend: AUG-CC-PVTZ-RI
    Molecular point group: c1

    Geometry (in Angstrom), charge = 0, multiplicity = 1:

       Center              X                  Y                   Z               Mass
    ------------   -----------------  -----------------  -----------------  -----------------
         BR           2.845006015400    -0.774386260396     0.001124000004    78.918337600000
         BR          -2.840385984600    -0.774386260396     0.001124000004    78.918337600000
         C            0.002310015400     2.278089739604    -0.016362999996    12.000000000000
         C           -1.205411984600     1.569519739604    -0.010148999996    12.000000000000
         C            1.210032015400     1.569519739604    -0.010148999996    12.000000000000
         C            0.002310015400     3.784443739604     0.013788000004    12.000000000000
         C            1.192724015400     0.175753739604    -0.000645999996    12.000000000000
         C           -1.235821984600     0.090947839604    -0.000448999996    12.000000000000
         C            0.002310015400    -0.549866260396     0.005271000004    12.000000000000
         H           -2.155107984600     2.098347739604    -0.018324999996     1.007825032230
         H            2.159729015400     2.098346739604    -0.018323999996     1.007825032230
         H            0.002320015400     4.153642739604     1.044757000004     1.007825032230
         H            0.888077015400     4.186051739604    -0.485470999996     1.007825032230
         H           -0.883465984600     4.186051739604    -0.485452999996     1.007825032230
         H            0.002309015400    -1.634848260396     0.009407000004     1.007825032230

  Basis Set: AUG-CC-PVTZ
    Blend: AUG-CC-PVTZ
  Basis Set: (AUG-CC-PVTZ AUX)
    Blend: AUG-CC-PVTZ-JKFIT
	 Reference Energy          =   -5413.5723860941579915 [Eh]
	 Singles Energy            =      -0.0000000000000000 [Eh]
	 Same-Spin Energy          =      -0.4890461091634394 [Eh]
	 Opposite-Spin Energy      =      -1.3663418681755035 [Eh]
	 Correlation Energy        =      -1.8553879773389430 [Eh]
	 Total Energy              =   -5415.4277740714969696 [Eh]

	 ================> DF-SCS-MP2 Energies <==================
	-----------------------------------------------------------
	 SCS Same-Spin Scale       =       0.3333333333333333 [-]
	 SCS Opposite-Spin Scale   =       1.2000000000000000 [-]
	 SCS Same-Spin Energy      =      -0.1630153697211464 [Eh]
	 SCS Opposite-Spin Energy  =      -1.6396102418106042 [Eh]
	 SCS Correlation Energy    =      -1.8026256115317507 [Eh]
	 SCS Total Energy          =   -5415.3750117056897579 [Eh]
	-----------------------------------------------------------

  Dipole Moment: [D]
     X:    -0.3485      Y:     1.9602      Z:     0.0364     Total:     1.9913

*** Psi4 exiting successfully. Buy a developer a beer!
