                               Psi4 1.4a3.dev225

  ==> Input File <==

--------------------------------------------------------------------------
#psi4
#
memory 32 gb

molecule  {
0 1
 Br        2.8426960    -0.9006560     0.0010230
 Br       -2.8426960    -0.9006560     0.0010230
  C        0.0000000     2.1518200    -0.0164640
  C       -1.2077220     1.4432500    -0.0102500
  C        1.2077220     1.4432500    -0.0102500
  C        0.0000000     3.6581740     0.0136870
  C        1.1904140     0.0494840    -0.0007470
  C       -1.1904140     0.0494850    -0.0007470
  C        0.0000000    -0.6761360     0.0051700
  H       -2.2447836     2.0207266    -0.0191781
  H        2.1574190     1.9720770    -0.0184250
  H        0.0000100     4.0273730     1.0446560
  H        0.8857670     4.0597820    -0.4855720
  H       -0.8857760     4.0597820    -0.4855540
  H       -0.0000010    -1.7611180     0.0093060
units angstrom
no_reorient  #important for SAPT in psi4, default
symmetry c1  #important for SAPT in psi4, default
}

set PROPERTIES_ORIGIN ["COM"]
properties('MP2/aug-cc-pvtz', properties = ['dipole'])
--------------------------------------------------------------------------

    Molecular point group: c1
  Charge       = 0
  Multiplicity = 1
  Basis Set: AUG-CC-PVTZ
    Blend: AUG-CC-PVTZ
  Basis Set: (AUG-CC-PVTZ AUX)
    Blend: AUG-CC-PVTZ-JKFIT

    Orbital Energies [Eh]
    ---------------------

    Doubly Occupied:

       1A   -490.032178     2A   -490.031899     3A    -65.171884
       4A    -65.171604     5A    -58.527210     6A    -58.526931
       7A    -58.525802     8A    -58.525773     9A    -58.525520
      10A    -58.525489    11A    -11.315739    12A    -11.315201
      13A    -11.273364    14A    -11.269429    15A    -11.265368
      16A    -11.259469    17A    -11.242769    18A     -9.844583
      19A     -9.844301    20A     -7.456219    21A     -7.455946
      22A     -7.449346    23A     -7.449297    24A     -7.449060
      25A     -7.449002    26A     -3.200012    27A     -3.199745
      28A     -3.196444    29A     -3.196225    30A     -3.196174
      31A     -3.195942    32A     -3.187448    33A     -3.187438
      34A     -3.187148    35A     -3.187139    36A     -1.195041
      37A     -1.094648    38A     -1.088282    39A     -1.004450
      40A     -0.974617    41A     -0.958473    42A     -0.815094
      43A     -0.811475    44A     -0.699671    45A     -0.677929
      46A     -0.604403    47A     -0.597886    48A     -0.587366
      49A     -0.571282    50A     -0.558971    51A     -0.542303
      52A     -0.510385    53A     -0.489707    54A     -0.467414
      55A     -0.426042    56A     -0.423406    57A     -0.419882
      58A     -0.346092    59A     -0.340066

  @DF-RHF Final Energy: -5413.57541279895213

   => Energetics <=

    Nuclear Repulsion Energy =            881.0394397355136107
    One-Electron Energy =               -9283.1457416739322070
    Two-Electron Energy =                2988.5308891394656712
    Total Energy =                      -5413.5754127989530389
  Basis Set: (AUG-CC-PVTZ AUX)
    Blend: AUG-CC-PVTZ-RI
    Molecular point group: c1

    Geometry (in Angstrom), charge = 0, multiplicity = 1:

       Center              X                  Y                   Z               Mass
    ------------   -----------------  -----------------  -----------------  -----------------
         BR           2.843051199867    -0.778689538094     0.001136594564    78.918337600000
         BR          -2.842340800133    -0.778689538094     0.001136594564    78.918337600000
         C            0.000355199867     2.273786461906    -0.016350405436    12.000000000000
         C           -1.207366800133     1.565216461906    -0.010136405436    12.000000000000
         C            1.208077199867     1.565216461906    -0.010136405436    12.000000000000
         C            0.000355199867     3.780140461906     0.013800594564    12.000000000000
         C            1.190769199867     0.171450461906    -0.000633405436    12.000000000000
         C           -1.190058800133     0.171451461906    -0.000633405436    12.000000000000
         C            0.000355199867    -0.554169538094     0.005283594564    12.000000000000
         H           -2.244428400133     2.142693061906    -0.019064505436     1.007825032230
         H            2.157774199867     2.094043461906    -0.018311405436     1.007825032230
         H            0.000365199867     4.149339461906     1.044769594564     1.007825032230
         H            0.886122199867     4.181748461906    -0.485458405436     1.007825032230
         H           -0.885420800133     4.181748461906    -0.485440405436     1.007825032230
         H            0.000354199867    -1.639151538094     0.009419594564     1.007825032230

  Basis Set: AUG-CC-PVTZ
    Blend: AUG-CC-PVTZ
  Basis Set: (AUG-CC-PVTZ AUX)
    Blend: AUG-CC-PVTZ-JKFIT
	 Reference Energy          =   -5413.5754127989521294 [Eh]
	 Singles Energy            =      -0.0000000000000000 [Eh]
	 Same-Spin Energy          =      -0.4883749015005040 [Eh]
	 Opposite-Spin Energy      =      -1.3652377530995579 [Eh]
	 Correlation Energy        =      -1.8536126546000617 [Eh]
	 Total Energy              =   -5415.4290254535526401 [Eh]

	 ================> DF-SCS-MP2 Energies <==================
	-----------------------------------------------------------
	 SCS Same-Spin Scale       =       0.3333333333333333 [-]
	 SCS Opposite-Spin Scale   =       1.2000000000000000 [-]
	 SCS Same-Spin Energy      =      -0.1627916338335013 [Eh]
	 SCS Opposite-Spin Energy  =      -1.6382853037194693 [Eh]
	 SCS Correlation Energy    =      -1.8010769375529707 [Eh]
	 SCS Total Energy          =   -5415.3764897365053912 [Eh]
	-----------------------------------------------------------

  Dipole Moment: [D]
     X:     0.0098      Y:     2.1698      Z:     0.0369     Total:     2.1701

*** Psi4 exiting successfully. Buy a developer a beer!
