                               Psi4 1.4a3.dev225

  ==> Input File <==

--------------------------------------------------------------------------
#psi4
#
memory 32 gb

molecule  {
0 1
 Br        2.8426960    -0.9006560     0.0010230
 Br       -2.8426960    -0.9006560     0.0010230
  C        0.0000000     2.1518200    -0.0164640
  C       -1.2077220     1.4432500    -0.0102500
  C        1.2077220     1.4432500    -0.0102500
  C        0.0000000     3.6581740     0.0136870
  C        1.1904140     0.0494840    -0.0007470
  C       -1.1904140     0.0494850    -0.0007470
  C        0.0000000    -0.6761360     0.0051700
  H       -2.3321492     2.0693752    -0.0199303
  H        2.1574190     1.9720770    -0.0184250
  H        0.0000100     4.0273730     1.0446560
  H        0.8857670     4.0597820    -0.4855720
  H       -0.8857760     4.0597820    -0.4855540
  H       -0.0000010    -1.7611180     0.0093060
units angstrom
no_reorient  #important for SAPT in psi4, default
symmetry c1  #important for SAPT in psi4, default
}

set PROPERTIES_ORIGIN ["COM"]
properties('MP2/aug-cc-pvtz', properties = ['dipole'])
--------------------------------------------------------------------------

    Molecular point group: c1
  Charge       = 0
  Multiplicity = 1
  Basis Set: AUG-CC-PVTZ
    Blend: AUG-CC-PVTZ
  Basis Set: (AUG-CC-PVTZ AUX)
    Blend: AUG-CC-PVTZ-JKFIT

    Orbital Energies [Eh]
    ---------------------

    Doubly Occupied:

       1A   -490.032482     2A   -490.031882     3A    -65.172187
       4A    -65.171582     5A    -58.527514     6A    -58.526913
       7A    -58.526105     8A    -58.526075     9A    -58.525496
      10A    -58.525463    11A    -11.316726    12A    -11.315591
      13A    -11.279226    14A    -11.274221    15A    -11.266077
      16A    -11.260223    17A    -11.242636    18A     -9.844885
      19A     -9.844276    20A     -7.456524    21A     -7.455935
      22A     -7.449646    23A     -7.449598    24A     -7.449028
      25A     -7.448960    26A     -3.200318    27A     -3.199742
      28A     -3.196747    29A     -3.196529    30A     -3.196164
      31A     -3.195919    32A     -3.187746    33A     -3.187737
      34A     -3.187098    35A     -3.187089    36A     -1.195361
      37A     -1.094536    38A     -1.088315    39A     -1.004640
      40A     -0.973469    41A     -0.957876    42A     -0.815548
      43A     -0.809378    44A     -0.692798    45A     -0.678429
      46A     -0.604691    47A     -0.597894    48A     -0.587606
      49A     -0.563108    50A     -0.552924    51A     -0.542678
      52A     -0.510006    53A     -0.486889    54A     -0.467629
      55A     -0.426136    56A     -0.423670    57A     -0.419931
      58A     -0.346600    59A     -0.340540

  @DF-RHF Final Energy: -5413.56034007827566

   => Energetics <=

    Nuclear Repulsion Energy =            880.5166657771321752
    One-Electron Energy =               -9282.0840256485626014
    Two-Electron Energy =                2988.0070197931549956
    Total Energy =                      -5413.5603400782765675
  Basis Set: (AUG-CC-PVTZ AUX)
    Blend: AUG-CC-PVTZ-RI
    Molecular point group: c1

    Geometry (in Angstrom), charge = 0, multiplicity = 1:

       Center              X                  Y                   Z               Mass
    ------------   -----------------  -----------------  -----------------  -----------------
         BR           2.843406403800    -0.778887329605     0.001139652798    78.918337600000
         BR          -2.841985596200    -0.778887329605     0.001139652798    78.918337600000
         C            0.000710403800     2.273588670395    -0.016347347202    12.000000000000
         C           -1.207011596200     1.565018670395    -0.010133347202    12.000000000000
         C            1.208432403800     1.565018670395    -0.010133347202    12.000000000000
         C            0.000710403800     3.779942670395     0.013803652798    12.000000000000
         C            1.191124403800     0.171252670395    -0.000630347202    12.000000000000
         C           -1.189703596200     0.171253670395    -0.000630347202    12.000000000000
         C            0.000710403800    -0.554367329605     0.005286652798    12.000000000000
         H           -2.331438796200     2.191143870395    -0.019813647202     1.007825032230
         H            2.158129403800     2.093845670395    -0.018308347202     1.007825032230
         H            0.000720403800     4.149141670395     1.044772652798     1.007825032230
         H            0.886477403800     4.181550670395    -0.485455347202     1.007825032230
         H           -0.885065596200     4.181550670395    -0.485437347202     1.007825032230
         H            0.000709403800    -1.639349329605     0.009422652798     1.007825032230

  Basis Set: AUG-CC-PVTZ
    Blend: AUG-CC-PVTZ
  Basis Set: (AUG-CC-PVTZ AUX)
    Blend: AUG-CC-PVTZ-JKFIT
	 Reference Energy          =   -5413.5603400782756580 [Eh]
	 Singles Energy            =      -0.0000000000000000 [Eh]
	 Same-Spin Energy          =      -0.4887706262416591 [Eh]
	 Opposite-Spin Energy      =      -1.3665270797334239 [Eh]
	 Correlation Energy        =      -1.8552977059750830 [Eh]
	 Total Energy              =   -5415.4156377842509755 [Eh]

	 ================> DF-SCS-MP2 Energies <==================
	-----------------------------------------------------------
	 SCS Same-Spin Scale       =       0.3333333333333333 [-]
	 SCS Opposite-Spin Scale   =       1.2000000000000000 [-]
	 SCS Same-Spin Energy      =      -0.1629235420805530 [Eh]
	 SCS Opposite-Spin Energy  =      -1.6398324956801087 [Eh]
	 SCS Correlation Energy    =      -1.8027560377606617 [Eh]
	 SCS Total Energy          =   -5415.3630961160361039 [Eh]
	-----------------------------------------------------------

  Dipole Moment: [D]
     X:     0.0285      Y:     2.1540      Z:     0.0372     Total:     2.1545

*** Psi4 exiting successfully. Buy a developer a beer!
