                               Psi4 1.4a3.dev225

  ==> Input File <==

--------------------------------------------------------------------------
#psi4
#
memory 32 gb

molecule  {
0 1
 Br        2.8426960    -0.9006560     0.0010230
 Br       -2.8426960    -0.9006560     0.0010230
  C        0.0000000     2.1518200    -0.0164640
  C       -1.2077220     1.4432500    -0.0102500
  C        1.2077220     1.4432500    -0.0102500
  C        0.0000000     3.6581740     0.0136870
  C        1.1916557     0.1494740    -0.0014288
  C       -1.1904140     0.0494850    -0.0007470
  C        0.0000000    -0.6761360     0.0051700
  H       -2.1574180     1.9720780    -0.0184260
  H        2.1574190     1.9720770    -0.0184250
  H        0.0000100     4.0273730     1.0446560
  H        0.8857670     4.0597820    -0.4855720
  H       -0.8857760     4.0597820    -0.4855540
  H       -0.0000010    -1.7611180     0.0093060
units angstrom
no_reorient  #important for SAPT in psi4, default
symmetry c1  #important for SAPT in psi4, default
}

set PROPERTIES_ORIGIN ["COM"]
properties('MP2/aug-cc-pvtz', properties = ['dipole'])
--------------------------------------------------------------------------

    Molecular point group: c1
  Charge       = 0
  Multiplicity = 1
  Basis Set: AUG-CC-PVTZ
    Blend: AUG-CC-PVTZ
  Basis Set: (AUG-CC-PVTZ AUX)
    Blend: AUG-CC-PVTZ-JKFIT

    Orbital Energies [Eh]
    ---------------------

    Doubly Occupied:

       1A   -490.032240     2A   -490.026958     3A    -65.171968
       4A    -65.166508     5A    -58.527288     6A    -58.525886
       7A    -58.525856     8A    -58.521848     9A    -58.520429
      10A    -58.520403    11A    -11.316017    12A    -11.313449
      13A    -11.275707    14A    -11.271371    15A    -11.258847
      16A    -11.249672    17A    -11.244570    18A     -9.844682
      19A     -9.838915    20A     -7.456305    21A     -7.450411
      22A     -7.449456    23A     -7.449405    24A     -7.443675
      25A     -7.443654    26A     -3.200086    27A     -3.196526
      28A     -3.196312    29A     -3.194128    30A     -3.190700
      31A     -3.190535    32A     -3.187571    33A     -3.187561
      34A     -3.181838    35A     -3.181829    36A     -1.201862
      37A     -1.100991    38A     -1.082945    39A     -1.000207
      40A     -0.986588    41A     -0.958856    42A     -0.824281
      43A     -0.807734    44A     -0.713298    45A     -0.680391
      46A     -0.608309    47A     -0.600546    48A     -0.591820
      49A     -0.581811    50A     -0.560622    51A     -0.544394
      52A     -0.515241    53A     -0.478020    54A     -0.468015
      55A     -0.425216    56A     -0.422374    57A     -0.416650
      58A     -0.353301    59A     -0.339586

  @DF-RHF Final Energy: -5413.57152123435026

   => Energetics <=

    Nuclear Repulsion Energy =            881.0606707946002416
    One-Electron Energy =               -9283.2330611304405465
    Two-Electron Energy =                2988.6008691014890246
    Total Energy =                      -5413.5715212343511666
  Basis Set: (AUG-CC-PVTZ AUX)
    Blend: AUG-CC-PVTZ-RI
    Molecular point group: c1

    Geometry (in Angstrom), charge = 0, multiplicity = 1:

       Center              X                  Y                   Z               Mass
    ------------   -----------------  -----------------  -----------------  -----------------
         BR           2.842635885469    -0.783332243804     0.001166542548    78.918337600000
         BR          -2.842756114531    -0.783332243804     0.001166542548    78.918337600000
         C           -0.000060114531     2.269143756196    -0.016320457452    12.000000000000
         C           -1.207782114531     1.560573756196    -0.010106457452    12.000000000000
         C            1.207661885469     1.560573756196    -0.010106457452    12.000000000000
         C           -0.000060114531     3.775497756196     0.013830542548    12.000000000000
         C            1.191595585469     0.266797756196    -0.001285257452    12.000000000000
         C           -1.190474114531     0.166808756196    -0.000603457452    12.000000000000
         C           -0.000060114531    -0.558812243804     0.005313542548    12.000000000000
         H           -2.157478114531     2.089401756196    -0.018282457452     1.007825032230
         H            2.157358885469     2.089400756196    -0.018281457452     1.007825032230
         H           -0.000050114531     4.144696756196     1.044799542548     1.007825032230
         H            0.885706885469     4.177105756196    -0.485428457452     1.007825032230
         H           -0.885836114531     4.177105756196    -0.485410457452     1.007825032230
         H           -0.000061114531    -1.643794243804     0.009449542548     1.007825032230

  Basis Set: AUG-CC-PVTZ
    Blend: AUG-CC-PVTZ
  Basis Set: (AUG-CC-PVTZ AUX)
    Blend: AUG-CC-PVTZ-JKFIT
	 Reference Energy          =   -5413.5715212343502571 [Eh]
	 Singles Energy            =      -0.0000000000000000 [Eh]
	 Same-Spin Energy          =      -0.4873278710694075 [Eh]
	 Opposite-Spin Energy      =      -1.3638419076297756 [Eh]
	 Correlation Energy        =      -1.8511697786991832 [Eh]
	 Total Energy              =   -5415.4226910130491888 [Eh]

	 ================> DF-SCS-MP2 Energies <==================
	-----------------------------------------------------------
	 SCS Same-Spin Scale       =       0.3333333333333333 [-]
	 SCS Opposite-Spin Scale   =       1.2000000000000000 [-]
	 SCS Same-Spin Energy      =      -0.1624426236898025 [Eh]
	 SCS Opposite-Spin Energy  =      -1.6366102891557308 [Eh]
	 SCS Correlation Energy    =      -1.7990529128455333 [Eh]
	 SCS Total Energy          =   -5415.3705741471958390 [Eh]
	-----------------------------------------------------------

  Dipole Moment: [D]
     X:    -0.1961      Y:     2.3506      Z:     0.0363     Total:     2.3590

*** Psi4 exiting successfully. Buy a developer a beer!
