                               Psi4 1.4a3.dev225

  ==> Input File <==

--------------------------------------------------------------------------
#psi4
#
memory 32 gb

molecule  {
0 1
 Br        2.8426960    -0.9006560     0.0010230
 Br       -2.8426960    -0.9006560     0.0010230
  C        0.0000000     2.1518200    -0.0164640
  C       -1.2077220     1.4432500    -0.0102500
  C        1.2077220     1.4432500    -0.0102500
  C        0.0000000     3.6581740     0.0136870
  C        1.1904140     0.0494840    -0.0007470
  C       -1.1904140     0.0494850    -0.0007470
  C        0.0426933    -0.7021598     0.0053822
  H       -2.1574180     1.9720780    -0.0184260
  H        2.1574190     1.9720770    -0.0184250
  H        0.0000100     4.0273730     1.0446560
  H        0.8857670     4.0597820    -0.4855720
  H       -0.8857760     4.0597820    -0.4855540
  H       -0.0000010    -1.7611180     0.0093060
units angstrom
no_reorient  #important for SAPT in psi4, default
symmetry c1  #important for SAPT in psi4, default
}

set PROPERTIES_ORIGIN ["COM"]
properties('MP2/aug-cc-pvtz', properties = ['dipole'])
--------------------------------------------------------------------------

    Molecular point group: c1
  Charge       = 0
  Multiplicity = 1
  Basis Set: AUG-CC-PVTZ
    Blend: AUG-CC-PVTZ
  Basis Set: (AUG-CC-PVTZ AUX)
    Blend: AUG-CC-PVTZ-JKFIT

    Orbital Energies [Eh]
    ---------------------

    Doubly Occupied:

       1A   -490.032955     2A   -490.029678     3A    -65.172637
       4A    -65.169456     5A    -58.527963     6A    -58.526558
       7A    -58.526526     8A    -58.524766     9A    -58.523375
      10A    -58.523347    11A    -11.320322    12A    -11.313485
      13A    -11.273518    14A    -11.266006    15A    -11.259500
      16A    -11.258535    17A    -11.243365    18A     -9.845318
      19A     -9.842219    20A     -7.456942    21A     -7.453829
      22A     -7.450088    23A     -7.450028    24A     -7.447010
      25A     -7.446969    26A     -3.200740    27A     -3.197585
      28A     -3.197183    29A     -3.196951    30A     -3.194047
      31A     -3.193837    32A     -3.188190    33A     -3.188182
      34A     -3.185148    35A     -3.185137    36A     -1.193227
      37A     -1.095751    38A     -1.087455    39A     -1.002833
      40A     -0.976659    41A     -0.960410    42A     -0.815953
      43A     -0.812157    44A     -0.712541    45A     -0.676368
      46A     -0.608731    47A     -0.598181    48A     -0.589058
      49A     -0.583256    50A     -0.559929    51A     -0.540611
      52A     -0.513610    53A     -0.487872    54A     -0.467088
      55A     -0.425815    56A     -0.422897    57A     -0.418575
      58A     -0.346668    59A     -0.337735

  @DF-RHF Final Energy: -5413.57975072943918

   => Energetics <=

    Nuclear Repulsion Energy =            881.2393287964541742
    One-Electron Energy =               -9283.5486160072250641
    Two-Electron Energy =                2988.7295364813317065
    Total Energy =                      -5413.5797507294382740
  Basis Set: (AUG-CC-PVTZ AUX)
    Blend: AUG-CC-PVTZ-RI
    Molecular point group: c1

    Geometry (in Angstrom), charge = 0, multiplicity = 1:

       Center              X                  Y                   Z               Mass
    ------------   -----------------  -----------------  -----------------  -----------------
         BR           2.840629221256    -0.777231939286     0.001123264175    78.918337600000
         BR          -2.844762778744    -0.777231939286     0.001123264175    78.918337600000
         C           -0.002066778744     2.275244060714    -0.016363735825    12.000000000000
         C           -1.209788778744     1.566674060714    -0.010149735825    12.000000000000
         C            1.205655221256     1.566674060714    -0.010149735825    12.000000000000
         C           -0.002066778744     3.781598060714     0.013787264175    12.000000000000
         C            1.188347221256     0.172908060714    -0.000646735825    12.000000000000
         C           -1.192480778744     0.172909060714    -0.000646735825    12.000000000000
         C            0.040626521256    -0.578735739286     0.005482464175    12.000000000000
         H           -2.159484778744     2.095502060714    -0.018325735825     1.007825032230
         H            2.155352221256     2.095501060714    -0.018324735825     1.007825032230
         H           -0.002056778744     4.150797060714     1.044756264175     1.007825032230
         H            0.883700221256     4.183206060714    -0.485471735825     1.007825032230
         H           -0.887842778744     4.183206060714    -0.485453735825     1.007825032230
         H           -0.002067778744    -1.637693939286     0.009406264175     1.007825032230

  Basis Set: AUG-CC-PVTZ
    Blend: AUG-CC-PVTZ
  Basis Set: (AUG-CC-PVTZ AUX)
    Blend: AUG-CC-PVTZ-JKFIT
	 Reference Energy          =   -5413.5797507294391835 [Eh]
	 Singles Energy            =      -0.0000000000000000 [Eh]
	 Same-Spin Energy          =      -0.4880108004162950 [Eh]
	 Opposite-Spin Energy      =      -1.3645053985455990 [Eh]
	 Correlation Energy        =      -1.8525161989618941 [Eh]
	 Total Energy              =   -5415.4322669284010772 [Eh]

	 ================> DF-SCS-MP2 Energies <==================
	-----------------------------------------------------------
	 SCS Same-Spin Scale       =       0.3333333333333333 [-]
	 SCS Opposite-Spin Scale   =       1.2000000000000000 [-]
	 SCS Same-Spin Energy      =      -0.1626702668054316 [Eh]
	 SCS Opposite-Spin Energy  =      -1.6374064782547189 [Eh]
	 SCS Correlation Energy    =      -1.8000767450601505 [Eh]
	 SCS Total Energy          =   -5415.3798274744995069 [Eh]
	-----------------------------------------------------------

  Dipole Moment: [D]
     X:    -0.1049      Y:     2.2038      Z:     0.0366     Total:     2.2066

*** Psi4 exiting successfully. Buy a developer a beer!
