                               Psi4 1.4a3.dev225

  ==> Input File <==

--------------------------------------------------------------------------
#psi4
#
memory 32 gb

molecule  {
0 1
 Br        2.8590265    -0.8716755     0.0008448
 Br       -2.8426960    -0.9006560     0.0010230
  C        0.0000000     2.1518200    -0.0164640
  C       -1.2077220     1.4432500    -0.0102500
  C        1.2077220     1.4432500    -0.0102500
  C        0.0000000     3.6581740     0.0136870
  C        1.1904140     0.0494840    -0.0007470
  C       -1.1904140     0.0494850    -0.0007470
  C        0.0000000    -0.6761360     0.0051700
  H       -2.1574180     1.9720780    -0.0184260
  H        2.1574190     1.9720770    -0.0184250
  H        0.0000100     4.0273730     1.0446560
  H        0.8857670     4.0597820    -0.4855720
  H       -0.8857760     4.0597820    -0.4855540
  H       -0.0000010    -1.7611180     0.0093060
units angstrom
no_reorient  #important for SAPT in psi4, default
symmetry c1  #important for SAPT in psi4, default
}

set PROPERTIES_ORIGIN ["COM"]
properties('MP2/aug-cc-pvtz', properties = ['dipole'])
--------------------------------------------------------------------------

    Molecular point group: c1
  Charge       = 0
  Multiplicity = 1
  Basis Set: AUG-CC-PVTZ
    Blend: AUG-CC-PVTZ
  Basis Set: (AUG-CC-PVTZ AUX)
    Blend: AUG-CC-PVTZ-JKFIT

    Orbital Energies [Eh]
    ---------------------

    Doubly Occupied:

       1A   -490.032061     2A   -490.031962     3A    -65.171767
       4A    -65.171670     5A    -58.527093     6A    -58.526995
       7A    -58.525685     8A    -58.525656     9A    -58.525588
      10A    -58.525558    11A    -11.315091    12A    -11.314939
      13A    -11.272314    14A    -11.265106    15A    -11.258829
      16A    -11.258464    17A    -11.242829    18A     -9.844465
      19A     -9.844369    20A     -7.456102    21A     -7.456004
      22A     -7.449228    23A     -7.449179    24A     -7.449134
      25A     -7.449084    26A     -3.199894    27A     -3.199796
      28A     -3.196327    29A     -3.196230    30A     -3.196107
      31A     -3.196009    32A     -3.187330    33A     -3.187321
      34A     -3.187236    35A     -3.187227    36A     -1.195007
      37A     -1.095346    38A     -1.088192    39A     -1.004624
      40A     -0.976457    41A     -0.959348    42A     -0.816456
      43A     -0.813244    44A     -0.708998    45A     -0.677532
      46A     -0.604080    47A     -0.597910    48A     -0.588639
      49A     -0.582920    50A     -0.560040    51A     -0.541997
      52A     -0.510408    53A     -0.491469    54A     -0.467384
      55A     -0.425939    56A     -0.423132    57A     -0.419951
      58A     -0.345884    59A     -0.339597

  @DF-RHF Final Energy: -5413.58294837655194

   => Energetics <=

    Nuclear Repulsion Energy =            881.3773771447458785
    One-Electron Energy =               -9283.8062420005844615
    Two-Electron Energy =                2988.8459164792866432
    Total Energy =                      -5413.5829483765528494
  Basis Set: (AUG-CC-PVTZ AUX)
    Blend: AUG-CC-PVTZ-RI
    Molecular point group: c1

    Geometry (in Angstrom), charge = 0, multiplicity = 1:

       Center              X                  Y                   Z               Mass
    ------------   -----------------  -----------------  -----------------  -----------------
         BR           2.853827379171    -0.758737724851     0.001012070004    78.918337600000
         BR          -2.847895120829    -0.787718224851     0.001190270004    78.918337600000
         C           -0.005199120829     2.264757775149    -0.016296729996    12.000000000000
         C           -1.212921120829     1.556187775149    -0.010082729996    12.000000000000
         C            1.202522879171     1.556187775149    -0.010082729996    12.000000000000
         C           -0.005199120829     3.771111775149     0.013854270004    12.000000000000
         C            1.185214879171     0.162421775149    -0.000579729996    12.000000000000
         C           -1.195613120829     0.162422775149    -0.000579729996    12.000000000000
         C           -0.005199120829    -0.563198224851     0.005337270004    12.000000000000
         H           -2.162617120829     2.085015775149    -0.018258729996     1.007825032230
         H            2.152219879171     2.085014775149    -0.018257729996     1.007825032230
         H           -0.005189120829     4.140310775149     1.044823270004     1.007825032230
         H            0.880567879171     4.172719775149    -0.485404729996     1.007825032230
         H           -0.890975120829     4.172719775149    -0.485386729996     1.007825032230
         H           -0.005200120829    -1.648180224851     0.009473270004     1.007825032230

  Basis Set: AUG-CC-PVTZ
    Blend: AUG-CC-PVTZ
  Basis Set: (AUG-CC-PVTZ AUX)
    Blend: AUG-CC-PVTZ-JKFIT
	 Reference Energy          =   -5413.5829483765519399 [Eh]
	 Singles Energy            =      -0.0000000000000000 [Eh]
	 Same-Spin Energy          =      -0.4880372643042792 [Eh]
	 Opposite-Spin Energy      =      -1.3642951754898403 [Eh]
	 Correlation Energy        =      -1.8523324397941194 [Eh]
	 Total Energy              =   -5415.4352808163457667 [Eh]

	 ================> DF-SCS-MP2 Energies <==================
	-----------------------------------------------------------
	 SCS Same-Spin Scale       =       0.3333333333333333 [-]
	 SCS Opposite-Spin Scale   =       1.2000000000000000 [-]
	 SCS Same-Spin Energy      =      -0.1626790881014264 [Eh]
	 SCS Opposite-Spin Energy  =      -1.6371542105878083 [Eh]
	 SCS Correlation Energy    =      -1.7998332986892347 [Eh]
	 SCS Total Energy          =   -5415.3827816752409490 [Eh]
	-----------------------------------------------------------

  Dipole Moment: [D]
     X:    -0.0068      Y:     2.1700      Z:     0.0366     Total:     2.1703

*** Psi4 exiting successfully. Buy a developer a beer!
