                               Psi4 1.4a3.dev225

  ==> Input File <==

--------------------------------------------------------------------------
#psi4
#
memory 32 gb

molecule  {
0 1
 Br        2.8426960    -0.9006560     0.0010230
 Br       -2.8426960    -0.9006560     0.0010230
  C        0.0000000     2.1518200    -0.0164640
  C       -1.2077220     1.4432500    -0.0102500
  C        1.2077220     1.4432500    -0.0102500
  C        0.0000000     3.6581740     0.0136870
  C        1.1904140     0.0494840    -0.0007470
  C       -1.0932309     0.0540907    -0.0003072
  C        0.0000000    -0.6761360     0.0051700
  H       -2.1574180     1.9720780    -0.0184260
  H        2.1574190     1.9720770    -0.0184250
  H        0.0000100     4.0273730     1.0446560
  H        0.8857670     4.0597820    -0.4855720
  H       -0.8857760     4.0597820    -0.4855540
  H       -0.0000010    -1.7611180     0.0093060
units angstrom
no_reorient  #important for SAPT in psi4, default
symmetry c1  #important for SAPT in psi4, default
}

set PROPERTIES_ORIGIN ["COM"]
properties('MP2/aug-cc-pvtz', properties = ['dipole'])
--------------------------------------------------------------------------

    Molecular point group: c1
  Charge       = 0
  Multiplicity = 1
  Basis Set: AUG-CC-PVTZ
    Blend: AUG-CC-PVTZ
  Basis Set: (AUG-CC-PVTZ AUX)
    Blend: AUG-CC-PVTZ-JKFIT

    Orbital Energies [Eh]
    ---------------------

    Doubly Occupied:

       1A   -490.034300     2A   -490.022186     3A    -65.174011
       4A    -65.161675     5A    -58.529334     6A    -58.527931
       7A    -58.527895     8A    -58.517013     9A    -58.515603
      10A    -58.515581    11A    -11.318910    12A    -11.314253
      13A    -11.275106    14A    -11.261802    15A    -11.261058
      16A    -11.259715    17A    -11.244528    18A     -9.846712
      19A     -9.833940    20A     -7.458340    21A     -7.451490
      22A     -7.451413    23A     -7.445325    24A     -7.438726
      25A     -7.438724    26A     -3.202130    27A     -3.198583
      28A     -3.198331    29A     -3.189584    30A     -3.189575
      31A     -3.188969    32A     -3.185655    33A     -3.185521
      34A     -3.176960    35A     -3.176951    36A     -1.206873
      37A     -1.095070    38A     -1.089423    39A     -1.003652
      40A     -0.974144    41A     -0.966922    42A     -0.824885
      43A     -0.811898    44A     -0.716420    45A     -0.685317
      46A     -0.610425    47A     -0.600792    48A     -0.595347
      49A     -0.582775    50A     -0.560796    51A     -0.549787
      52A     -0.510746    53A     -0.475016    54A     -0.463103
      55A     -0.425277    56A     -0.420573    57A     -0.415100
      58A     -0.357642    59A     -0.341404

  @DF-RHF Final Energy: -5413.57485677823570

   => Energetics <=

    Nuclear Repulsion Energy =            881.3165287067836289
    One-Electron Energy =               -9283.7803397466232127
    Two-Electron Energy =                2988.8889542616034305
    Total Energy =                      -5413.5748567782356986
  Basis Set: (AUG-CC-PVTZ AUX)
    Blend: AUG-CC-PVTZ-RI
    Molecular point group: c1

    Geometry (in Angstrom), charge = 0, multiplicity = 1:

       Center              X                  Y                   Z               Mass
    ------------   -----------------  -----------------  -----------------  -----------------
         BR           2.837991380217    -0.778714707659     0.001112246101    78.918337600000
         BR          -2.847400619783    -0.778714707659     0.001112246101    78.918337600000
         C           -0.004704619783     2.273761292341    -0.016374753899    12.000000000000
         C           -1.212426619783     1.565191292341    -0.010160753899    12.000000000000
         C            1.203017380217     1.565191292341    -0.010160753899    12.000000000000
         C           -0.004704619783     3.780115292341     0.013776246101    12.000000000000
         C            1.185709380217     0.171425292341    -0.000657753899    12.000000000000
         C           -1.097935519783     0.176031992341    -0.000217953899    12.000000000000
         C           -0.004704619783    -0.554194707659     0.005259246101    12.000000000000
         H           -2.162122619783     2.094019292341    -0.018336753899     1.007825032230
         H            2.152714380217     2.094018292341    -0.018335753899     1.007825032230
         H           -0.004694619783     4.149314292341     1.044745246101     1.007825032230
         H            0.881062380217     4.181723292341    -0.485482753899     1.007825032230
         H           -0.890480619783     4.181723292341    -0.485464753899     1.007825032230
         H           -0.004705619783    -1.639176707659     0.009395246101     1.007825032230

  Basis Set: AUG-CC-PVTZ
    Blend: AUG-CC-PVTZ
  Basis Set: (AUG-CC-PVTZ AUX)
    Blend: AUG-CC-PVTZ-JKFIT
	 Reference Energy          =   -5413.5748567782356986 [Eh]
	 Singles Energy            =      -0.0000000000000000 [Eh]
	 Same-Spin Energy          =      -0.4874479222899065 [Eh]
	 Opposite-Spin Energy      =      -1.3633115908026385 [Eh]
	 Correlation Energy        =      -1.8507595130925449 [Eh]
	 Total Energy              =   -5415.4256162913279695 [Eh]

	 ================> DF-SCS-MP2 Energies <==================
	-----------------------------------------------------------
	 SCS Same-Spin Scale       =       0.3333333333333333 [-]
	 SCS Opposite-Spin Scale   =       1.2000000000000000 [-]
	 SCS Same-Spin Energy      =      -0.1624826407633022 [Eh]
	 SCS Opposite-Spin Energy  =      -1.6359739089631662 [Eh]
	 SCS Correlation Energy    =      -1.7984565497264684 [Eh]
	 SCS Total Energy          =   -5415.3733133279620233 [Eh]
	-----------------------------------------------------------

  Dipole Moment: [D]
     X:     0.4288      Y:     2.3946      Z:     0.0372     Total:     2.4330

*** Psi4 exiting successfully. Buy a developer a beer!
