                               Psi4 1.4a3.dev225

  ==> Input File <==

--------------------------------------------------------------------------
#psi4
#
memory 32 gb

molecule  {
0 1
 Br        2.8426960    -0.9006560     0.0010230
 Br       -2.8426960    -0.9006560     0.0010230
  C        0.0000000     2.1518200    -0.0164640
  C       -1.2077220     1.4432500    -0.0102500
  C        1.2077220     1.4432500    -0.0102500
  C        0.0000000     3.6581740     0.0136870
  C        1.1904140     0.0494840    -0.0007470
  C       -1.1904140     0.0494850    -0.0007470
  C       -0.0853865    -0.6240883     0.0047456
  H       -2.1574180     1.9720780    -0.0184260
  H        2.1574190     1.9720770    -0.0184250
  H        0.0000100     4.0273730     1.0446560
  H        0.8857670     4.0597820    -0.4855720
  H       -0.8857760     4.0597820    -0.4855540
  H       -0.0000010    -1.7611180     0.0093060
units angstrom
no_reorient  #important for SAPT in psi4, default
symmetry c1  #important for SAPT in psi4, default
}

set PROPERTIES_ORIGIN ["COM"]
properties('MP2/aug-cc-pvtz', properties = ['dipole'])
--------------------------------------------------------------------------

    Molecular point group: c1
  Charge       = 0
  Multiplicity = 1
  Basis Set: AUG-CC-PVTZ
    Blend: AUG-CC-PVTZ
  Basis Set: (AUG-CC-PVTZ AUX)
    Blend: AUG-CC-PVTZ-JKFIT

    Orbital Energies [Eh]
    ---------------------

    Doubly Occupied:

       1A   -490.036395     2A   -490.029785     3A    -65.175969
       4A    -65.169551     5A    -58.531325     6A    -58.529882
       7A    -58.529853     8A    -58.524872     9A    -58.523461
      10A    -58.523435    11A    -11.318257    12A    -11.301848
      13A    -11.270764    14A    -11.261575    15A    -11.259501
      16A    -11.257395    17A    -11.242163    18A     -9.848551
      19A     -9.842290    20A     -7.460237    21A     -7.453946
      22A     -7.453253    23A     -7.453199    24A     -7.447043
      25A     -7.447009    26A     -3.204093    27A     -3.200469
      28A     -3.200241    29A     -3.197720    30A     -3.194139
      31A     -3.193940    32A     -3.191293    33A     -3.191285
      34A     -3.185145    35A     -3.185135    36A     -1.200992
      37A     -1.100742    38A     -1.085839    39A     -1.007049
      40A     -0.977233    41A     -0.958168    42A     -0.823964
      43A     -0.808439    44A     -0.702646    45A     -0.680974
      46A     -0.599417    47A     -0.597083    48A     -0.585495
      49A     -0.580226    50A     -0.559625    51A     -0.546572
      52A     -0.508578    53A     -0.488694    54A     -0.468620
      55A     -0.426983    56A     -0.423723    57A     -0.420394
      58A     -0.354023    59A     -0.335569

  @DF-RHF Final Energy: -5413.56991305954125

   => Energetics <=

    Nuclear Repulsion Energy =            882.5143037486574258
    One-Electron Energy =               -9286.0162971732606820
    Two-Electron Energy =                2989.9320803650621201
    Total Energy =                      -5413.5699130595403403
  Basis Set: (AUG-CC-PVTZ AUX)
    Blend: AUG-CC-PVTZ-RI
    Molecular point group: c1

    Geometry (in Angstrom), charge = 0, multiplicity = 1:

       Center              X                  Y                   Z               Mass
    ------------   -----------------  -----------------  -----------------  -----------------
         BR           2.846829540449    -0.781011366017     0.001154081862    78.918337600000
         BR          -2.838562459551    -0.781011366017     0.001154081862    78.918337600000
         C            0.004133540449     2.271464633983    -0.016332918138    12.000000000000
         C           -1.203588459551     1.562894633983    -0.010118918138    12.000000000000
         C            1.211855540449     1.562894633983    -0.010118918138    12.000000000000
         C            0.004133540449     3.777818633983     0.013818081862    12.000000000000
         C            1.194547540449     0.169128633983    -0.000615918138    12.000000000000
         C           -1.186280459551     0.169129633983    -0.000615918138    12.000000000000
         C           -0.081252959551    -0.504443666017     0.004876681862    12.000000000000
         H           -2.153284459551     2.091722633983    -0.018294918138     1.007825032230
         H            2.161552540449     2.091721633983    -0.018293918138     1.007825032230
         H            0.004143540449     4.147017633983     1.044787081862     1.007825032230
         H            0.889900540449     4.179426633983    -0.485440918138     1.007825032230
         H           -0.881642459551     4.179426633983    -0.485422918138     1.007825032230
         H            0.004132540449    -1.641473366017     0.009437081862     1.007825032230

  Basis Set: AUG-CC-PVTZ
    Blend: AUG-CC-PVTZ
  Basis Set: (AUG-CC-PVTZ AUX)
    Blend: AUG-CC-PVTZ-JKFIT
	 Reference Energy          =   -5413.5699130595412498 [Eh]
	 Singles Energy            =      -0.0000000000000000 [Eh]
	 Same-Spin Energy          =      -0.4878962032112516 [Eh]
	 Opposite-Spin Energy      =      -1.3645663448019894 [Eh]
	 Correlation Energy        =      -1.8524625480132411 [Eh]
	 Total Energy              =   -5415.4223756075543861 [Eh]

	 ================> DF-SCS-MP2 Energies <==================
	-----------------------------------------------------------
	 SCS Same-Spin Scale       =       0.3333333333333333 [-]
	 SCS Opposite-Spin Scale   =       1.2000000000000000 [-]
	 SCS Same-Spin Energy      =      -0.1626320677370839 [Eh]
	 SCS Opposite-Spin Energy  =      -1.6374796137623873 [Eh]
	 SCS Correlation Energy    =      -1.8001116814994711 [Eh]
	 SCS Total Energy          =   -5415.3700247410406519 [Eh]
	-----------------------------------------------------------

  Dipole Moment: [D]
     X:     0.2254      Y:     2.1387      Z:     0.0365     Total:     2.1509

*** Psi4 exiting successfully. Buy a developer a beer!
