                               Psi4 1.4a3.dev225

  ==> Input File <==

--------------------------------------------------------------------------
#psi4
#
memory 32 gb

molecule  {
0 1
 Br        2.8426960    -0.9006560     0.0010230
 Br       -2.8426960    -0.9006560     0.0010230
  C        0.0000000     2.1518200    -0.0164640
  C       -1.2077220     1.4432500    -0.0102500
  C        1.2077220     1.4432500    -0.0102500
  C        0.0000000     3.6581740     0.0136870
  C        1.1904140     0.0494840    -0.0007470
  C       -1.1904140     0.0494850    -0.0007470
  C       -0.0426933    -0.6501122     0.0049578
  H       -2.1574180     1.9720780    -0.0184260
  H        2.1574190     1.9720770    -0.0184250
  H        0.0000100     4.0273730     1.0446560
  H        0.8857670     4.0597820    -0.4855720
  H       -0.8857760     4.0597820    -0.4855540
  H       -0.0000010    -1.7611180     0.0093060
units angstrom
no_reorient  #important for SAPT in psi4, default
symmetry c1  #important for SAPT in psi4, default
}

set PROPERTIES_ORIGIN ["COM"]
properties('MP2/aug-cc-pvtz', properties = ['dipole'])
--------------------------------------------------------------------------

    Molecular point group: c1
  Charge       = 0
  Multiplicity = 1
  Basis Set: AUG-CC-PVTZ
    Blend: AUG-CC-PVTZ
  Basis Set: (AUG-CC-PVTZ AUX)
    Blend: AUG-CC-PVTZ-JKFIT

    Orbital Energies [Eh]
    ---------------------

    Doubly Occupied:

       1A   -490.034220     2A   -490.030897     3A    -65.173859
       4A    -65.170632     5A    -58.529200     6A    -58.527775
       7A    -58.527746     8A    -58.525955     9A    -58.524546
      10A    -58.524519    11A    -11.316568    12A    -11.308775
      13A    -11.271569    14A    -11.263329    15A    -11.259151
      16A    -11.258109    17A    -11.242516    18A     -9.846497
      19A     -9.843350    20A     -7.458158    21A     -7.454995
      22A     -7.451232    23A     -7.451179    24A     -7.448109
      25A     -7.448068    26A     -3.201983    27A     -3.198778
      28A     -3.198388    29A     -3.198162    30A     -3.195205
      31A     -3.194996    32A     -3.189303    33A     -3.189294
      34A     -3.186212    35A     -3.186203    36A     -1.197540
      37A     -1.097147    38A     -1.087548    39A     -1.005742
      40A     -0.976975    41A     -0.958541    42A     -0.820199
      43A     -0.811088    44A     -0.705701    45A     -0.679197
      46A     -0.600781    47A     -0.597638    48A     -0.586760
      49A     -0.582470    50A     -0.559964    51A     -0.543942
      52A     -0.508553    53A     -0.492071    54A     -0.467777
      55A     -0.426372    56A     -0.423503    57A     -0.420451
      58A     -0.348950    59A     -0.338217

  @DF-RHF Final Energy: -5413.58010567452766

   => Energetics <=

    Nuclear Repulsion Energy =            882.0289633972363390
    One-Electron Energy =               -9285.0849378251223243
    Two-Electron Energy =                2989.4758687533576449
    Total Energy =                      -5413.5801056745276583
  Basis Set: (AUG-CC-PVTZ AUX)
    Blend: AUG-CC-PVTZ-RI
    Molecular point group: c1

    Geometry (in Angstrom), charge = 0, multiplicity = 1:

       Center              X                  Y                   Z               Mass
    ------------   -----------------  -----------------  -----------------  -----------------
         BR           2.844762770612    -0.779751553880     0.001143809300    78.918337600000
         BR          -2.840629229388    -0.779751553880     0.001143809300    78.918337600000
         C            0.002066770612     2.272724446120    -0.016343190700    12.000000000000
         C           -1.205655229388     1.564154446120    -0.010129190700    12.000000000000
         C            1.209788770612     1.564154446120    -0.010129190700    12.000000000000
         C            0.002066770612     3.779078446120     0.013807809300    12.000000000000
         C            1.192480770612     0.170388446120    -0.000626190700    12.000000000000
         C           -1.188347229388     0.170389446120    -0.000626190700    12.000000000000
         C           -0.040626529388    -0.529207753880     0.005078609300    12.000000000000
         H           -2.155351229388     2.092982446120    -0.018305190700     1.007825032230
         H            2.159485770612     2.092981446120    -0.018304190700     1.007825032230
         H            0.002076770612     4.148277446120     1.044776809300     1.007825032230
         H            0.887833770612     4.180686446120    -0.485451190700     1.007825032230
         H           -0.883709229388     4.180686446120    -0.485433190700     1.007825032230
         H            0.002065770612    -1.640213553880     0.009426809300     1.007825032230

  Basis Set: AUG-CC-PVTZ
    Blend: AUG-CC-PVTZ
  Basis Set: (AUG-CC-PVTZ AUX)
    Blend: AUG-CC-PVTZ-JKFIT
	 Reference Energy          =   -5413.5801056745276583 [Eh]
	 Singles Energy            =      -0.0000000000000000 [Eh]
	 Same-Spin Energy          =      -0.4880000426266574 [Eh]
	 Opposite-Spin Energy      =      -1.3643106194553556 [Eh]
	 Correlation Energy        =      -1.8523106620820129 [Eh]
	 Total Energy              =   -5415.4324163366100038 [Eh]

	 ================> DF-SCS-MP2 Energies <==================
	-----------------------------------------------------------
	 SCS Same-Spin Scale       =       0.3333333333333333 [-]
	 SCS Opposite-Spin Scale   =       1.2000000000000000 [-]
	 SCS Same-Spin Energy      =      -0.1626666808755524 [Eh]
	 SCS Opposite-Spin Energy  =      -1.6371727433464267 [Eh]
	 SCS Correlation Energy    =      -1.7998394242219791 [Eh]
	 SCS Total Energy          =   -5415.3799450987498858 [Eh]
	-----------------------------------------------------------

  Dipole Moment: [D]
     X:     0.1103      Y:     2.1572      Z:     0.0365     Total:     2.1603

*** Psi4 exiting successfully. Buy a developer a beer!
