                               Psi4 1.4a3.dev225

  ==> Input File <==

--------------------------------------------------------------------------
#psi4
#
memory 32 gb

molecule  {
0 1
 Br        2.8426960    -0.9006560     0.0010230
 Br       -2.8426960    -0.9006560     0.0010230
  C        0.0000000     2.1518200    -0.0164640
  C       -1.2077220     1.4432500    -0.0102500
  C        1.2077220     1.4432500    -0.0102500
  C        0.0000000     3.6581740     0.0136870
  C        1.1904140     0.0494840    -0.0007470
  C       -1.2147415     0.0493944    -0.0008643
  C        0.0000000    -0.6761360     0.0051700
  H       -2.1574180     1.9720780    -0.0184260
  H        2.1574190     1.9720770    -0.0184250
  H        0.0000100     4.0273730     1.0446560
  H        0.8857670     4.0597820    -0.4855720
  H       -0.8857760     4.0597820    -0.4855540
  H       -0.0000010    -1.7611180     0.0093060
units angstrom
no_reorient  #important for SAPT in psi4, default
symmetry c1  #important for SAPT in psi4, default
}

set PROPERTIES_ORIGIN ["COM"]
properties('MP2/aug-cc-pvtz', properties = ['dipole'])
--------------------------------------------------------------------------

    Molecular point group: c1
  Charge       = 0
  Multiplicity = 1
  Basis Set: AUG-CC-PVTZ
    Blend: AUG-CC-PVTZ
  Basis Set: (AUG-CC-PVTZ AUX)
    Blend: AUG-CC-PVTZ-JKFIT

    Orbital Energies [Eh]
    ---------------------

    Doubly Occupied:

       1A   -490.034029     2A   -490.031482     3A    -65.173818
       4A    -65.171188     5A    -58.529133     6A    -58.527735
       7A    -58.527703     8A    -58.526514     9A    -58.525106
      10A    -58.525078    11A    -11.315379    12A    -11.314135
      13A    -11.271975    14A    -11.266076    15A    -11.258364
      16A    -11.258273    17A    -11.242583    18A     -9.846661
      19A     -9.843886    20A     -7.458354    21A     -7.455523
      22A     -7.451433    23A     -7.451367    24A     -7.448647
      25A     -7.448604    26A     -3.202175    27A     -3.199315
      28A     -3.198551    29A     -3.198304    30A     -3.195745
      31A     -3.195532    32A     -3.189514    33A     -3.189505
      34A     -3.186751    35A     -3.186742    36A     -1.192666
      37A     -1.097049    38A     -1.087588    39A     -1.004213
      40A     -0.977191    41A     -0.957462    42A     -0.814976
      43A     -0.812932    44A     -0.707305    45A     -0.675822
      46A     -0.604582    47A     -0.597299    48A     -0.586919
      49A     -0.581904    50A     -0.559740    51A     -0.540504
      52A     -0.512411    53A     -0.492750    54A     -0.468749
      55A     -0.426832    56A     -0.423534    57A     -0.419895
      58A     -0.343515    59A     -0.338727

  @DF-RHF Final Energy: -5413.58204123805990

   => Energetics <=

    Nuclear Repulsion Energy =            881.7136177873893530
    One-Electron Energy =               -9284.4518282554145117
    Two-Electron Energy =                2989.1561692299651440
    Total Energy =                      -5413.5820412380599009
  Basis Set: (AUG-CC-PVTZ AUX)
    Blend: AUG-CC-PVTZ-RI
    Molecular point group: c1

    Geometry (in Angstrom), charge = 0, multiplicity = 1:

       Center              X                  Y                   Z               Mass
    ------------   -----------------  -----------------  -----------------  -----------------
         BR           2.843873685665    -0.778487360654     0.001139215208    78.918337600000
         BR          -2.841518314335    -0.778487360654     0.001139215208    78.918337600000
         C            0.001177685665     2.273988639346    -0.016347784792    12.000000000000
         C           -1.206544314335     1.565418639346    -0.010133784792    12.000000000000
         C            1.208899685665     1.565418639346    -0.010133784792    12.000000000000
         C            0.001177685665     3.780342639346     0.013803215208    12.000000000000
         C            1.191591685665     0.171652639346    -0.000630784792    12.000000000000
         C           -1.213563814335     0.171563039346    -0.000748084792    12.000000000000
         C            0.001177685665    -0.553967360654     0.005286215208    12.000000000000
         H           -2.156240314335     2.094246639346    -0.018309784792     1.007825032230
         H            2.158596685665     2.094245639346    -0.018308784792     1.007825032230
         H            0.001187685665     4.149541639346     1.044772215208     1.007825032230
         H            0.886944685665     4.181950639346    -0.485455784792     1.007825032230
         H           -0.884598314335     4.181950639346    -0.485437784792     1.007825032230
         H            0.001176685665    -1.638949360654     0.009422215208     1.007825032230

  Basis Set: AUG-CC-PVTZ
    Blend: AUG-CC-PVTZ
  Basis Set: (AUG-CC-PVTZ AUX)
    Blend: AUG-CC-PVTZ-JKFIT
	 Reference Energy          =   -5413.5820412380599009 [Eh]
	 Singles Energy            =      -0.0000000000000000 [Eh]
	 Same-Spin Energy          =      -0.4882523724347922 [Eh]
	 Opposite-Spin Energy      =      -1.3646971561447498 [Eh]
	 Correlation Energy        =      -1.8529495285795421 [Eh]
	 Total Energy              =   -5415.4349907666392028 [Eh]

	 ================> DF-SCS-MP2 Energies <==================
	-----------------------------------------------------------
	 SCS Same-Spin Scale       =       0.3333333333333333 [-]
	 SCS Opposite-Spin Scale   =       1.2000000000000000 [-]
	 SCS Same-Spin Energy      =      -0.1627507908115974 [Eh]
	 SCS Opposite-Spin Energy  =      -1.6376365873736998 [Eh]
	 SCS Correlation Energy    =      -1.8003873781852973 [Eh]
	 SCS Total Energy          =   -5415.3824286162453063 [Eh]
	-----------------------------------------------------------

  Dipole Moment: [D]
     X:    -0.0965      Y:     2.1280      Z:     0.0364     Total:     2.1305

*** Psi4 exiting successfully. Buy a developer a beer!
