                               Psi4 1.4a3.dev225

  ==> Input File <==

--------------------------------------------------------------------------
#psi4
#
memory 32 gb

molecule  {
0 1
 Br        2.8426960    -0.9006560     0.0010230
 Br       -2.8426960    -0.9006560     0.0010230
  C        0.0000000     2.1518200    -0.0164640
  C       -1.2077220     1.4432500    -0.0102500
  C        1.2077220     1.4432500    -0.0102500
  C        0.0000000     3.6581740     0.0136870
  C        1.1904140     0.0494840    -0.0007470
  C       -1.1904140     0.0494850    -0.0007470
  C        0.0000000    -0.6761360     0.0051700
  H       -2.1574180     1.9720780    -0.0184260
  H        2.1574190     1.9720770    -0.0184250
  H        0.0000100     4.0273730     1.0446560
  H        0.9667906     4.0965182    -0.5312406
  H       -0.8857760     4.0597820    -0.4855540
  H       -0.0000010    -1.7611180     0.0093060
units angstrom
no_reorient  #important for SAPT in psi4, default
symmetry c1  #important for SAPT in psi4, default
}

set PROPERTIES_ORIGIN ["COM"]
properties('MP2/aug-cc-pvtz', properties = ['dipole'])
--------------------------------------------------------------------------

    Molecular point group: c1
  Charge       = 0
  Multiplicity = 1
  Basis Set: AUG-CC-PVTZ
    Blend: AUG-CC-PVTZ
  Basis Set: (AUG-CC-PVTZ AUX)
    Blend: AUG-CC-PVTZ-JKFIT

    Orbital Energies [Eh]
    ---------------------

    Doubly Occupied:

       1A   -490.032272     2A   -490.032102     3A    -65.171978
       4A    -65.171809     5A    -58.527304     6A    -58.527135
       7A    -58.525896     8A    -58.525866     9A    -58.525727
      10A    -58.525697    11A    -11.315328    12A    -11.315110
      13A    -11.273370    14A    -11.265118    15A    -11.259582
      16A    -11.259016    17A    -11.254496    18A     -9.844676
      19A     -9.844507    20A     -7.456314    21A     -7.456144
      22A     -7.449438    23A     -7.449390    24A     -7.449271
      25A     -7.449221    26A     -3.200107    27A     -3.199936
      28A     -3.196538    29A     -3.196369    30A     -3.196319
      31A     -3.196148    32A     -3.187540    33A     -3.187530
      34A     -3.187372    35A     -3.187363    36A     -1.195304
      37A     -1.095415    38A     -1.087605    39A     -1.003769
      40A     -0.977074    41A     -0.954354    42A     -0.816585
      43A     -0.811195    44A     -0.709180    45A     -0.676625
      46A     -0.604240    47A     -0.596049    48A     -0.588597
      49A     -0.583182    50A     -0.548292    51A     -0.538835
      52A     -0.510809    53A     -0.490807    54A     -0.467504
      55A     -0.426213    56A     -0.423322    57A     -0.420041
      58A     -0.345908    59A     -0.340011

  @DF-RHF Final Energy: -5413.57637782495476

   => Energetics <=

    Nuclear Repulsion Energy =            881.1719817600130682
    One-Electron Energy =               -9283.3909073520080710
    Two-Electron Energy =                2988.6425477670400142
    Total Energy =                      -5413.5763778249547613
  Basis Set: (AUG-CC-PVTZ AUX)
    Blend: AUG-CC-PVTZ-RI
    Molecular point group: c1

    Geometry (in Angstrom), charge = 0, multiplicity = 1:

       Center              X                  Y                   Z               Mass
    ------------   -----------------  -----------------  -----------------  -----------------
         BR           2.842366576788    -0.778641105629     0.001319212407    78.918337600000
         BR          -2.843025423212    -0.778641105629     0.001319212407    78.918337600000
         C           -0.000329423212     2.273834894371    -0.016167787593    12.000000000000
         C           -1.208051423212     1.565264894371    -0.009953787593    12.000000000000
         C            1.207392576788     1.565264894371    -0.009953787593    12.000000000000
         C           -0.000329423212     3.780188894371     0.013983212407    12.000000000000
         C            1.190084576788     0.171498894371    -0.000450787593    12.000000000000
         C           -1.190743423212     0.171499894371    -0.000450787593    12.000000000000
         C           -0.000329423212    -0.554121105629     0.005466212407    12.000000000000
         H           -2.157747423212     2.094092894371    -0.018129787593     1.007825032230
         H            2.157089576788     2.094091894371    -0.018128787593     1.007825032230
         H           -0.000319423212     4.149387894371     1.044952212407     1.007825032230
         H            0.966461176788     4.218533094371    -0.530944387593     1.007825032230
         H           -0.886105423212     4.181796894371    -0.485257787593     1.007825032230
         H           -0.000330423212    -1.639103105629     0.009602212407     1.007825032230

  Basis Set: AUG-CC-PVTZ
    Blend: AUG-CC-PVTZ
  Basis Set: (AUG-CC-PVTZ AUX)
    Blend: AUG-CC-PVTZ-JKFIT
	 Reference Energy          =   -5413.5763778249547613 [Eh]
	 Singles Energy            =      -0.0000000000000000 [Eh]
	 Same-Spin Energy          =      -0.4880615411519319 [Eh]
	 Opposite-Spin Energy      =      -1.3650393424472025 [Eh]
	 Correlation Energy        =      -1.8531008835991343 [Eh]
	 Total Energy              =   -5415.4294787085536882 [Eh]

	 ================> DF-SCS-MP2 Energies <==================
	-----------------------------------------------------------
	 SCS Same-Spin Scale       =       0.3333333333333333 [-]
	 SCS Opposite-Spin Scale   =       1.2000000000000000 [-]
	 SCS Same-Spin Energy      =      -0.1626871803839773 [Eh]
	 SCS Opposite-Spin Energy  =      -1.6380472109366429 [Eh]
	 SCS Correlation Energy    =      -1.8007343913206202 [Eh]
	 SCS Total Energy          =   -5415.3771122162752363 [Eh]
	-----------------------------------------------------------

  Dipole Moment: [D]
     X:    -0.0332      Y:     2.1334      Z:     0.0535     Total:     2.1343

*** Psi4 exiting successfully. Buy a developer a beer!
