                               Psi4 1.4a3.dev225

  ==> Input File <==

--------------------------------------------------------------------------
#psi4
#
memory 32 gb

molecule  {
0 1
 Br        2.8426960    -0.9006560     0.0010230
 Br       -2.8426960    -0.9006560     0.0010230
  C        0.0000000     2.1518200    -0.0164640
  C       -1.2077220     1.4432500    -0.0102500
  C        1.2508472     1.4179485    -0.0100281
  C        0.0000000     3.6581740     0.0136870
  C        1.1904140     0.0494840    -0.0007470
  C       -1.1904140     0.0494850    -0.0007470
  C        0.0000000    -0.6761360     0.0051700
  H       -2.1574180     1.9720780    -0.0184260
  H        2.1574190     1.9720770    -0.0184250
  H        0.0000100     4.0273730     1.0446560
  H        0.8857670     4.0597820    -0.4855720
  H       -0.8857760     4.0597820    -0.4855540
  H       -0.0000010    -1.7611180     0.0093060
units angstrom
no_reorient  #important for SAPT in psi4, default
symmetry c1  #important for SAPT in psi4, default
}

set PROPERTIES_ORIGIN ["COM"]
properties('MP2/aug-cc-pvtz', properties = ['dipole'])
--------------------------------------------------------------------------

    Molecular point group: c1
  Charge       = 0
  Multiplicity = 1
  Basis Set: AUG-CC-PVTZ
    Blend: AUG-CC-PVTZ
  Basis Set: (AUG-CC-PVTZ AUX)
    Blend: AUG-CC-PVTZ-JKFIT

    Orbital Energies [Eh]
    ---------------------

    Doubly Occupied:

       1A   -490.032404     2A   -490.029654     3A    -65.172110
       4A    -65.169435     5A    -58.527435     6A    -58.526029
       7A    -58.525997     8A    -58.524744     9A    -58.523354
      10A    -58.523325    11A    -11.315982    12A    -11.313276
      13A    -11.278631    14A    -11.264606    15A    -11.259783
      16A    -11.258513    17A    -11.243956    18A     -9.844809
      19A     -9.842199    20A     -7.456444    21A     -7.453809
      22A     -7.449577    23A     -7.449517    24A     -7.446991
      25A     -7.446950    26A     -3.200236    27A     -3.197565
      28A     -3.196674    29A     -3.196443    30A     -3.194027
      31A     -3.193817    32A     -3.187674    33A     -3.187665
      34A     -3.185128    35A     -3.185118    36A     -1.193792
      37A     -1.097666    38A     -1.084580    39A     -1.004004
      40A     -0.977547    41A     -0.959935    42A     -0.817497
      43A     -0.810560    44A     -0.712118    45A     -0.677040
      46A     -0.603583    47A     -0.597853    48A     -0.592882
      49A     -0.585661    50A     -0.560535    51A     -0.542629
      52A     -0.512136    53A     -0.486776    54A     -0.468012
      55A     -0.425401    56A     -0.421034    57A     -0.419097
      58A     -0.344427    59A     -0.339966

  @DF-RHF Final Energy: -5413.57997715560850

   => Energetics <=

    Nuclear Repulsion Energy =            881.5705942482239834
    One-Electron Energy =               -9284.2239274419080175
    Two-Electron Energy =                2989.0733560380754170
    Total Energy =                      -5413.5799771556085034
  Basis Set: (AUG-CC-PVTZ AUX)
    Blend: AUG-CC-PVTZ-RI
    Molecular point group: c1

    Geometry (in Angstrom), charge = 0, multiplicity = 1:

       Center              X                  Y                   Z               Mass
    ------------   -----------------  -----------------  -----------------  -----------------
         BR           2.840608313058    -0.777266905694     0.001122794600    78.918337600000
         BR          -2.844783686942    -0.777266905694     0.001122794600    78.918337600000
         C           -0.002087686942     2.275209094306    -0.016364205400    12.000000000000
         C           -1.209809686942     1.566639094306    -0.010150205400    12.000000000000
         C            1.248759513058     1.541337594306    -0.009928305400    12.000000000000
         C           -0.002087686942     3.781563094306     0.013786794600    12.000000000000
         C            1.188326313058     0.172873094306    -0.000647205400    12.000000000000
         C           -1.192501686942     0.172874094306    -0.000647205400    12.000000000000
         C           -0.002087686942    -0.552746905694     0.005269794600    12.000000000000
         H           -2.159505686942     2.095467094306    -0.018326205400     1.007825032230
         H            2.155331313058     2.095466094306    -0.018325205400     1.007825032230
         H           -0.002077686942     4.150762094306     1.044755794600     1.007825032230
         H            0.883679313058     4.183171094306    -0.485472205400     1.007825032230
         H           -0.887863686942     4.183171094306    -0.485454205400     1.007825032230
         H           -0.002088686942    -1.637728905694     0.009405794600     1.007825032230

  Basis Set: AUG-CC-PVTZ
    Blend: AUG-CC-PVTZ
  Basis Set: (AUG-CC-PVTZ AUX)
    Blend: AUG-CC-PVTZ-JKFIT
	 Reference Energy          =   -5413.5799771556085034 [Eh]
	 Singles Energy            =      -0.0000000000000000 [Eh]
	 Same-Spin Energy          =      -0.4879845354929119 [Eh]
	 Opposite-Spin Energy      =      -1.3643542819773291 [Eh]
	 Correlation Energy        =      -1.8523388174702409 [Eh]
	 Total Energy              =   -5415.4323159730784027 [Eh]

	 ================> DF-SCS-MP2 Energies <==================
	-----------------------------------------------------------
	 SCS Same-Spin Scale       =       0.3333333333333333 [-]
	 SCS Opposite-Spin Scale   =       1.2000000000000000 [-]
	 SCS Same-Spin Energy      =      -0.1626615118309706 [Eh]
	 SCS Opposite-Spin Energy  =      -1.6372251383727949 [Eh]
	 SCS Correlation Energy    =      -1.7998866502037656 [Eh]
	 SCS Total Energy          =   -5415.3798638058124197 [Eh]
	-----------------------------------------------------------

  Dipole Moment: [D]
     X:    -0.0704      Y:     2.2585      Z:     0.0375     Total:     2.2600

*** Psi4 exiting successfully. Buy a developer a beer!
