                               Psi4 1.4a3.dev225

  ==> Input File <==

--------------------------------------------------------------------------
#psi4
#
memory 32 gb

molecule  {
0 1
 Br        2.8426960    -0.9006560     0.0010230
 Br       -2.8426960    -0.9006560     0.0010230
  C        0.0000000     2.1518200    -0.0164640
  C       -1.0619357     1.4374248    -0.0100907
  C        1.2077220     1.4432500    -0.0102500
  C        0.0000000     3.6581740     0.0136870
  C        1.1904140     0.0494840    -0.0007470
  C       -1.1904140     0.0494850    -0.0007470
  C        0.0000000    -0.6761360     0.0051700
  H       -2.1574180     1.9720780    -0.0184260
  H        2.1574190     1.9720770    -0.0184250
  H        0.0000100     4.0273730     1.0446560
  H        0.8857670     4.0597820    -0.4855720
  H       -0.8857760     4.0597820    -0.4855540
  H       -0.0000010    -1.7611180     0.0093060
units angstrom
no_reorient  #important for SAPT in psi4, default
symmetry c1  #important for SAPT in psi4, default
}

set PROPERTIES_ORIGIN ["COM"]
properties('MP2/aug-cc-pvtz', properties = ['dipole'])
--------------------------------------------------------------------------

    Molecular point group: c1
  Charge       = 0
  Multiplicity = 1
  Basis Set: AUG-CC-PVTZ
    Blend: AUG-CC-PVTZ
  Basis Set: (AUG-CC-PVTZ AUX)
    Blend: AUG-CC-PVTZ-JKFIT

    Orbital Energies [Eh]
    ---------------------

    Doubly Occupied:

       1A   -490.038108     2A   -490.030521     3A    -65.177626
       4A    -65.170227     5A    -58.533004     6A    -58.531527
       7A    -58.531500     8A    -58.525555     9A    -58.524143
      10A    -58.524122    11A    -11.313294    12A    -11.311169
      13A    -11.265399    14A    -11.260067    15A    -11.256147
      16A    -11.253918    17A    -11.242905    18A     -9.850151
      19A     -9.842923    20A     -7.461902    21A     -7.454792
      22A     -7.454741    23A     -7.454565    24A     -7.447670
      25A     -7.447660    26A     -3.205800    27A     -3.202113
      28A     -3.201888    29A     -3.198354    30A     -3.194770
      31A     -3.194591    32A     -3.192771    33A     -3.192764
      34A     -3.185788    35A     -3.185779    36A     -1.207028
      37A     -1.099468    38A     -1.092719    39A     -1.006817
      40A     -0.975488    41A     -0.961021    42A     -0.833216
      43A     -0.807191    44A     -0.697119    45A     -0.682792
      46A     -0.609303    47A     -0.601711    48A     -0.587032
      49A     -0.563499    50A     -0.548268    51A     -0.544975
      52A     -0.518651    53A     -0.478950    54A     -0.467648
      55A     -0.431354    56A     -0.428859    57A     -0.420167
      58A     -0.355545    59A     -0.337198

  @DF-RHF Final Energy: -5413.55544556507539

   => Energetics <=

    Nuclear Repulsion Energy =            883.5373604820234732
    One-Electron Energy =               -9287.9570660011431755
    Two-Electron Energy =                2990.8642599540448828
    Total Energy =                      -5413.5554455650744785
  Basis Set: (AUG-CC-PVTZ AUX)
    Blend: AUG-CC-PVTZ-RI
    Molecular point group: c1

    Geometry (in Angstrom), charge = 0, multiplicity = 1:

       Center              X                  Y                   Z               Mass
    ------------   -----------------  -----------------  -----------------  -----------------
         BR           2.835638508385    -0.778209749739     0.001125825054    78.918337600000
         BR          -2.849753491615    -0.778209749739     0.001125825054    78.918337600000
         C           -0.007057491615     2.274266250261    -0.016361174946    12.000000000000
         C           -1.068993191615     1.559871050261    -0.009987874946    12.000000000000
         C            1.200664508385     1.565696250261    -0.010147174946    12.000000000000
         C           -0.007057491615     3.780620250261     0.013789825054    12.000000000000
         C            1.183356508385     0.171930250261    -0.000644174946    12.000000000000
         C           -1.197471491615     0.171931250261    -0.000644174946    12.000000000000
         C           -0.007057491615    -0.553689749739     0.005272825054    12.000000000000
         H           -2.164475491615     2.094524250261    -0.018323174946     1.007825032230
         H            2.150361508385     2.094523250261    -0.018322174946     1.007825032230
         H           -0.007047491615     4.149819250261     1.044758825054     1.007825032230
         H            0.878709508385     4.182228250261    -0.485469174946     1.007825032230
         H           -0.892833491615     4.182228250261    -0.485451174946     1.007825032230
         H           -0.007058491615    -1.638671749739     0.009408825054     1.007825032230

  Basis Set: AUG-CC-PVTZ
    Blend: AUG-CC-PVTZ
  Basis Set: (AUG-CC-PVTZ AUX)
    Blend: AUG-CC-PVTZ-JKFIT
	 Reference Energy          =   -5413.5554455650753880 [Eh]
	 Singles Energy            =      -0.0000000000000000 [Eh]
	 Same-Spin Energy          =      -0.4884198342942593 [Eh]
	 Opposite-Spin Energy      =      -1.3654965374522567 [Eh]
	 Correlation Energy        =      -1.8539163717465161 [Eh]
	 Total Energy              =   -5415.4093619368222789 [Eh]

	 ================> DF-SCS-MP2 Energies <==================
	-----------------------------------------------------------
	 SCS Same-Spin Scale       =       0.3333333333333333 [-]
	 SCS Opposite-Spin Scale   =       1.2000000000000000 [-]
	 SCS Same-Spin Energy      =      -0.1628066114314198 [Eh]
	 SCS Opposite-Spin Energy  =      -1.6385958449427080 [Eh]
	 SCS Correlation Energy    =      -1.8014024563741278 [Eh]
	 SCS Total Energy          =   -5415.3568480214498777 [Eh]
	-----------------------------------------------------------

  Dipole Moment: [D]
     X:    -0.1200      Y:     1.9902      Z:     0.0352     Total:     1.9941

*** Psi4 exiting successfully. Buy a developer a beer!
