                               Psi4 1.4a3.dev225

  ==> Input File <==

--------------------------------------------------------------------------
#psi4
#
memory 32 gb

molecule  {
0 1
 Br        2.8426960    -0.9006560     0.0010230
 Br       -2.8426960    -0.9006560     0.0010230
  C        0.0000000     2.1518200    -0.0164640
  C       -1.2077220     1.4432500    -0.0102500
  C        1.2077220     1.4432500    -0.0102500
  C        0.0000000     3.6581740     0.0136870
  C        1.1904140     0.0494840    -0.0007470
  C       -1.1904140     0.0494850    -0.0007470
  C        0.0000000    -0.6761360     0.0051700
  H       -2.0700524     1.9234294    -0.0176739
  H        2.1574190     1.9720770    -0.0184250
  H        0.0000100     4.0273730     1.0446560
  H        0.8857670     4.0597820    -0.4855720
  H       -0.8857760     4.0597820    -0.4855540
  H       -0.0000010    -1.7611180     0.0093060
units angstrom
no_reorient  #important for SAPT in psi4, default
symmetry c1  #important for SAPT in psi4, default
}

set PROPERTIES_ORIGIN ["COM"]
properties('MP2/aug-cc-pvtz', properties = ['dipole'])
--------------------------------------------------------------------------

    Molecular point group: c1
  Charge       = 0
  Multiplicity = 1
  Basis Set: AUG-CC-PVTZ
    Blend: AUG-CC-PVTZ
  Basis Set: (AUG-CC-PVTZ AUX)
    Blend: AUG-CC-PVTZ-JKFIT

    Orbital Energies [Eh]
    ---------------------

    Doubly Occupied:

       1A   -490.032077     2A   -490.031848     3A    -65.171786
       4A    -65.171555     5A    -58.527109     6A    -58.526880
       7A    -58.525705     8A    -58.525677     9A    -58.525474
      10A    -58.525444    11A    -11.314839    12A    -11.314387
      13A    -11.271901    14A    -11.264270    15A    -11.258296
      16A    -11.247366    17A    -11.243073    18A     -9.844484
      19A     -9.844253    20A     -7.456111    21A     -7.455887
      22A     -7.449254    23A     -7.449210    24A     -7.449020
      25A     -7.448969    26A     -3.199897    27A     -3.199678
      28A     -3.196335    29A     -3.196124    30A     -3.196114
      31A     -3.195892    32A     -3.187368    33A     -3.187359
      34A     -3.187123    35A     -3.187114    36A     -1.195356
      37A     -1.096235    38A     -1.088716    39A     -1.004283
      40A     -0.980553    41A     -0.960242    42A     -0.821544
      43A     -0.813374    44A     -0.720499    45A     -0.677314
      46A     -0.604005    47A     -0.599025    48A     -0.596663
      49A     -0.585777    50A     -0.560395    51A     -0.541770
      52A     -0.510855    53A     -0.492321    54A     -0.467208
      55A     -0.425967    56A     -0.423125    57A     -0.419838
      58A     -0.345419    59A     -0.339589

  @DF-RHF Final Energy: -5413.57731759608487

   => Energetics <=

    Nuclear Repulsion Energy =            882.2278847828972630
    One-Electron Energy =               -9285.4544947614685952
    Two-Electron Energy =                2989.6492923824866921
    Total Energy =                      -5413.5773175960857770
  Basis Set: (AUG-CC-PVTZ AUX)
    Blend: AUG-CC-PVTZ-RI
    Molecular point group: c1

    Geometry (in Angstrom), charge = 0, multiplicity = 1:

       Center              X                  Y                   Z               Mass
    ------------   -----------------  -----------------  -----------------  -----------------
         BR           2.842340792001    -0.778293955072     0.001130478910    78.918337600000
         BR          -2.843051207999    -0.778293955072     0.001130478910    78.918337600000
         C           -0.000355207999     2.274182044928    -0.016356521090    12.000000000000
         C           -1.208077207999     1.565612044928    -0.010142521090    12.000000000000
         C            1.207366792001     1.565612044928    -0.010142521090    12.000000000000
         C           -0.000355207999     3.780536044928     0.013794478910    12.000000000000
         C            1.190058792001     0.171846044928    -0.000639521090    12.000000000000
         C           -1.190769207999     0.171847044928    -0.000639521090    12.000000000000
         C           -0.000355207999    -0.553773955072     0.005277478910    12.000000000000
         H           -2.070407607999     2.045791444928    -0.017566421090     1.007825032230
         H            2.157063792001     2.094439044928    -0.018317521090     1.007825032230
         H           -0.000345207999     4.149735044928     1.044763478910     1.007825032230
         H            0.885411792001     4.182144044928    -0.485464521090     1.007825032230
         H           -0.886131207999     4.182144044928    -0.485446521090     1.007825032230
         H           -0.000356207999    -1.638755955072     0.009413478910     1.007825032230

  Basis Set: AUG-CC-PVTZ
    Blend: AUG-CC-PVTZ
  Basis Set: (AUG-CC-PVTZ AUX)
    Blend: AUG-CC-PVTZ-JKFIT
	 Reference Energy          =   -5413.5773175960848675 [Eh]
	 Singles Energy            =      -0.0000000000000000 [Eh]
	 Same-Spin Energy          =      -0.4877878756595994 [Eh]
	 Opposite-Spin Energy      =      -1.3637556638895654 [Eh]
	 Correlation Energy        =      -1.8515435395491648 [Eh]
	 Total Energy              =   -5415.4288611356341789 [Eh]

	 ================> DF-SCS-MP2 Energies <==================
	-----------------------------------------------------------
	 SCS Same-Spin Scale       =       0.3333333333333333 [-]
	 SCS Opposite-Spin Scale   =       1.2000000000000000 [-]
	 SCS Same-Spin Energy      =      -0.1625959585531998 [Eh]
	 SCS Opposite-Spin Energy  =      -1.6365067966674784 [Eh]
	 SCS Correlation Energy    =      -1.7991027552206782 [Eh]
	 SCS Total Energy          =   -5415.3764203513055691 [Eh]
	-----------------------------------------------------------

  Dipole Moment: [D]
     X:    -0.0010      Y:     2.1818      Z:     0.0363     Total:     2.1821

*** Psi4 exiting successfully. Buy a developer a beer!
