                               Psi4 1.4a3.dev225

  ==> Input File <==

--------------------------------------------------------------------------
#psi4
#
memory 32 gb

molecule  {
0 1
 Br        2.8426960    -0.9006560     0.0010230
 Br       -2.8426960    -0.9006560     0.0010230
  C        0.0000000     2.1518200    -0.0164640
  C       -1.2077220     1.4432500    -0.0102500
  C        1.2077220     1.4432500    -0.0102500
  C        0.0000000     3.6581740     0.0136870
  C        1.1904140     0.0494840    -0.0007470
  C       -1.1037252     0.0993352    -0.0008399
  C        0.0000000    -0.6761360     0.0051700
  H       -2.1574180     1.9720780    -0.0184260
  H        2.1574190     1.9720770    -0.0184250
  H        0.0000100     4.0273730     1.0446560
  H        0.8857670     4.0597820    -0.4855720
  H       -0.8857760     4.0597820    -0.4855540
  H       -0.0000010    -1.7611180     0.0093060
units angstrom
no_reorient  #important for SAPT in psi4, default
symmetry c1  #important for SAPT in psi4, default
}

set PROPERTIES_ORIGIN ["COM"]
properties('MP2/aug-cc-pvtz', properties = ['dipole'])
--------------------------------------------------------------------------

    Molecular point group: c1
  Charge       = 0
  Multiplicity = 1
  Basis Set: AUG-CC-PVTZ
    Blend: AUG-CC-PVTZ
  Basis Set: (AUG-CC-PVTZ AUX)
    Blend: AUG-CC-PVTZ-JKFIT

    Orbital Energies [Eh]
    ---------------------

    Doubly Occupied:

       1A   -490.034241     2A   -490.020618     3A    -65.173962
       4A    -65.160092     5A    -58.529283     6A    -58.527881
       7A    -58.527846     8A    -58.515426     9A    -58.514021
      10A    -58.514001    11A    -11.319140    12A    -11.315082
      13A    -11.276546    14A    -11.264305    15A    -11.260760
      16A    -11.257947    17A    -11.245240    18A     -9.846670
      19A     -9.832314    20A     -7.458295    21A     -7.451450
      22A     -7.451376    23A     -7.443658    24A     -7.437116
      25A     -7.437109    26A     -3.202080    27A     -3.198532
      28A     -3.198288    29A     -3.189549    30A     -3.189539
      31A     -3.187276    32A     -3.184002    33A     -3.183880
      34A     -3.175373    35A     -3.175364    36A     -1.208062
      37A     -1.097317    38A     -1.087139    39A     -1.002129
      40A     -0.978368    41A     -0.966345    42A     -0.820436
      43A     -0.816895    44A     -0.717471    45A     -0.686910
      46A     -0.611911    47A     -0.601789    48A     -0.595929
      49A     -0.582895    50A     -0.561264    51A     -0.549662
      52A     -0.512487    53A     -0.471668    54A     -0.464010
      55A     -0.425255    56A     -0.420004    57A     -0.413946
      58A     -0.352970    59A     -0.346892

  @DF-RHF Final Energy: -5413.57578256256875

   => Energetics <=

    Nuclear Repulsion Energy =            881.1089475711363548
    One-Electron Energy =               -9283.3894324688535562
    Two-Electron Energy =                2988.7047023351483404
    Total Energy =                      -5413.5757825625696569
  Basis Set: (AUG-CC-PVTZ AUX)
    Blend: AUG-CC-PVTZ-RI
    Molecular point group: c1

    Geometry (in Angstrom), charge = 0, multiplicity = 1:

       Center              X                  Y                   Z               Mass
    ------------   -----------------  -----------------  -----------------  -----------------
         BR           2.838499407320    -0.780904985453     0.001138034009    78.918337600000
         BR          -2.846892592680    -0.780904985453     0.001138034009    78.918337600000
         C           -0.004196592680     2.271571014547    -0.016348965991    12.000000000000
         C           -1.211918592680     1.563001014547    -0.010134965991    12.000000000000
         C            1.203525407320     1.563001014547    -0.010134965991    12.000000000000
         C           -0.004196592680     3.777925014547     0.013802034009    12.000000000000
         C            1.186217407320     0.169235014547    -0.000631965991    12.000000000000
         C           -1.107921792680     0.219086214547    -0.000724865991    12.000000000000
         C           -0.004196592680    -0.556384985453     0.005285034009    12.000000000000
         H           -2.161614592680     2.091829014547    -0.018310965991     1.007825032230
         H            2.153222407320     2.091828014547    -0.018309965991     1.007825032230
         H           -0.004186592680     4.147124014547     1.044771034009     1.007825032230
         H            0.881570407320     4.179533014547    -0.485456965991     1.007825032230
         H           -0.889972592680     4.179533014547    -0.485438965991     1.007825032230
         H           -0.004197592680    -1.641366985453     0.009421034009     1.007825032230

  Basis Set: AUG-CC-PVTZ
    Blend: AUG-CC-PVTZ
  Basis Set: (AUG-CC-PVTZ AUX)
    Blend: AUG-CC-PVTZ-JKFIT
	 Reference Energy          =   -5413.5757825625687474 [Eh]
	 Singles Energy            =      -0.0000000000000000 [Eh]
	 Same-Spin Energy          =      -0.4875478733692599 [Eh]
	 Opposite-Spin Energy      =      -1.3631610976963273 [Eh]
	 Correlation Energy        =      -1.8507089710655873 [Eh]
	 Total Energy              =   -5415.4264915336343620 [Eh]

	 ================> DF-SCS-MP2 Energies <==================
	-----------------------------------------------------------
	 SCS Same-Spin Scale       =       0.3333333333333333 [-]
	 SCS Opposite-Spin Scale   =       1.2000000000000000 [-]
	 SCS Same-Spin Energy      =      -0.1625159577897533 [Eh]
	 SCS Opposite-Spin Energy  =      -1.6357933172355927 [Eh]
	 SCS Correlation Energy    =      -1.7983092750253460 [Eh]
	 SCS Total Energy          =   -5415.3740918375942783 [Eh]
	-----------------------------------------------------------

  Dipole Moment: [D]
     X:     0.4769      Y:     2.4581      Z:     0.0370     Total:     2.5042

*** Psi4 exiting successfully. Buy a developer a beer!
