                               Psi4 1.4a3.dev225

  ==> Input File <==

--------------------------------------------------------------------------
#psi4
#
memory 32 gb

molecule  {
0 1
 Br        2.8426960    -0.9006560     0.0010230
 Br       -2.8426960    -0.9006560     0.0010230
  C        0.0000000     2.1518200    -0.0164640
  C       -1.2077220     1.4432500    -0.0102500
  C        1.2077220     1.4432500    -0.0102500
  C        0.0000000     3.6581740     0.0136870
  C        1.1904140     0.0494840    -0.0007470
  C       -1.1904140     0.0494850    -0.0007470
  C        0.0853865    -0.7281837     0.0055944
  H       -2.1574180     1.9720780    -0.0184260
  H        2.1574190     1.9720770    -0.0184250
  H        0.0000100     4.0273730     1.0446560
  H        0.8857670     4.0597820    -0.4855720
  H       -0.8857760     4.0597820    -0.4855540
  H       -0.0000010    -1.7611180     0.0093060
units angstrom
no_reorient  #important for SAPT in psi4, default
symmetry c1  #important for SAPT in psi4, default
}

set PROPERTIES_ORIGIN ["COM"]
properties('MP2/aug-cc-pvtz', properties = ['dipole'])
--------------------------------------------------------------------------

    Molecular point group: c1
  Charge       = 0
  Multiplicity = 1
  Basis Set: AUG-CC-PVTZ
    Blend: AUG-CC-PVTZ
  Basis Set: (AUG-CC-PVTZ AUX)
    Blend: AUG-CC-PVTZ-JKFIT

    Orbital Energies [Eh]
    ---------------------

    Doubly Occupied:

       1A   -490.033822     2A   -490.027407     3A    -65.173481
       4A    -65.167260     5A    -58.528808     6A    -58.527406
       7A    -58.527371     8A    -58.522553     9A    -58.521178
      10A    -58.521152    11A    -11.324857    12A    -11.312261
      13A    -11.274656    14A    -11.267197    15A    -11.260081
      16A    -11.258276    17A    -11.243854    18A     -9.846147
      19A     -9.840089    20A     -7.457758    21A     -7.451674
      22A     -7.450922    23A     -7.450851    24A     -7.444902
      25A     -7.444874    26A     -3.201562    27A     -3.198014
      28A     -3.197772    29A     -3.195396    30A     -3.191882
      31A     -3.191688    32A     -3.189026    33A     -3.189017
      34A     -3.183076    35A     -3.183065    36A     -1.192041
      37A     -1.097926    38A     -1.085602    39A     -1.001280
      40A     -0.976559    41A     -0.961801    42A     -0.817892
      43A     -0.809060    44A     -0.716342    45A     -0.675971
      46A     -0.612971    47A     -0.598413    48A     -0.588866
      49A     -0.583484    50A     -0.559653    51A     -0.539714
      52A     -0.516434    53A     -0.482998    54A     -0.467173
      55A     -0.425692    56A     -0.422542    57A     -0.416723
      58A     -0.349445    59A     -0.334520

  @DF-RHF Final Energy: -5413.57127448202482

   => Energetics <=

    Nuclear Repulsion Energy =            880.9233406992317441
    One-Electron Energy =               -9282.9243608921442501
    Two-Electron Energy =                2988.4297457108878007
    Total Energy =                      -5413.5712744820248190
  Basis Set: (AUG-CC-PVTZ AUX)
    Blend: AUG-CC-PVTZ-RI
    Molecular point group: c1

    Geometry (in Angstrom), charge = 0, multiplicity = 1:

       Center              X                  Y                   Z               Mass
    ------------   -----------------  -----------------  -----------------  -----------------
         BR           2.838562451420    -0.775972127148     0.001112991613    78.918337600000
         BR          -2.846829548580    -0.775972127148     0.001112991613    78.918337600000
         C           -0.004133548580     2.276503872852    -0.016374008387    12.000000000000
         C           -1.211855548580     1.567933872852    -0.010160008387    12.000000000000
         C            1.203588451420     1.567933872852    -0.010160008387    12.000000000000
         C           -0.004133548580     3.782857872852     0.013776991613    12.000000000000
         C            1.186280451420     0.174167872852    -0.000657008387    12.000000000000
         C           -1.194547548580     0.174168872852    -0.000657008387    12.000000000000
         C            0.081252951420    -0.603499827148     0.005684391613    12.000000000000
         H           -2.161551548580     2.096761872852    -0.018336008387     1.007825032230
         H            2.153285451420     2.096760872852    -0.018335008387     1.007825032230
         H           -0.004123548580     4.152056872852     1.044745991613     1.007825032230
         H            0.881633451420     4.184465872852    -0.485482008387     1.007825032230
         H           -0.889909548580     4.184465872852    -0.485464008387     1.007825032230
         H           -0.004134548580    -1.636434127148     0.009395991613     1.007825032230

  Basis Set: AUG-CC-PVTZ
    Blend: AUG-CC-PVTZ
  Basis Set: (AUG-CC-PVTZ AUX)
    Blend: AUG-CC-PVTZ-JKFIT
	 Reference Energy          =   -5413.5712744820248190 [Eh]
	 Singles Energy            =      -0.0000000000000000 [Eh]
	 Same-Spin Energy          =      -0.4879556774418078 [Eh]
	 Opposite-Spin Energy      =      -1.3649622056804804 [Eh]
	 Correlation Energy        =      -1.8529178831222883 [Eh]
	 Total Energy              =   -5415.4241923651470643 [Eh]

	 ================> DF-SCS-MP2 Energies <==================
	-----------------------------------------------------------
	 SCS Same-Spin Scale       =       0.3333333333333333 [-]
	 SCS Opposite-Spin Scale   =       1.2000000000000000 [-]
	 SCS Same-Spin Energy      =      -0.1626518924806026 [Eh]
	 SCS Opposite-Spin Energy  =      -1.6379546468165764 [Eh]
	 SCS Correlation Energy    =      -1.8006065392971791 [Eh]
	 SCS Total Energy          =   -5415.3718810213222241 [Eh]
	-----------------------------------------------------------

  Dipole Moment: [D]
     X:    -0.2038      Y:     2.2304      Z:     0.0367     Total:     2.2400

*** Psi4 exiting successfully. Buy a developer a beer!
