                               Psi4 1.4a3.dev225

  ==> Input File <==

--------------------------------------------------------------------------
#psi4
#
memory 32 gb

molecule  {
0 1
 Br        2.7343285    -1.0681586     0.0020791
 Br       -2.8426960    -0.9006560     0.0010230
  C        0.0000000     2.1518200    -0.0164640
  C       -1.2077220     1.4432500    -0.0102500
  C        1.2077220     1.4432500    -0.0102500
  C        0.0000000     3.6581740     0.0136870
  C        1.1904140     0.0494840    -0.0007470
  C       -1.1904140     0.0494850    -0.0007470
  C        0.0000000    -0.6761360     0.0051700
  H       -2.1574180     1.9720780    -0.0184260
  H        2.1574190     1.9720770    -0.0184250
  H        0.0000100     4.0273730     1.0446560
  H        0.8857670     4.0597820    -0.4855720
  H       -0.8857760     4.0597820    -0.4855540
  H       -0.0000010    -1.7611180     0.0093060
units angstrom
no_reorient  #important for SAPT in psi4, default
symmetry c1  #important for SAPT in psi4, default
}

set PROPERTIES_ORIGIN ["COM"]
properties('MP2/aug-cc-pvtz', properties = ['dipole'])
--------------------------------------------------------------------------

    Molecular point group: c1
  Charge       = 0
  Multiplicity = 1
  Basis Set: AUG-CC-PVTZ
    Blend: AUG-CC-PVTZ
  Basis Set: (AUG-CC-PVTZ AUX)
    Blend: AUG-CC-PVTZ-JKFIT

    Orbital Energies [Eh]
    ---------------------

    Doubly Occupied:

       1A   -490.031879     2A   -490.031368     3A    -65.171603
       4A    -65.171083     5A    -58.526931     6A    -58.526404
       7A    -58.525515     8A    -58.525482     9A    -58.525003
      10A    -58.524973    11A    -11.314965    12A    -11.314013
      13A    -11.273442    14A    -11.262710    15A    -11.260965
      16A    -11.258795    17A    -11.243422    18A     -9.844323
      19A     -9.843787    20A     -7.455977    21A     -7.455411
      22A     -7.449072    23A     -7.449018    24A     -7.448563
      25A     -7.448509    26A     -3.199776    27A     -3.199195
      28A     -3.196202    29A     -3.195972    30A     -3.195641
      31A     -3.195418    32A     -3.187150    33A     -3.187140
      34A     -3.186674    35A     -3.186665    36A     -1.195176
      37A     -1.094504    38A     -1.089752    39A     -1.002617
      40A     -0.978715    41A     -0.958665    42A     -0.815842
      43A     -0.813902    44A     -0.709066    45A     -0.677795
      46A     -0.604824    47A     -0.598285    48A     -0.587078
      49A     -0.583611    50A     -0.560041    51A     -0.542050
      52A     -0.511975    53A     -0.490316    54A     -0.466708
      55A     -0.425809    56A     -0.423745    57A     -0.418691
      58A     -0.344566    59A     -0.340495

  @DF-RHF Final Energy: -5413.58065424608048

   => Energetics <=

    Nuclear Repulsion Energy =            883.6168033423223278
    One-Electron Energy =               -9288.3003713635953318
    Two-Electron Energy =                2991.1029137751934286
    Total Energy =                      -5413.5806542460795754
  Basis Set: (AUG-CC-PVTZ AUX)
    Blend: AUG-CC-PVTZ-RI
    Molecular point group: c1

    Geometry (in Angstrom), charge = 0, multiplicity = 1:

       Center              X                  Y                   Z               Mass
    ------------   -----------------  -----------------  -----------------  -----------------
         BR           2.768829294187    -0.892666795339     0.001853407766    78.918337600000
         BR          -2.808195205813    -0.725164195339     0.000797307766    78.918337600000
         C            0.034500794187     2.327311804661    -0.016689692234    12.000000000000
         C           -1.173221205813     1.618741804661    -0.010475692234    12.000000000000
         C            1.242222794187     1.618741804661    -0.010475692234    12.000000000000
         C            0.034500794187     3.833665804661     0.013461307766    12.000000000000
         C            1.224914794187     0.224975804661    -0.000972692234    12.000000000000
         C           -1.155913205813     0.224976804661    -0.000972692234    12.000000000000
         C            0.034500794187    -0.500644195339     0.004944307766    12.000000000000
         H           -2.122917205813     2.147569804661    -0.018651692234     1.007825032230
         H            2.191919794187     2.147568804661    -0.018650692234     1.007825032230
         H            0.034510794187     4.202864804661     1.044430307766     1.007825032230
         H            0.920267794187     4.235273804661    -0.485797692234     1.007825032230
         H           -0.851275205813     4.235273804661    -0.485779692234     1.007825032230
         H            0.034499794187    -1.585626195339     0.009080307766     1.007825032230

  Basis Set: AUG-CC-PVTZ
    Blend: AUG-CC-PVTZ
  Basis Set: (AUG-CC-PVTZ AUX)
    Blend: AUG-CC-PVTZ-JKFIT
	 Reference Energy          =   -5413.5806542460804849 [Eh]
	 Singles Energy            =      -0.0000000000000000 [Eh]
	 Same-Spin Energy          =      -0.4881986196869757 [Eh]
	 Opposite-Spin Energy      =      -1.3645397293650667 [Eh]
	 Correlation Energy        =      -1.8527383490520424 [Eh]
	 Total Energy              =   -5415.4333925951323181 [Eh]

	 ================> DF-SCS-MP2 Energies <==================
	-----------------------------------------------------------
	 SCS Same-Spin Scale       =       0.3333333333333333 [-]
	 SCS Opposite-Spin Scale   =       1.2000000000000000 [-]
	 SCS Same-Spin Energy      =      -0.1627328732289919 [Eh]
	 SCS Opposite-Spin Energy  =      -1.6374476752380800 [Eh]
	 SCS Correlation Energy    =      -1.8001805484670719 [Eh]
	 SCS Total Energy          =   -5415.3808347945478090 [Eh]
	-----------------------------------------------------------

  Dipole Moment: [D]
     X:     0.0378      Y:     2.2358      Z:     0.0361     Total:     2.2364

*** Psi4 exiting successfully. Buy a developer a beer!
