                               Psi4 1.4a3.dev225

  ==> Input File <==

--------------------------------------------------------------------------
#psi4
#
memory 32 gb

molecule  {
0 1
 Br        2.8426960    -0.9006560     0.0010230
 Br       -2.8426960    -0.9006560     0.0010230
  C        0.0000000     2.1518200    -0.0164640
  C       -1.2077220     1.4432500    -0.0102500
  C        1.2077220     1.4432500    -0.0102500
  C        0.0000000     3.6581740     0.0136870
  C        1.1904140     0.0494840    -0.0007470
  C       -1.1904140     0.0494850    -0.0007470
  C        0.0000000    -0.6761360     0.0051700
  H       -2.1574180     1.9720780    -0.0184260
  H        2.1574190     1.9720770    -0.0184250
  H        0.0000100     4.0273730     1.0446560
  H        0.8857670     4.0597820    -0.4855720
  H       -0.8857760     4.0597820    -0.4855540
  H       -0.0000010    -1.7611180     0.0093060
units angstrom
no_reorient  #important for SAPT in psi4, default
symmetry c1  #important for SAPT in psi4, default
}

set PROPERTIES_ORIGIN ["COM"]
properties('MP2/aug-cc-pvtz', properties = ['dipole'])
--------------------------------------------------------------------------

    Molecular point group: c1
  Charge       = 0
  Multiplicity = 1
  Basis Set: AUG-CC-PVTZ
    Blend: AUG-CC-PVTZ
  Basis Set: (AUG-CC-PVTZ AUX)
    Blend: AUG-CC-PVTZ-JKFIT

    Orbital Energies [Eh]
    ---------------------

    Doubly Occupied:

       1A   -490.031967     2A   -490.031966     3A    -65.171674
       4A    -65.171674     5A    -58.526999     6A    -58.526999
       7A    -58.525592     8A    -58.525592     9A    -58.525562
      10A    -58.525562    11A    -11.314956    12A    -11.314946
      13A    -11.272488    14A    -11.264766    15A    -11.258857
      16A    -11.258796    17A    -11.242918    18A     -9.844373
      19A     -9.844372    20A     -7.456008    21A     -7.456008
      22A     -7.449138    23A     -7.449137    24A     -7.449088
      25A     -7.449088    26A     -3.199799    27A     -3.199798
      28A     -3.196233    29A     -3.196233    30A     -3.196013
      31A     -3.196013    32A     -3.187240    33A     -3.187240
      34A     -3.187231    35A     -3.187231    36A     -1.195012
      37A     -1.095144    38A     -1.088428    39A     -1.004330
      40A     -0.976790    41A     -0.959300    42A     -0.816359
      43A     -0.813344    44A     -0.708995    45A     -0.677554
      46A     -0.604177    47A     -0.597964    48A     -0.588429
      49A     -0.583026    50A     -0.560047    51A     -0.541992
      52A     -0.510645    53A     -0.491323    54A     -0.467275
      55A     -0.425988    56A     -0.423224    57A     -0.419847
      58A     -0.345697    59A     -0.339748

  @DF-RHF Final Energy: -5413.58300629099267

   => Energetics <=

    Nuclear Repulsion Energy =            881.6059762806353319
    One-Electron Energy =               -9284.2655668432853417
    Two-Electron Energy =                2989.0765842716564293
    Total Energy =                      -5413.5830062909926710
  Basis Set: (AUG-CC-PVTZ AUX)
    Blend: AUG-CC-PVTZ-RI
    Molecular point group: c1

    Geometry (in Angstrom), charge = 0, multiplicity = 1:

       Center              X                  Y                   Z               Mass
    ------------   -----------------  -----------------  -----------------  -----------------
         BR           2.842695995934    -0.778491746583     0.001133536737    78.918337600000
         BR          -2.842696004066    -0.778491746583     0.001133536737    78.918337600000
         C           -0.000000004066     2.273984253417    -0.016353463263    12.000000000000
         C           -1.207722004066     1.565414253417    -0.010139463263    12.000000000000
         C            1.207721995934     1.565414253417    -0.010139463263    12.000000000000
         C           -0.000000004066     3.780338253417     0.013797536737    12.000000000000
         C            1.190413995934     0.171648253417    -0.000636463263    12.000000000000
         C           -1.190414004066     0.171649253417    -0.000636463263    12.000000000000
         C           -0.000000004066    -0.553971746583     0.005280536737    12.000000000000
         H           -2.157418004066     2.094242253417    -0.018315463263     1.007825032230
         H            2.157418995934     2.094241253417    -0.018314463263     1.007825032230
         H            0.000009995934     4.149537253417     1.044766536737     1.007825032230
         H            0.885766995934     4.181946253417    -0.485461463263     1.007825032230
         H           -0.885776004066     4.181946253417    -0.485443463263     1.007825032230
         H           -0.000001004066    -1.638953746583     0.009416536737     1.007825032230

  Basis Set: AUG-CC-PVTZ
    Blend: AUG-CC-PVTZ
  Basis Set: (AUG-CC-PVTZ AUX)
    Blend: AUG-CC-PVTZ-JKFIT
	 Reference Energy          =   -5413.5830062909926710 [Eh]
	 Singles Energy            =      -0.0000000000000000 [Eh]
	 Same-Spin Energy          =      -0.4880358584046001 [Eh]
	 Opposite-Spin Energy      =      -1.3642865405137530 [Eh]
	 Correlation Energy        =      -1.8523223989183530 [Eh]
	 Total Energy              =   -5415.4353286899113300 [Eh]

	 ================> DF-SCS-MP2 Energies <==================
	-----------------------------------------------------------
	 SCS Same-Spin Scale       =       0.3333333333333333 [-]
	 SCS Opposite-Spin Scale   =       1.2000000000000000 [-]
	 SCS Same-Spin Energy      =      -0.1626786194682000 [Eh]
	 SCS Opposite-Spin Energy  =      -1.6371438486165035 [Eh]
	 SCS Correlation Energy    =      -1.7998224680847035 [Eh]
	 SCS Total Energy          =   -5415.3828287590777109 [Eh]
	-----------------------------------------------------------

  Dipole Moment: [D]
     X:     0.0000      Y:     2.1791      Z:     0.0365     Total:     2.1795

*** Psi4 exiting successfully. Buy a developer a beer!
