                               Psi4 1.4a3.dev225

  ==> Input File <==

--------------------------------------------------------------------------
#psi4
#
memory 32 gb

molecule  {
0 1
 Br        2.8426960    -0.9006560     0.0010230
 Br       -2.8426960    -0.9006560     0.0010230
  C        0.0000000     2.1518200    -0.0164640
  C       -1.2077220     1.4432500    -0.0102500
  C        1.2077220     1.4432500    -0.0102500
  C        0.0000000     3.6581740     0.0136870
  C        1.1904140     0.0494840    -0.0007470
  C       -1.1904140     0.0494850    -0.0007470
  C       -0.0170773    -0.6657265     0.0050851
  H       -2.1574180     1.9720780    -0.0184260
  H        2.1574190     1.9720770    -0.0184250
  H        0.0000100     4.0273730     1.0446560
  H        0.8857670     4.0597820    -0.4855720
  H       -0.8857760     4.0597820    -0.4855540
  H       -0.0000010    -1.7611180     0.0093060
units angstrom
no_reorient  #important for SAPT in psi4, default
symmetry c1  #important for SAPT in psi4, default
}

set PROPERTIES_ORIGIN ["COM"]
properties('MP2/aug-cc-pvtz', properties = ['dipole'])
--------------------------------------------------------------------------

    Molecular point group: c1
  Charge       = 0
  Multiplicity = 1
  Basis Set: AUG-CC-PVTZ
    Blend: AUG-CC-PVTZ
  Basis Set: (AUG-CC-PVTZ AUX)
    Blend: AUG-CC-PVTZ-JKFIT

    Orbital Energies [Eh]
    ---------------------

    Doubly Occupied:

       1A   -490.032875     2A   -490.031546     3A    -65.172555
       4A    -65.171264     5A    -58.527886     6A    -58.526589
       7A    -58.526472     8A    -58.526442     9A    -58.525181
      10A    -58.525152    11A    -11.315585    12A    -11.312575
      13A    -11.272107    14A    -11.264222    15A    -11.258955
      16A    -11.258540    17A    -11.242751    18A     -9.845229
      19A     -9.843971    20A     -7.456874    21A     -7.455610
      22A     -7.449982    23A     -7.449930    24A     -7.448733
      25A     -7.448687    26A     -3.200679    27A     -3.199398
      28A     -3.197101    29A     -3.196878    30A     -3.195829
      31A     -3.195613    32A     -3.188071    33A     -3.188063
      34A     -3.186836    35A     -3.186827    36A     -1.195924
      37A     -1.095663    38A     -1.088266    39A     -1.004907
      40A     -0.976857    41A     -0.958951    42A     -0.817851
      43A     -0.812513    44A     -0.707648    45A     -0.678175
      46A     -0.602594    47A     -0.597859    48A     -0.587866
      49A     -0.582889    50A     -0.560041    51A     -0.542698
      52A     -0.509613    53A     -0.492050    54A     -0.467436
      55A     -0.426110    56A     -0.423342    57A     -0.420173
      58A     -0.346598    59A     -0.339451

  @DF-RHF Final Energy: -5413.58264304339264

   => Energetics <=

    Nuclear Repulsion Energy =            881.7680816751500288
    One-Electron Energy =               -9284.5804842710058438
    Two-Electron Energy =                2989.2297595524619283
    Total Energy =                      -5413.5826430433935457
  Basis Set: (AUG-CC-PVTZ AUX)
    Blend: AUG-CC-PVTZ-RI
    Molecular point group: c1

    Geometry (in Angstrom), charge = 0, multiplicity = 1:

       Center              X                  Y                   Z               Mass
    ------------   -----------------  -----------------  -----------------  -----------------
         BR           2.843522704837    -0.778995668533     0.001137646730    78.918337600000
         BR          -2.841869295163    -0.778995668533     0.001137646730    78.918337600000
         C            0.000826704837     2.273480331467    -0.016349353270    12.000000000000
         C           -1.206895295163     1.564910331467    -0.010135353270    12.000000000000
         C            1.208548704837     1.564910331467    -0.010135353270    12.000000000000
         C            0.000826704837     3.779834331467     0.013801646730    12.000000000000
         C            1.191240704837     0.171144331467    -0.000632353270    12.000000000000
         C           -1.189587295163     0.171145331467    -0.000632353270    12.000000000000
         C           -0.016250595163    -0.544066168533     0.005199746730    12.000000000000
         H           -2.156591295163     2.093738331467    -0.018311353270     1.007825032230
         H            2.158245704837     2.093737331467    -0.018310353270     1.007825032230
         H            0.000836704837     4.149033331467     1.044770646730     1.007825032230
         H            0.886593704837     4.181442331467    -0.485457353270     1.007825032230
         H           -0.884949295163     4.181442331467    -0.485439353270     1.007825032230
         H            0.000825704837    -1.639457668533     0.009420646730     1.007825032230

  Basis Set: AUG-CC-PVTZ
    Blend: AUG-CC-PVTZ
  Basis Set: (AUG-CC-PVTZ AUX)
    Blend: AUG-CC-PVTZ-JKFIT
	 Reference Energy          =   -5413.5826430433926362 [Eh]
	 Singles Energy            =      -0.0000000000000000 [Eh]
	 Same-Spin Energy          =      -0.4880298451578327 [Eh]
	 Opposite-Spin Energy      =      -1.3642673242046521 [Eh]
	 Correlation Energy        =      -1.8522971693624848 [Eh]
	 Total Energy              =   -5415.4349402127554640 [Eh]

	 ================> DF-SCS-MP2 Energies <==================
	-----------------------------------------------------------
	 SCS Same-Spin Scale       =       0.3333333333333333 [-]
	 SCS Opposite-Spin Scale   =       1.2000000000000000 [-]
	 SCS Same-Spin Energy      =      -0.1626766150526109 [Eh]
	 SCS Opposite-Spin Energy  =      -1.6371207890455826 [Eh]
	 SCS Correlation Energy    =      -1.7997974040981934 [Eh]
	 SCS Total Energy          =   -5415.3824404474908079 [Eh]
	-----------------------------------------------------------

  Dipole Moment: [D]
     X:     0.0435      Y:     2.1700      Z:     0.0365     Total:     2.1707

*** Psi4 exiting successfully. Buy a developer a beer!
