                               Psi4 1.4a3.dev225

  ==> Input File <==

--------------------------------------------------------------------------
#psi4
#
memory 32 gb

molecule  {
0 1
 Br        2.8426960    -0.9006560     0.0010230
 Br       -2.8426960    -0.9006560     0.0010230
  C       -0.0912052     2.1544443     0.0358237
  C       -1.2077220     1.4432500    -0.0102500
  C        1.2077220     1.4432500    -0.0102500
  C        0.0000000     3.6581740     0.0136870
  C        1.1904140     0.0494840    -0.0007470
  C       -1.1904140     0.0494850    -0.0007470
  C        0.0000000    -0.6761360     0.0051700
  H       -2.1574180     1.9720780    -0.0184260
  H        2.1574190     1.9720770    -0.0184250
  H        0.0000100     4.0273730     1.0446560
  H        0.8857670     4.0597820    -0.4855720
  H       -0.8857760     4.0597820    -0.4855540
  H       -0.0000010    -1.7611180     0.0093060
units angstrom
no_reorient  #important for SAPT in psi4, default
symmetry c1  #important for SAPT in psi4, default
}

set PROPERTIES_ORIGIN ["COM"]
properties('MP2/aug-cc-pvtz', properties = ['dipole'])
--------------------------------------------------------------------------

    Molecular point group: c1
  Charge       = 0
  Multiplicity = 1
  Basis Set: AUG-CC-PVTZ
    Blend: AUG-CC-PVTZ
  Basis Set: (AUG-CC-PVTZ AUX)
    Blend: AUG-CC-PVTZ-JKFIT

    Orbital Energies [Eh]
    ---------------------

    Doubly Occupied:

       1A   -490.032625     2A   -490.031045     3A    -65.172312
       4A    -65.170771     5A    -58.527641     6A    -58.526232
       7A    -58.526198     8A    -58.526091     9A    -58.524688
      10A    -58.524663    11A    -11.315729    12A    -11.313679
      13A    -11.271837    14A    -11.265947    15A    -11.264935
      16A    -11.250214    17A    -11.243407    18A     -9.844995
      19A     -9.843487    20A     -7.456636    21A     -7.455112
      22A     -7.449761    23A     -7.449691    24A     -7.448255
      25A     -7.448219    26A     -3.200438    27A     -3.198891
      28A     -3.196878    29A     -3.196630    30A     -3.195324
      31A     -3.195129    32A     -3.187845    33A     -3.187836
      34A     -3.186377    35A     -3.186367    36A     -1.195588
      37A     -1.097911    38A     -1.087016    39A     -1.004265
      40A     -0.978210    41A     -0.957822    42A     -0.825393
      43A     -0.804075    44A     -0.709016    45A     -0.676295
      46A     -0.609756    47A     -0.598435    48A     -0.587986
      49A     -0.579796    50A     -0.560602    51A     -0.542099
      52A     -0.512252    53A     -0.484346    54A     -0.467237
      55A     -0.425795    56A     -0.423812    57A     -0.419559
      58A     -0.353097    59A     -0.333301

  @DF-RHF Final Energy: -5413.57222735003052

   => Energetics <=

    Nuclear Repulsion Energy =            881.5922919004952973
    One-Electron Energy =               -9284.2299421693314798
    Two-Electron Energy =                2989.0654229188066893
    Total Energy =                      -5413.5722273500296069
  Basis Set: (AUG-CC-PVTZ AUX)
    Blend: AUG-CC-PVTZ-RI
    Molecular point group: c1

    Geometry (in Angstrom), charge = 0, multiplicity = 1:

       Center              X                  Y                   Z               Mass
    ------------   -----------------  -----------------  -----------------  -----------------
         BR           2.847111222629    -0.778618788456    -0.001397701052    78.918337600000
         BR          -2.838280777371    -0.778618788456    -0.001397701052    78.918337600000
         C           -0.086789977371     2.276481511544     0.033402998948    12.000000000000
         C           -1.203306777371     1.565287211544    -0.012670701052    12.000000000000
         C            1.212137222629     1.565287211544    -0.012670701052    12.000000000000
         C            0.004415222629     3.780211211544     0.011266298948    12.000000000000
         C            1.194829222629     0.171521211544    -0.003167701052    12.000000000000
         C           -1.185998777371     0.171522211544    -0.003167701052    12.000000000000
         C            0.004415222629    -0.554098788456     0.002749298948    12.000000000000
         H           -2.153002777371     2.094115211544    -0.020846701052     1.007825032230
         H            2.161834222629     2.094114211544    -0.020845701052     1.007825032230
         H            0.004425222629     4.149410211544     1.042235298948     1.007825032230
         H            0.890182222629     4.181819211544    -0.487992701052     1.007825032230
         H           -0.881360777371     4.181819211544    -0.487974701052     1.007825032230
         H            0.004414222629    -1.639080788456     0.006885298948     1.007825032230

  Basis Set: AUG-CC-PVTZ
    Blend: AUG-CC-PVTZ
  Basis Set: (AUG-CC-PVTZ AUX)
    Blend: AUG-CC-PVTZ-JKFIT
	 Reference Energy          =   -5413.5722273500305164 [Eh]
	 Singles Energy            =      -0.0000000000000000 [Eh]
	 Same-Spin Energy          =      -0.4877821492013902 [Eh]
	 Opposite-Spin Energy      =      -1.3647468202101019 [Eh]
	 Correlation Energy        =      -1.8525289694114919 [Eh]
	 Total Energy              =   -5415.4247563194421673 [Eh]

	 ================> DF-SCS-MP2 Energies <==================
	-----------------------------------------------------------
	 SCS Same-Spin Scale       =       0.3333333333333333 [-]
	 SCS Opposite-Spin Scale   =       1.2000000000000000 [-]
	 SCS Same-Spin Energy      =      -0.1625940497337967 [Eh]
	 SCS Opposite-Spin Energy  =      -1.6376961842521223 [Eh]
	 SCS Correlation Energy    =      -1.8002902339859190 [Eh]
	 SCS Total Energy          =   -5415.3725175840163502 [Eh]
	-----------------------------------------------------------

  Dipole Moment: [D]
     X:    -0.0517      Y:     2.1968      Z:     0.0224     Total:     2.1975

*** Psi4 exiting successfully. Buy a developer a beer!
