                               Psi4 1.4a3.dev225

  ==> Input File <==

--------------------------------------------------------------------------
#psi4
#
memory 32 gb

molecule  {
0 1
 Br        2.8426960    -0.9006560     0.0010230
 Br       -2.8426960    -0.9006560     0.0010230
  C        0.0000000     2.1518200    -0.0164640
  C       -1.2077220     1.4432500    -0.0102500
  C        1.1822704     1.4015435    -0.0115146
  C        0.0000000     3.6581740     0.0136870
  C        1.1904140     0.0494840    -0.0007470
  C       -1.1904140     0.0494850    -0.0007470
  C        0.0000000    -0.6761360     0.0051700
  H       -2.1574180     1.9720780    -0.0184260
  H        2.1574190     1.9720770    -0.0184250
  H        0.0000100     4.0273730     1.0446560
  H        0.8857670     4.0597820    -0.4855720
  H       -0.8857760     4.0597820    -0.4855540
  H       -0.0000010    -1.7611180     0.0093060
units angstrom
no_reorient  #important for SAPT in psi4, default
symmetry c1  #important for SAPT in psi4, default
}

set PROPERTIES_ORIGIN ["COM"]
properties('MP2/aug-cc-pvtz', properties = ['dipole'])
--------------------------------------------------------------------------

    Molecular point group: c1
  Charge       = 0
  Multiplicity = 1
  Basis Set: AUG-CC-PVTZ
    Blend: AUG-CC-PVTZ
  Basis Set: (AUG-CC-PVTZ AUX)
    Blend: AUG-CC-PVTZ-JKFIT

    Orbital Energies [Eh]
    ---------------------

    Doubly Occupied:

       1A   -490.032398     2A   -490.031409     3A    -65.172093
       4A    -65.171116     5A    -58.527426     6A    -58.526442
       7A    -58.526005     8A    -58.525977     9A    -58.525033
      10A    -58.525006    11A    -11.313748    12A    -11.309811
      13A    -11.272420    14A    -11.264537    15A    -11.258590
      16A    -11.257582    17A    -11.244363    18A     -9.844775
      19A     -9.843814    20A     -7.456440    21A     -7.455451
      22A     -7.449514    23A     -7.449470    24A     -7.448574
      25A     -7.448535    26A     -3.200245    27A     -3.199242
      28A     -3.196651    29A     -3.196437    30A     -3.195670
      31A     -3.195462    32A     -3.187593    33A     -3.187584
      34A     -3.186681    35A     -3.186672    36A     -1.198922
      37A     -1.097503    38A     -1.087749    39A     -1.005032
      40A     -0.977649    41A     -0.960282    42A     -0.819550
      43A     -0.812792    44A     -0.704399    45A     -0.679974
      46A     -0.605398    47A     -0.598888    48A     -0.587076
      49A     -0.573847    50A     -0.560994    51A     -0.544624
      52A     -0.515165    53A     -0.487125    54A     -0.468421
      55A     -0.426325    56A     -0.423608    57A     -0.419750
      58A     -0.344632    59A     -0.342796

  @DF-RHF Final Energy: -5413.58035981983903

   => Energetics <=

    Nuclear Repulsion Energy =            882.6663178962870688
    One-Electron Energy =               -9286.3828214065288194
    Two-Electron Energy =                2990.1361436904026050
    Total Energy =                      -5413.5803598198399413
  Basis Set: (AUG-CC-PVTZ AUX)
    Blend: AUG-CC-PVTZ-RI
    Molecular point group: c1

    Geometry (in Angstrom), charge = 0, multiplicity = 1:

       Center              X                  Y                   Z               Mass
    ------------   -----------------  -----------------  -----------------  -----------------
         BR           2.843928103136    -0.776472742709     0.001194755787    78.918337600000
         BR          -2.841463896864    -0.776472742709     0.001194755787    78.918337600000
         C            0.001232103136     2.276003257291    -0.016292244213    12.000000000000
         C           -1.206489896864     1.567433257291    -0.010078244213    12.000000000000
         C            1.183502503136     1.525726757291    -0.011342844213    12.000000000000
         C            0.001232103136     3.782357257291     0.013858755787    12.000000000000
         C            1.191646103136     0.173667257291    -0.000575244213    12.000000000000
         C           -1.189181896864     0.173668257291    -0.000575244213    12.000000000000
         C            0.001232103136    -0.551952742709     0.005341755787    12.000000000000
         H           -2.156185896864     2.096261257291    -0.018254244213     1.007825032230
         H            2.158651103136     2.096260257291    -0.018253244213     1.007825032230
         H            0.001242103136     4.151556257291     1.044827755787     1.007825032230
         H            0.886999103136     4.183965257291    -0.485400244213     1.007825032230
         H           -0.884543896864     4.183965257291    -0.485382244213     1.007825032230
         H            0.001231103136    -1.636934742709     0.009477755787     1.007825032230

  Basis Set: AUG-CC-PVTZ
    Blend: AUG-CC-PVTZ
  Basis Set: (AUG-CC-PVTZ AUX)
    Blend: AUG-CC-PVTZ-JKFIT
	 Reference Energy          =   -5413.5803598198390318 [Eh]
	 Singles Energy            =      -0.0000000000000000 [Eh]
	 Same-Spin Energy          =      -0.4880883663484401 [Eh]
	 Opposite-Spin Energy      =      -1.3642474899884387 [Eh]
	 Correlation Energy        =      -1.8523358563368788 [Eh]
	 Total Energy              =   -5415.4326956761760812 [Eh]

	 ================> DF-SCS-MP2 Energies <==================
	-----------------------------------------------------------
	 SCS Same-Spin Scale       =       0.3333333333333333 [-]
	 SCS Opposite-Spin Scale   =       1.2000000000000000 [-]
	 SCS Same-Spin Energy      =      -0.1626961221161467 [Eh]
	 SCS Opposite-Spin Energy  =      -1.6370969879861264 [Eh]
	 SCS Correlation Energy    =      -1.7997931101022731 [Eh]
	 SCS Total Energy          =   -5415.3801529299416870 [Eh]
	-----------------------------------------------------------

  Dipole Moment: [D]
     X:     0.0010      Y:     2.2066      Z:     0.0375     Total:     2.2069

*** Psi4 exiting successfully. Buy a developer a beer!
