                               Psi4 1.4a3.dev225

  ==> Input File <==

--------------------------------------------------------------------------
#psi4
#
memory 32 gb

molecule  {
0 1
 Br        2.8426960    -0.9006560     0.0010230
 Br       -2.8426960    -0.9006560     0.0010230
  C        0.0000000     2.1518200    -0.0164640
  C       -1.2077220     1.4432500    -0.0102500
  C        1.2751333     1.5733406    -0.0065076
  C        0.0000000     3.6581740     0.0136870
  C        1.1904140     0.0494840    -0.0007470
  C       -1.1904140     0.0494850    -0.0007470
  C        0.0000000    -0.6761360     0.0051700
  H       -2.1574180     1.9720780    -0.0184260
  H        2.1574190     1.9720770    -0.0184250
  H        0.0000100     4.0273730     1.0446560
  H        0.8857670     4.0597820    -0.4855720
  H       -0.8857760     4.0597820    -0.4855540
  H       -0.0000010    -1.7611180     0.0093060
units angstrom
no_reorient  #important for SAPT in psi4, default
symmetry c1  #important for SAPT in psi4, default
}

set PROPERTIES_ORIGIN ["COM"]
properties('MP2/aug-cc-pvtz', properties = ['dipole'])
--------------------------------------------------------------------------

    Molecular point group: c1
  Charge       = 0
  Multiplicity = 1
  Basis Set: AUG-CC-PVTZ
    Blend: AUG-CC-PVTZ
  Basis Set: (AUG-CC-PVTZ AUX)
    Blend: AUG-CC-PVTZ-JKFIT

    Orbital Energies [Eh]
    ---------------------

    Doubly Occupied:

       1A   -490.034080     2A   -490.030896     3A    -65.173782
       4A    -65.170624     5A    -58.529106     6A    -58.527702
       7A    -58.527664     8A    -58.525927     9A    -58.524557
      10A    -58.524517    11A    -11.328089    12A    -11.319125
      13A    -11.274727    14A    -11.265569    15A    -11.263192
      16A    -11.260042    17A    -11.238924    18A     -9.846477
      19A     -9.843353    20A     -7.458107    21A     -7.454905
      22A     -7.451254    23A     -7.451166    24A     -7.448190
      25A     -7.448099    26A     -3.201903    27A     -3.198664
      28A     -3.198354    29A     -3.198092    30A     -3.195184
      31A     -3.194924    32A     -3.189339    33A     -3.189329
      34A     -3.186341    35A     -3.186332    36A     -1.186847
      37A     -1.093258    38A     -1.087394    39A     -1.004282
      40A     -0.976277    41A     -0.955628    42A     -0.826876
      43A     -0.800739    44A     -0.725591    45A     -0.670988
      46A     -0.612938    47A     -0.601255    48A     -0.595311
      49A     -0.585040    50A     -0.557171    51A     -0.536226
      52A     -0.505229    53A     -0.486832    54A     -0.464313
      55A     -0.425456    56A     -0.422753    57A     -0.418475
      58A     -0.350647    59A     -0.330800

  @DF-RHF Final Energy: -5413.55275241727031

   => Energetics <=

    Nuclear Repulsion Energy =            878.5526697574771333
    One-Electron Energy =               -9278.0531218473370245
    Two-Electron Energy =                2985.9476996725902609
    Total Energy =                      -5413.5527524172703124
  Basis Set: (AUG-CC-PVTZ AUX)
    Blend: AUG-CC-PVTZ-RI
    Molecular point group: c1

    Geometry (in Angstrom), charge = 0, multiplicity = 1:

       Center              X                  Y                   Z               Mass
    ------------   -----------------  -----------------  -----------------  -----------------
         BR           2.839432627494    -0.784789408228     0.000952367852    78.918337600000
         BR          -2.845959372506    -0.784789408228     0.000952367852    78.918337600000
         C           -0.003263372506     2.267686591772    -0.016534632148    12.000000000000
         C           -1.210985372506     1.559116591772    -0.010320632148    12.000000000000
         C            1.271869927494     1.689207191772    -0.006578232148    12.000000000000
         C           -0.003263372506     3.774040591772     0.013616367852    12.000000000000
         C            1.187150627494     0.165350591772    -0.000817632148    12.000000000000
         C           -1.193677372506     0.165351591772    -0.000817632148    12.000000000000
         C           -0.003263372506    -0.560269408228     0.005099367852    12.000000000000
         H           -2.160681372506     2.087944591772    -0.018496632148     1.007825032230
         H            2.154155627494     2.087943591772    -0.018495632148     1.007825032230
         H           -0.003253372506     4.143239591772     1.044585367852     1.007825032230
         H            0.882503627494     4.175648591772    -0.485642632148     1.007825032230
         H           -0.889039372506     4.175648591772    -0.485624632148     1.007825032230
         H           -0.003264372506    -1.645251408228     0.009235367852     1.007825032230

  Basis Set: AUG-CC-PVTZ
    Blend: AUG-CC-PVTZ
  Basis Set: (AUG-CC-PVTZ AUX)
    Blend: AUG-CC-PVTZ-JKFIT
	 Reference Energy          =   -5413.5527524172703124 [Eh]
	 Singles Energy            =      -0.0000000000000000 [Eh]
	 Same-Spin Energy          =      -0.4883088311352314 [Eh]
	 Opposite-Spin Energy      =      -1.3664872264039130 [Eh]
	 Correlation Energy        =      -1.8547960575391444 [Eh]
	 Total Energy              =   -5415.4075484748091185 [Eh]

	 ================> DF-SCS-MP2 Energies <==================
	-----------------------------------------------------------
	 SCS Same-Spin Scale       =       0.3333333333333333 [-]
	 SCS Opposite-Spin Scale   =       1.2000000000000000 [-]
	 SCS Same-Spin Energy      =      -0.1627696103784105 [Eh]
	 SCS Opposite-Spin Energy  =      -1.6397846716846955 [Eh]
	 SCS Correlation Energy    =      -1.8025542820631060 [Eh]
	 SCS Total Energy          =   -5415.3553066993335960 [Eh]
	-----------------------------------------------------------

  Dipole Moment: [D]
     X:    -0.0453      Y:     2.0923      Z:     0.0335     Total:     2.0930

*** Psi4 exiting successfully. Buy a developer a beer!
