                               Psi4 1.4a3.dev225

  ==> Input File <==

--------------------------------------------------------------------------
#psi4
#
memory 32 gb

molecule  {
0 1
 Br        2.8426960    -0.9006560     0.0010230
 Br       -2.8426960    -0.9006560     0.0010230
  C        0.0000000     2.1518200    -0.0164640
  C       -1.2077220     1.4432500    -0.0102500
  C        1.2077220     1.4432500    -0.0102500
  C        0.0000000     3.6581740     0.0136870
  C        1.1904140     0.0494840    -0.0007470
  C       -1.1470696     0.0744101    -0.0007934
  C        0.0000000    -0.6761360     0.0051700
  H       -2.1574180     1.9720780    -0.0184260
  H        2.1574190     1.9720770    -0.0184250
  H        0.0000100     4.0273730     1.0446560
  H        0.8857670     4.0597820    -0.4855720
  H       -0.8857760     4.0597820    -0.4855540
  H       -0.0000010    -1.7611180     0.0093060
units angstrom
no_reorient  #important for SAPT in psi4, default
symmetry c1  #important for SAPT in psi4, default
}

set PROPERTIES_ORIGIN ["COM"]
properties('MP2/aug-cc-pvtz', properties = ['dipole'])
--------------------------------------------------------------------------

    Molecular point group: c1
  Charge       = 0
  Multiplicity = 1
  Basis Set: AUG-CC-PVTZ
    Blend: AUG-CC-PVTZ
  Basis Set: (AUG-CC-PVTZ AUX)
    Blend: AUG-CC-PVTZ-JKFIT

    Orbital Energies [Eh]
    ---------------------

    Doubly Occupied:

       1A   -490.033010     2A   -490.026682     3A    -65.172725
       4A    -65.166242     5A    -58.528047     6A    -58.526644
       7A    -58.526611     8A    -58.521580     9A    -58.520164
      10A    -58.520140    11A    -11.316877    12A    -11.314572
      13A    -11.274341    14A    -11.264282    15A    -11.259708
      16A    -11.258140    17A    -11.243986    18A     -9.845429
      19A     -9.838661    20A     -7.457057    21A     -7.450202
      22A     -7.450155    23A     -7.450140    24A     -7.443427
      25A     -7.443409    26A     -3.200845    27A     -3.197289
      28A     -3.197057    29A     -3.193868    30A     -3.190443
      31A     -3.190278    32A     -3.188304    33A     -3.188295
      34A     -3.181597    35A     -3.181588    36A     -1.201096
      37A     -1.094779    38A     -1.088085    39A     -1.003108
      40A     -0.977847    41A     -0.963042    42A     -0.818180
      43A     -0.815347    44A     -0.713124    45A     -0.681923
      46A     -0.606628    47A     -0.599743    48A     -0.591963
      49A     -0.583718    50A     -0.560614    51A     -0.545490
      52A     -0.510884    53A     -0.482907    54A     -0.465085
      55A     -0.425076    56A     -0.422085    57A     -0.417848
      58A     -0.349150    59A     -0.343539

  @DF-RHF Final Energy: -5413.58158296690544

   => Energetics <=

    Nuclear Repulsion Energy =            881.3196546741197608
    One-Electron Energy =               -9283.7563668546426925
    Two-Electron Energy =                2988.8551292136171469
    Total Energy =                      -5413.5815829669054438
  Basis Set: (AUG-CC-PVTZ AUX)
    Blend: AUG-CC-PVTZ-RI
    Molecular point group: c1

    Geometry (in Angstrom), charge = 0, multiplicity = 1:

       Center              X                  Y                   Z               Mass
    ------------   -----------------  -----------------  -----------------  -----------------
         BR           2.840597701627    -0.779698366018     0.001135782953    78.918337600000
         BR          -2.844794298373    -0.779698366018     0.001135782953    78.918337600000
         C           -0.002098298373     2.272777633982    -0.016351217047    12.000000000000
         C           -1.209820298373     1.564207633982    -0.010137217047    12.000000000000
         C            1.205623701627     1.564207633982    -0.010137217047    12.000000000000
         C           -0.002098298373     3.779131633982     0.013799782953    12.000000000000
         C            1.188315701627     0.170441633982    -0.000634217047    12.000000000000
         C           -1.149167898373     0.195367733982    -0.000680617047    12.000000000000
         C           -0.002098298373    -0.555178366018     0.005282782953    12.000000000000
         H           -2.159516298373     2.093035633982    -0.018313217047     1.007825032230
         H            2.155320701627     2.093034633982    -0.018312217047     1.007825032230
         H           -0.002088298373     4.148330633982     1.044768782953     1.007825032230
         H            0.883668701627     4.180739633982    -0.485459217047     1.007825032230
         H           -0.887874298373     4.180739633982    -0.485441217047     1.007825032230
         H           -0.002099298373    -1.640160366018     0.009418782953     1.007825032230

  Basis Set: AUG-CC-PVTZ
    Blend: AUG-CC-PVTZ
  Basis Set: (AUG-CC-PVTZ AUX)
    Blend: AUG-CC-PVTZ-JKFIT
	 Reference Energy          =   -5413.5815829669054438 [Eh]
	 Singles Energy            =      -0.0000000000000000 [Eh]
	 Same-Spin Energy          =      -0.4876833547919839 [Eh]
	 Opposite-Spin Energy      =      -1.3635762680647672 [Eh]
	 Correlation Energy        =      -1.8512596228567511 [Eh]
	 Total Energy              =   -5415.4328425897620036 [Eh]

	 ================> DF-SCS-MP2 Energies <==================
	-----------------------------------------------------------
	 SCS Same-Spin Scale       =       0.3333333333333333 [-]
	 SCS Opposite-Spin Scale   =       1.2000000000000000 [-]
	 SCS Same-Spin Energy      =      -0.1625611182639946 [Eh]
	 SCS Opposite-Spin Energy  =      -1.6362915216777205 [Eh]
	 SCS Correlation Energy    =      -1.7988526399417151 [Eh]
	 SCS Total Energy          =   -5415.3804356068467314 [Eh]
	-----------------------------------------------------------

  Dipole Moment: [D]
     X:     0.2300      Y:     2.3137      Z:     0.0368     Total:     2.3254

*** Psi4 exiting successfully. Buy a developer a beer!
