                               Psi4 1.4a3.dev225

  ==> Input File <==

--------------------------------------------------------------------------
#psi4
#
memory 32 gb

molecule  {
0 1
 Br        2.8426960    -0.9006560     0.0010230
 Br       -2.8426960    -0.9006560     0.0010230
  C        0.0000000     2.1518200    -0.0164640
  C       -1.2077220     1.4432500    -0.0102500
  C        1.2077220     1.4432500    -0.0102500
  C        0.0000000     3.6581740     0.0136870
  C        1.1901657     0.0294860    -0.0006106
  C       -1.1904140     0.0494850    -0.0007470
  C        0.0000000    -0.6761360     0.0051700
  H       -2.1574180     1.9720780    -0.0184260
  H        2.1574190     1.9720770    -0.0184250
  H        0.0000100     4.0273730     1.0446560
  H        0.8857670     4.0597820    -0.4855720
  H       -0.8857760     4.0597820    -0.4855540
  H       -0.0000010    -1.7611180     0.0093060
units angstrom
no_reorient  #important for SAPT in psi4, default
symmetry c1  #important for SAPT in psi4, default
}

set PROPERTIES_ORIGIN ["COM"]
properties('MP2/aug-cc-pvtz', properties = ['dipole'])
--------------------------------------------------------------------------

    Molecular point group: c1
  Charge       = 0
  Multiplicity = 1
  Basis Set: AUG-CC-PVTZ
    Blend: AUG-CC-PVTZ
  Basis Set: (AUG-CC-PVTZ AUX)
    Blend: AUG-CC-PVTZ-JKFIT

    Orbital Energies [Eh]
    ---------------------

    Doubly Occupied:

       1A   -490.032869     2A   -490.031912     3A    -65.172612
       4A    -65.171615     5A    -58.527933     6A    -58.526942
       7A    -58.526530     8A    -58.526499     9A    -58.525534
      10A    -58.525504    11A    -11.314985    12A    -11.314738
      13A    -11.271897    14A    -11.263406    15A    -11.260364
      16A    -11.258883    17A    -11.242622    18A     -9.845375
      19A     -9.844311    20A     -7.457037    21A     -7.455948
      22A     -7.450143    23A     -7.450086    24A     -7.449074
      25A     -7.449024    26A     -3.200842    27A     -3.199741
      28A     -3.197250    29A     -3.197017    30A     -3.196175
      31A     -3.195953    32A     -3.188235    33A     -3.188226
      34A     -3.187175    35A     -3.187165    36A     -1.194072
      37A     -1.095182    38A     -1.088844    39A     -1.005270
      40A     -0.975250    41A     -0.958776    42A     -0.817954
      43A     -0.811207    44A     -0.708240    45A     -0.676783
      46A     -0.603663    47A     -0.597562    48A     -0.589506
      49A     -0.581488    50A     -0.560014    51A     -0.541774
      52A     -0.509379    53A     -0.493476    54A     -0.467479
      55A     -0.426117    56A     -0.423247    57A     -0.420224
      58A     -0.346912    59A     -0.337396

  @DF-RHF Final Energy: -5413.58240430334263

   => Energetics <=

    Nuclear Repulsion Energy =            881.7276449227695139
    One-Electron Energy =               -9284.4932281747460365
    Two-Electron Energy =                2989.1831789486332127
    Total Energy =                      -5413.5824043033426278
  Basis Set: (AUG-CC-PVTZ AUX)
    Blend: AUG-CC-PVTZ-RI
    Molecular point group: c1

    Geometry (in Angstrom), charge = 0, multiplicity = 1:

       Center              X                  Y                   Z               Mass
    ------------   -----------------  -----------------  -----------------  -----------------
         BR           2.842708016091    -0.777523647138     0.001126933639    78.918337600000
         BR          -2.842683983909    -0.777523647138     0.001126933639    78.918337600000
         C            0.000012016091     2.274952352862    -0.016360066361    12.000000000000
         C           -1.207709983909     1.566382352862    -0.010146066361    12.000000000000
         C            1.207734016091     1.566382352862    -0.010146066361    12.000000000000
         C            0.000012016091     3.781306352862     0.013790933639    12.000000000000
         C            1.190177716091     0.152618352862    -0.000506666361    12.000000000000
         C           -1.190401983909     0.172617352862    -0.000643066361    12.000000000000
         C            0.000012016091    -0.553003647138     0.005273933639    12.000000000000
         H           -2.157405983909     2.095210352862    -0.018322066361     1.007825032230
         H            2.157431016091     2.095209352862    -0.018321066361     1.007825032230
         H            0.000022016091     4.150505352862     1.044759933639     1.007825032230
         H            0.885779016091     4.182914352862    -0.485468066361     1.007825032230
         H           -0.885763983909     4.182914352862    -0.485450066361     1.007825032230
         H            0.000011016091    -1.637985647138     0.009409933639     1.007825032230

  Basis Set: AUG-CC-PVTZ
    Blend: AUG-CC-PVTZ
  Basis Set: (AUG-CC-PVTZ AUX)
    Blend: AUG-CC-PVTZ-JKFIT
	 Reference Energy          =   -5413.5824043033426278 [Eh]
	 Singles Energy            =      -0.0000000000000000 [Eh]
	 Same-Spin Energy          =      -0.4881118796261409 [Eh]
	 Opposite-Spin Energy      =      -1.3644707166511598 [Eh]
	 Correlation Energy        =      -1.8525825962773008 [Eh]
	 Total Energy              =   -5415.4349868996196165 [Eh]

	 ================> DF-SCS-MP2 Energies <==================
	-----------------------------------------------------------
	 SCS Same-Spin Scale       =       0.3333333333333333 [-]
	 SCS Opposite-Spin Scale   =       1.2000000000000000 [-]
	 SCS Same-Spin Energy      =      -0.1627039598753803 [Eh]
	 SCS Opposite-Spin Energy  =      -1.6373648599813917 [Eh]
	 SCS Correlation Energy    =      -1.8000688198567720 [Eh]
	 SCS Total Energy          =   -5415.3824731231998157 [Eh]
	-----------------------------------------------------------

  Dipole Moment: [D]
     X:     0.0381      Y:     2.1485      Z:     0.0366     Total:     2.1491

*** Psi4 exiting successfully. Buy a developer a beer!
