                               Psi4 1.4a3.dev225

  ==> Input File <==

--------------------------------------------------------------------------
#psi4
#
memory 32 gb

molecule  {
0 1
 Br        2.8426960    -0.9006560     0.0010230
 Br       -2.8426960    -0.9006560     0.0010230
  C        0.0000000     2.1518200    -0.0164640
  C       -1.2077220     1.4432500    -0.0102500
  C        1.2077220     1.4432500    -0.0102500
  C        0.0000000     3.6581740     0.0136870
  C        1.1904140     0.0494840    -0.0007470
  C       -1.1775686     0.0701501    -0.0007918
  C        0.0000000    -0.6761360     0.0051700
  H       -2.1574180     1.9720780    -0.0184260
  H        2.1574190     1.9720770    -0.0184250
  H        0.0000100     4.0273730     1.0446560
  H        0.8857670     4.0597820    -0.4855720
  H       -0.8857760     4.0597820    -0.4855540
  H       -0.0000010    -1.7611180     0.0093060
units angstrom
no_reorient  #important for SAPT in psi4, default
symmetry c1  #important for SAPT in psi4, default
}

set PROPERTIES_ORIGIN ["COM"]
properties('MP2/aug-cc-pvtz', properties = ['dipole'])
--------------------------------------------------------------------------

    Molecular point group: c1
  Charge       = 0
  Multiplicity = 1
  Basis Set: AUG-CC-PVTZ
    Blend: AUG-CC-PVTZ
  Basis Set: (AUG-CC-PVTZ AUX)
    Blend: AUG-CC-PVTZ-JKFIT

    Orbital Energies [Eh]
    ---------------------

    Doubly Occupied:

       1A   -490.032301     2A   -490.029819     3A    -65.172013
       4A    -65.169454     5A    -58.527337     6A    -58.525932
       7A    -58.525901     8A    -58.524787     9A    -58.523374
      10A    -58.523346    11A    -11.315646    12A    -11.314712
      13A    -11.273426    14A    -11.265504    15A    -11.259053
      16A    -11.257498    17A    -11.243431    18A     -9.844716
      19A     -9.842022    20A     -7.456347    21A     -7.453597
      22A     -7.449485    23A     -7.449431    24A     -7.446784
      25A     -7.446749    26A     -3.200136    27A     -3.197357
      28A     -3.196574    29A     -3.196351    30A     -3.193850
      31A     -3.193656    32A     -3.187589    33A     -3.187580
      34A     -3.184912    35A     -3.184903    36A     -1.197464
      37A     -1.095145    38A     -1.087830    39A     -1.003387
      40A     -0.978332    41A     -0.960591    42A     -0.815966
      43A     -0.815232    44A     -0.710735    45A     -0.679302
      46A     -0.605048    47A     -0.598785    48A     -0.589037
      49A     -0.584115    50A     -0.560267    51A     -0.543177
      52A     -0.511241    53A     -0.487617    54A     -0.466483
      55A     -0.425502    56A     -0.422895    57A     -0.419124
      58A     -0.345880    59A     -0.342557

  @DF-RHF Final Energy: -5413.58279572386527

   => Energetics <=

    Nuclear Repulsion Energy =            881.4362035177092594
    One-Electron Energy =               -9283.9554309071027092
    Two-Electron Energy =                2988.9364316655287439
    Total Energy =                      -5413.5827957238652743
  Basis Set: (AUG-CC-PVTZ AUX)
    Blend: AUG-CC-PVTZ-RI
    Molecular point group: c1

    Geometry (in Angstrom), charge = 0, multiplicity = 1:

       Center              X                  Y                   Z               Mass
    ------------   -----------------  -----------------  -----------------  -----------------
         BR           2.842074152520    -0.779492140214     0.001135705497    78.918337600000
         BR          -2.843317847480    -0.779492140214     0.001135705497    78.918337600000
         C           -0.000621847480     2.272983859786    -0.016351294503    12.000000000000
         C           -1.208343847480     1.564413859786    -0.010137294503    12.000000000000
         C            1.207100152520     1.564413859786    -0.010137294503    12.000000000000
         C           -0.000621847480     3.779337859786     0.013799705497    12.000000000000
         C            1.189792152520     0.170647859786    -0.000634294503    12.000000000000
         C           -1.178190447480     0.191313959786    -0.000679094503    12.000000000000
         C           -0.000621847480    -0.554972140214     0.005282705497    12.000000000000
         H           -2.158039847480     2.093241859786    -0.018313294503     1.007825032230
         H            2.156797152520     2.093240859786    -0.018312294503     1.007825032230
         H           -0.000611847480     4.148536859786     1.044768705497     1.007825032230
         H            0.885145152520     4.180945859786    -0.485459294503     1.007825032230
         H           -0.886397847480     4.180945859786    -0.485441294503     1.007825032230
         H           -0.000622847480    -1.639954140214     0.009418705497     1.007825032230

  Basis Set: AUG-CC-PVTZ
    Blend: AUG-CC-PVTZ
  Basis Set: (AUG-CC-PVTZ AUX)
    Blend: AUG-CC-PVTZ-JKFIT
	 Reference Energy          =   -5413.5827957238652743 [Eh]
	 Singles Energy            =      -0.0000000000000000 [Eh]
	 Same-Spin Energy          =      -0.4878525243905331 [Eh]
	 Opposite-Spin Energy      =      -1.3639487680784148 [Eh]
	 Correlation Energy        =      -1.8518012924689478 [Eh]
	 Total Energy              =   -5415.4345970163340098 [Eh]

	 ================> DF-SCS-MP2 Energies <==================
	-----------------------------------------------------------
	 SCS Same-Spin Scale       =       0.3333333333333333 [-]
	 SCS Opposite-Spin Scale   =       1.2000000000000000 [-]
	 SCS Same-Spin Energy      =      -0.1626175081301777 [Eh]
	 SCS Opposite-Spin Energy  =      -1.6367385216940977 [Eh]
	 SCS Correlation Energy    =      -1.7993560298242754 [Eh]
	 SCS Total Energy          =   -5415.3821517536898682 [Eh]
	-----------------------------------------------------------

  Dipole Moment: [D]
     X:     0.0931      Y:     2.2401      Z:     0.0366     Total:     2.2423

*** Psi4 exiting successfully. Buy a developer a beer!
