                               Psi4 1.4a3.dev225

  ==> Input File <==

--------------------------------------------------------------------------
#psi4
#
memory 32 gb

molecule  {
0 1
 Br        2.8426960    -0.9006560     0.0010230
 Br       -2.8426960    -0.9006560     0.0010230
  C        0.0000000     2.1518200    -0.0164640
  C       -1.2077220     1.4432500    -0.0102500
  C        1.2077220     1.4432500    -0.0102500
  C        0.0000000     3.6581740     0.0136870
  C        1.1904140     0.0494840    -0.0007470
  C       -1.1904140     0.0494850    -0.0007470
  C        0.0000000    -0.6761360     0.0051700
  H       -2.1574180     1.9720780    -0.0184260
  H        2.1574190     1.9720770    -0.0184250
  H        0.0000100     4.0273730     1.0446560
  H        0.9019717     4.0671292    -0.4947057
  H       -0.8857760     4.0597820    -0.4855540
  H       -0.0000010    -1.7611180     0.0093060
units angstrom
no_reorient  #important for SAPT in psi4, default
symmetry c1  #important for SAPT in psi4, default
}

set PROPERTIES_ORIGIN ["COM"]
properties('MP2/aug-cc-pvtz', properties = ['dipole'])
--------------------------------------------------------------------------

    Molecular point group: c1
  Charge       = 0
  Multiplicity = 1
  Basis Set: AUG-CC-PVTZ
    Blend: AUG-CC-PVTZ
  Basis Set: (AUG-CC-PVTZ AUX)
    Blend: AUG-CC-PVTZ-JKFIT

    Orbital Energies [Eh]
    ---------------------

    Doubly Occupied:

       1A   -490.032021     2A   -490.031990     3A    -65.171728
       4A    -65.171697     5A    -58.527054     6A    -58.527022
       7A    -58.525646     8A    -58.525617     9A    -58.525615
      10A    -58.525585    11A    -11.315019    12A    -11.314976
      13A    -11.272650    14A    -11.264827    15A    -11.258971
      16A    -11.258848    17A    -11.245292    18A     -9.844427
      19A     -9.844396    20A     -7.456062    21A     -7.456031
      22A     -7.449191    23A     -7.449160    24A     -7.449142
      25A     -7.449110    26A     -3.199854    27A     -3.199822
      28A     -3.196288    29A     -3.196256    30A     -3.196068
      31A     -3.196036    32A     -3.187294    33A     -3.187285
      34A     -3.187263    35A     -3.187253    36A     -1.195057
      37A     -1.095191    38A     -1.088203    39A     -1.004172
      40A     -0.976839    41A     -0.958160    42A     -0.816383
      43A     -0.812858    44A     -0.709018    45A     -0.677321
      46A     -0.604033    47A     -0.597427    48A     -0.588445
      49A     -0.583045    50A     -0.557443    51A     -0.541823
      52A     -0.510698    53A     -0.491253    54A     -0.467315
      55A     -0.426028    56A     -0.423241    57A     -0.419881
      58A     -0.345731    59A     -0.339795

  @DF-RHF Final Energy: -5413.58247025397304

   => Energetics <=

    Nuclear Repulsion Energy =            881.5154108912217907
    One-Electron Energy =               -9284.0860546021904156
    Two-Electron Energy =                2988.9881734569967193
    Total Energy =                      -5413.5824702539721329
  Basis Set: (AUG-CC-PVTZ AUX)
    Blend: AUG-CC-PVTZ-RI
    Molecular point group: c1

    Geometry (in Angstrom), charge = 0, multiplicity = 1:

       Center              X                  Y                   Z               Mass
    ------------   -----------------  -----------------  -----------------  -----------------
         BR           2.842630112186    -0.778521618230     0.001170671790    78.918337600000
         BR          -2.842761887814    -0.778521618230     0.001170671790    78.918337600000
         C           -0.000065887814     2.273954381770    -0.016316328210    12.000000000000
         C           -1.207787887814     1.565384381770    -0.010102328210    12.000000000000
         C            1.207656112186     1.565384381770    -0.010102328210    12.000000000000
         C           -0.000065887814     3.780308381770     0.013834671790    12.000000000000
         C            1.190348112186     0.171618381770    -0.000599328210    12.000000000000
         C           -1.190479887814     0.171619381770    -0.000599328210    12.000000000000
         C           -0.000065887814    -0.554001618230     0.005317671790    12.000000000000
         H           -2.157483887814     2.094212381770    -0.018278328210     1.007825032230
         H            2.157353112186     2.094211381770    -0.018277328210     1.007825032230
         H           -0.000055887814     4.149507381770     1.044803671790     1.007825032230
         H            0.901905812186     4.189263581770    -0.494558028210     1.007825032230
         H           -0.885841887814     4.181916381770    -0.485406328210     1.007825032230
         H           -0.000066887814    -1.638983618230     0.009453671790     1.007825032230

  Basis Set: AUG-CC-PVTZ
    Blend: AUG-CC-PVTZ
  Basis Set: (AUG-CC-PVTZ AUX)
    Blend: AUG-CC-PVTZ-JKFIT
	 Reference Energy          =   -5413.5824702539730424 [Eh]
	 Singles Energy            =      -0.0000000000000000 [Eh]
	 Same-Spin Energy          =      -0.4880397194297709 [Eh]
	 Opposite-Spin Energy      =      -1.3644204112311551 [Eh]
	 Correlation Energy        =      -1.8524601306609259 [Eh]
	 Total Energy              =   -5415.4349303846338444 [Eh]

	 ================> DF-SCS-MP2 Energies <==================
	-----------------------------------------------------------
	 SCS Same-Spin Scale       =       0.3333333333333333 [-]
	 SCS Opposite-Spin Scale   =       1.2000000000000000 [-]
	 SCS Same-Spin Energy      =      -0.1626799064765903 [Eh]
	 SCS Opposite-Spin Energy  =      -1.6373044934773862 [Eh]
	 SCS Correlation Energy    =      -1.7999843999539764 [Eh]
	 SCS Total Energy          =   -5415.3824546539271978 [Eh]
	-----------------------------------------------------------

  Dipole Moment: [D]
     X:    -0.0060      Y:     2.1709      Z:     0.0395     Total:     2.1713

*** Psi4 exiting successfully. Buy a developer a beer!
