                               Psi4 1.4a3.dev225

  ==> Input File <==

--------------------------------------------------------------------------
#psi4
#
memory 32 gb

molecule  {
0 1
 Br        2.8426960    -0.9006560     0.0010230
 Br       -2.8426960    -0.9006560     0.0010230
  C        0.0000000     2.1518200    -0.0164640
  C       -1.2077220     1.4432500    -0.0102500
  C        1.2077220     1.4432500    -0.0102500
  C        0.0000000     3.6581740     0.0136870
  C        1.1904140     0.0494840    -0.0007470
  C       -1.3361986     0.0553063    -0.0014928
  C        0.0000000    -0.6761360     0.0051700
  H       -2.1574180     1.9720780    -0.0184260
  H        2.1574190     1.9720770    -0.0184250
  H        0.0000100     4.0273730     1.0446560
  H        0.8857670     4.0597820    -0.4855720
  H       -0.8857760     4.0597820    -0.4855540
  H       -0.0000010    -1.7611180     0.0093060
units angstrom
no_reorient  #important for SAPT in psi4, default
symmetry c1  #important for SAPT in psi4, default
}

set PROPERTIES_ORIGIN ["COM"]
properties('MP2/aug-cc-pvtz', properties = ['dipole'])
--------------------------------------------------------------------------

    Molecular point group: c1
  Charge       = 0
  Multiplicity = 1
  Basis Set: AUG-CC-PVTZ
    Blend: AUG-CC-PVTZ
  Basis Set: (AUG-CC-PVTZ AUX)
    Blend: AUG-CC-PVTZ-JKFIT

    Orbital Energies [Eh]
    ---------------------

    Doubly Occupied:

       1A   -490.042804     2A   -490.029413     3A    -65.183152
       4A    -65.169111     5A    -58.538372     6A    -58.537068
       7A    -58.537017     8A    -58.524441     9A    -58.523025
      10A    -58.523004    11A    -11.318487    12A    -11.310706
      13A    -11.272018    14A    -11.270038    15A    -11.256538
      16A    -11.256253    17A    -11.241161    18A     -9.856932
      19A     -9.841803    20A     -7.468909    21A     -7.461779
      22A     -7.461615    23A     -7.453452    24A     -7.446542
      25A     -7.446529    26A     -3.212853    27A     -3.208936
      28A     -3.208530    29A     -3.199803    30A     -3.199792
      31A     -3.197247    32A     -3.193652    33A     -3.193475
      34A     -3.184653    35A     -3.184644    36A     -1.184292
      37A     -1.111900    38A     -1.084358    39A     -1.002040
      40A     -0.978472    41A     -0.948839    42A     -0.817021
      43A     -0.801871    44A     -0.699665    45A     -0.668356
      46A     -0.614535    47A     -0.594701    48A     -0.583703
      49A     -0.570087    50A     -0.556692    51A     -0.535789
      52A     -0.525591    53A     -0.490518    54A     -0.477495
      55A     -0.429499    56A     -0.423751    57A     -0.417449
      58A     -0.341302    59A     -0.326302

  @DF-RHF Final Energy: -5413.56065393202607

   => Energetics <=

    Nuclear Repulsion Energy =            882.4428725893079672
    One-Electron Energy =               -9285.7310939897306525
    Two-Electron Energy =                2989.7275674683960460
    Total Energy =                      -5413.5606539320260708
  Basis Set: (AUG-CC-PVTZ AUX)
    Blend: AUG-CC-PVTZ-RI
    Molecular point group: c1

    Geometry (in Angstrom), charge = 0, multiplicity = 1:

       Center              X                  Y                   Z               Mass
    ------------   -----------------  -----------------  -----------------  -----------------
         BR           2.849753401187    -0.778773554628     0.001169640776    78.918337600000
         BR          -2.835638598813    -0.778773554628     0.001169640776    78.918337600000
         C            0.007057401187     2.273702445372    -0.016317359224    12.000000000000
         C           -1.200664598813     1.565132445372    -0.010103359224    12.000000000000
         C            1.214779401187     1.565132445372    -0.010103359224    12.000000000000
         C            0.007057401187     3.780056445372     0.013833640776    12.000000000000
         C            1.197471401187     0.171366445372    -0.000600359224    12.000000000000
         C           -1.329141198813     0.177188745372    -0.001346159224    12.000000000000
         C            0.007057401187    -0.554253554628     0.005316640776    12.000000000000
         H           -2.150360598813     2.093960445372    -0.018279359224     1.007825032230
         H            2.164476401187     2.093959445372    -0.018278359224     1.007825032230
         H            0.007067401187     4.149255445372     1.044802640776     1.007825032230
         H            0.892824401187     4.181664445372    -0.485425359224     1.007825032230
         H           -0.878718598813     4.181664445372    -0.485407359224     1.007825032230
         H            0.007056401187    -1.639235554628     0.009452640776     1.007825032230

  Basis Set: AUG-CC-PVTZ
    Blend: AUG-CC-PVTZ
  Basis Set: (AUG-CC-PVTZ AUX)
    Blend: AUG-CC-PVTZ-JKFIT
	 Reference Energy          =   -5413.5606539320260708 [Eh]
	 Singles Energy            =      -0.0000000000000000 [Eh]
	 Same-Spin Energy          =      -0.4897558746002955 [Eh]
	 Opposite-Spin Energy      =      -1.3678777114303196 [Eh]
	 Correlation Energy        =      -1.8576335860306150 [Eh]
	 Total Energy              =   -5415.4182875180567862 [Eh]

	 ================> DF-SCS-MP2 Energies <==================
	-----------------------------------------------------------
	 SCS Same-Spin Scale       =       0.3333333333333333 [-]
	 SCS Opposite-Spin Scale   =       1.2000000000000000 [-]
	 SCS Same-Spin Energy      =      -0.1632519582000985 [Eh]
	 SCS Opposite-Spin Energy  =      -1.6414532537163835 [Eh]
	 SCS Correlation Energy    =      -1.8047052119164819 [Eh]
	 SCS Total Energy          =   -5415.3653591439424417 [Eh]
	-----------------------------------------------------------

  Dipole Moment: [D]
     X:    -0.5408      Y:     1.8808      Z:     0.0357     Total:     1.9573

*** Psi4 exiting successfully. Buy a developer a beer!
