                               Psi4 1.4a3.dev225

  ==> Input File <==

--------------------------------------------------------------------------
#psi4
#
memory 32 gb

molecule  {
0 1
 Br        2.8426960    -0.9006560     0.0010230
 Br       -2.8426960    -0.9006560     0.0010230
  C        0.0000000     2.1518200    -0.0164640
  C       -1.2077220     1.4432500    -0.0102500
  C        1.2541818     1.5292009    -0.0077450
  C        0.0000000     3.6581740     0.0136870
  C        1.1904140     0.0494840    -0.0007470
  C       -1.1904140     0.0494850    -0.0007470
  C        0.0000000    -0.6761360     0.0051700
  H       -2.1574180     1.9720780    -0.0184260
  H        2.1574190     1.9720770    -0.0184250
  H        0.0000100     4.0273730     1.0446560
  H        0.8857670     4.0597820    -0.4855720
  H       -0.8857760     4.0597820    -0.4855540
  H       -0.0000010    -1.7611180     0.0093060
units angstrom
no_reorient  #important for SAPT in psi4, default
symmetry c1  #important for SAPT in psi4, default
}

set PROPERTIES_ORIGIN ["COM"]
properties('MP2/aug-cc-pvtz', properties = ['dipole'])
--------------------------------------------------------------------------

    Molecular point group: c1
  Charge       = 0
  Multiplicity = 1
  Basis Set: AUG-CC-PVTZ
    Blend: AUG-CC-PVTZ
  Basis Set: (AUG-CC-PVTZ AUX)
    Blend: AUG-CC-PVTZ-JKFIT

    Orbital Energies [Eh]
    ---------------------

    Doubly Occupied:

       1A   -490.033310     2A   -490.031237     3A    -65.173015
       4A    -65.170960     5A    -58.528339     6A    -58.526934
       7A    -58.526899     8A    -58.526270     9A    -58.524889
      10A    -58.524853    11A    -11.324207    12A    -11.317641
      13A    -11.273621    14A    -11.265333    15A    -11.261602
      16A    -11.259577    17A    -11.240166    18A     -9.845712
      19A     -9.843682    20A     -7.457344    21A     -7.455261
      22A     -7.450485    23A     -7.450411    24A     -7.448496
      25A     -7.448422    26A     -3.201138    27A     -3.199030
      28A     -3.197583    29A     -3.197336    30A     -3.195520
      31A     -3.195277    32A     -3.188577    33A     -3.188568
      34A     -3.186634    35A     -3.186625    36A     -1.189042
      37A     -1.092722    38A     -1.088557    39A     -1.004020
      40A     -0.976051    41A     -0.956884    42A     -0.822959
      43A     -0.804133    44A     -0.719807    45A     -0.672725
      46A     -0.605996    47A     -0.601978    48A     -0.595849
      49A     -0.585262    50A     -0.558088    51A     -0.537837
      52A     -0.504873    53A     -0.491622    54A     -0.465232
      55A     -0.425481    56A     -0.422801    57A     -0.419385
      58A     -0.348897    59A     -0.333553

  @DF-RHF Final Energy: -5413.56901346300765

   => Energetics <=

    Nuclear Repulsion Energy =            879.5470327646510214
    One-Electron Energy =               -9280.0946725797366526
    Two-Electron Energy =                2986.9786263520782086
    Total Energy =                      -5413.5690134630076500
  Basis Set: (AUG-CC-PVTZ AUX)
    Blend: AUG-CC-PVTZ-RI
    Molecular point group: c1

    Geometry (in Angstrom), charge = 0, multiplicity = 1:

       Center              X                  Y                   Z               Mass
    ------------   -----------------  -----------------  -----------------  -----------------
         BR           2.840446885695    -0.782652613596     0.001012270155    78.918337600000
         BR          -2.844945114305    -0.782652613596     0.001012270155    78.918337600000
         C           -0.002249114305     2.269823386404    -0.016474729845    12.000000000000
         C           -1.209971114305     1.561253386404    -0.010260729845    12.000000000000
         C            1.251932685695     1.647204286404    -0.007755729845    12.000000000000
         C           -0.002249114305     3.776177386404     0.013676270155    12.000000000000
         C            1.188164885695     0.167487386404    -0.000757729845    12.000000000000
         C           -1.192663114305     0.167488386404    -0.000757729845    12.000000000000
         C           -0.002249114305    -0.558132613596     0.005159270155    12.000000000000
         H           -2.159667114305     2.090081386404    -0.018436729845     1.007825032230
         H            2.155169885695     2.090080386404    -0.018435729845     1.007825032230
         H           -0.002239114305     4.145376386404     1.044645270155     1.007825032230
         H            0.883517885695     4.177785386404    -0.485582729845     1.007825032230
         H           -0.888025114305     4.177785386404    -0.485564729845     1.007825032230
         H           -0.002250114305    -1.643114613596     0.009295270155     1.007825032230

  Basis Set: AUG-CC-PVTZ
    Blend: AUG-CC-PVTZ
  Basis Set: (AUG-CC-PVTZ AUX)
    Blend: AUG-CC-PVTZ-JKFIT
	 Reference Energy          =   -5413.5690134630076500 [Eh]
	 Singles Energy            =      -0.0000000000000000 [Eh]
	 Same-Spin Energy          =      -0.4881470847359128 [Eh]
	 Opposite-Spin Energy      =      -1.3654194580175922 [Eh]
	 Correlation Energy        =      -1.8535665427535051 [Eh]
	 Total Energy              =   -5415.4225800057611195 [Eh]

	 ================> DF-SCS-MP2 Energies <==================
	-----------------------------------------------------------
	 SCS Same-Spin Scale       =       0.3333333333333333 [-]
	 SCS Opposite-Spin Scale   =       1.2000000000000000 [-]
	 SCS Same-Spin Energy      =      -0.1627156949119709 [Eh]
	 SCS Opposite-Spin Energy  =      -1.6385033496211105 [Eh]
	 SCS Correlation Energy    =      -1.8012190445330816 [Eh]
	 SCS Total Energy          =   -5415.3702325075410045 [Eh]
	-----------------------------------------------------------

  Dipole Moment: [D]
     X:    -0.0243      Y:     2.1205      Z:     0.0346     Total:     2.1210

*** Psi4 exiting successfully. Buy a developer a beer!
