                               Psi4 1.4a3.dev225

  ==> Input File <==

--------------------------------------------------------------------------
#psi4
#
memory 32 gb

molecule  {
0 1
 Br        2.8426960    -0.9006560     0.0010230
 Br       -2.8426960    -0.9006560     0.0010230
  C        0.0000000     2.1518200    -0.0164640
  C       -1.2077220     1.4432500    -0.0102500
  C        1.2077220     1.4432500    -0.0102500
  C        0.0000000     3.6581740     0.0136870
  C        1.1904140     0.0494840    -0.0007470
  C       -1.1904140     0.0494850    -0.0007470
  C        0.0000000    -0.6761360     0.0051700
  H       -2.1574180     1.9720780    -0.0184260
  H        2.1574190     1.9720770    -0.0184250
  H        0.0000105     4.0442301     1.0917287
  H        0.8857670     4.0597820    -0.4855720
  H       -0.8857760     4.0597820    -0.4855540
  H       -0.0000010    -1.7611180     0.0093060
units angstrom
no_reorient  #important for SAPT in psi4, default
symmetry c1  #important for SAPT in psi4, default
}

set PROPERTIES_ORIGIN ["COM"]
properties('MP2/aug-cc-pvtz', properties = ['dipole'])
--------------------------------------------------------------------------

    Molecular point group: c1
  Charge       = 0
  Multiplicity = 1
  Basis Set: AUG-CC-PVTZ
    Blend: AUG-CC-PVTZ
  Basis Set: (AUG-CC-PVTZ AUX)
    Blend: AUG-CC-PVTZ-JKFIT

    Orbital Energies [Eh]
    ---------------------

    Doubly Occupied:

       1A   -490.032061     2A   -490.032061     3A    -65.171768
       4A    -65.171768     5A    -58.527093     6A    -58.527093
       7A    -58.525686     8A    -58.525686     9A    -58.525656
      10A    -58.525656    11A    -11.315074    12A    -11.315065
      13A    -11.272823    14A    -11.264948    15A    -11.259071
      16A    -11.259010    17A    -11.248742    18A     -9.844467
      19A     -9.844466    20A     -7.456102    21A     -7.456102
      22A     -7.449230    23A     -7.449230    24A     -7.449181
      25A     -7.449181    26A     -3.199895    27A     -3.199893
      28A     -3.196328    29A     -3.196327    30A     -3.196108
      31A     -3.196107    32A     -3.187333    33A     -3.187333
      34A     -3.187323    35A     -3.187323    36A     -1.195131
      37A     -1.095266    38A     -1.087911    39A     -1.003977
      40A     -0.976931    41A     -0.956570    42A     -0.816519
      43A     -0.812218    44A     -0.709023    45A     -0.677786
      46A     -0.604160    47A     -0.591291    48A     -0.587549
      49A     -0.583193    50A     -0.560658    51A     -0.539769
      52A     -0.510653    53A     -0.491477    54A     -0.467378
      55A     -0.426078    56A     -0.422982    57A     -0.419941
      58A     -0.345478    59A     -0.339867

  @DF-RHF Final Energy: -5413.58092754729660

   => Energetics <=

    Nuclear Repulsion Energy =            881.3776487493868217
    One-Electron Energy =               -9283.8111529427715141
    Two-Electron Energy =                2988.8525766460875275
    Total Energy =                      -5413.5809275472965965
  Basis Set: (AUG-CC-PVTZ AUX)
    Blend: AUG-CC-PVTZ-RI
    Molecular point group: c1

    Geometry (in Angstrom), charge = 0, multiplicity = 1:

       Center              X                  Y                   Z               Mass
    ------------   -----------------  -----------------  -----------------  -----------------
         BR           2.842695993901    -0.778560282806     0.000942152392    78.918337600000
         BR          -2.842696006099    -0.778560282806     0.000942152392    78.918337600000
         C           -0.000000006099     2.273915717194    -0.016544847608    12.000000000000
         C           -1.207722006099     1.565345717194    -0.010330847608    12.000000000000
         C            1.207721993901     1.565345717194    -0.010330847608    12.000000000000
         C           -0.000000006099     3.780269717194     0.013606152392    12.000000000000
         C            1.190413993901     0.171579717194    -0.000827847608    12.000000000000
         C           -1.190414006099     0.171580717194    -0.000827847608    12.000000000000
         C           -0.000000006099    -0.554040282806     0.005089152392    12.000000000000
         H           -2.157418006099     2.094173717194    -0.018506847608     1.007825032230
         H            2.157418993901     2.094172717194    -0.018505847608     1.007825032230
         H            0.000010493901     4.166325817194     1.091647852392     1.007825032230
         H            0.885766993901     4.181877717194    -0.485652847608     1.007825032230
         H           -0.885776006099     4.181877717194    -0.485634847608     1.007825032230
         H           -0.000001006099    -1.639022282806     0.009225152392     1.007825032230

  Basis Set: AUG-CC-PVTZ
    Blend: AUG-CC-PVTZ
  Basis Set: (AUG-CC-PVTZ AUX)
    Blend: AUG-CC-PVTZ-JKFIT
	 Reference Energy          =   -5413.5809275472965965 [Eh]
	 Singles Energy            =      -0.0000000000000000 [Eh]
	 Same-Spin Energy          =      -0.4880332223742593 [Eh]
	 Opposite-Spin Energy      =      -1.3646028195124951 [Eh]
	 Correlation Energy        =      -1.8526360418867545 [Eh]
	 Total Energy              =   -5415.4335635891829952 [Eh]

	 ================> DF-SCS-MP2 Energies <==================
	-----------------------------------------------------------
	 SCS Same-Spin Scale       =       0.3333333333333333 [-]
	 SCS Opposite-Spin Scale   =       1.2000000000000000 [-]
	 SCS Same-Spin Energy      =      -0.1626777407914198 [Eh]
	 SCS Opposite-Spin Energy  =      -1.6375233834149940 [Eh]
	 SCS Correlation Energy    =      -1.8002011242064138 [Eh]
	 SCS Total Energy          =   -5415.3811286715026654 [Eh]
	-----------------------------------------------------------

  Dipole Moment: [D]
     X:     0.0000      Y:     2.1597      Z:     0.0218     Total:     2.1598

*** Psi4 exiting successfully. Buy a developer a beer!
