                               Psi4 1.4a3.dev225

  ==> Input File <==

--------------------------------------------------------------------------
#psi4
#
memory 32 gb

molecule  {
0 1
 Br        2.8426960    -0.9006560     0.0010230
 Br       -2.8426960    -0.9006560     0.0010230
  C        0.0000000     2.1518200    -0.0164640
  C       -1.2077220     1.4432500    -0.0102500
  C        1.2077220     1.4432500    -0.0102500
  C        0.0000000     3.6581740     0.0136870
  C        1.1904140     0.0494840    -0.0007470
  C       -1.2597424    -0.0789225    -0.0004410
  C        0.0000000    -0.6761360     0.0051700
  H       -2.1574180     1.9720780    -0.0184260
  H        2.1574190     1.9720770    -0.0184250
  H        0.0000100     4.0273730     1.0446560
  H        0.8857670     4.0597820    -0.4855720
  H       -0.8857760     4.0597820    -0.4855540
  H       -0.0000010    -1.7611180     0.0093060
units angstrom
no_reorient  #important for SAPT in psi4, default
symmetry c1  #important for SAPT in psi4, default
}

set PROPERTIES_ORIGIN ["COM"]
properties('MP2/aug-cc-pvtz', properties = ['dipole'])
--------------------------------------------------------------------------

    Molecular point group: c1
  Charge       = 0
  Multiplicity = 1
  Basis Set: AUG-CC-PVTZ
    Blend: AUG-CC-PVTZ
  Basis Set: (AUG-CC-PVTZ AUX)
    Blend: AUG-CC-PVTZ-JKFIT

    Orbital Energies [Eh]
    ---------------------

    Doubly Occupied:

       1A   -490.042387     2A   -490.030387     3A    -65.182746
       4A    -65.170062     5A    -58.537964     6A    -58.536663
       7A    -58.536611     8A    -58.525397     9A    -58.523977
      10A    -58.523952    11A    -11.317770    12A    -11.311728
      13A    -11.268074    14A    -11.266028    15A    -11.261727
      16A    -11.257917    17A    -11.240457    18A     -9.856539
      19A     -9.842736    20A     -7.468517    21A     -7.461394
      22A     -7.461224    23A     -7.454394    24A     -7.447475
      25A     -7.447443    26A     -3.212458    27A     -3.208545
      28A     -3.208133    29A     -3.199418    30A     -3.199407
      31A     -3.198203    32A     -3.194614    33A     -3.194405
      34A     -3.185565    35A     -3.185556    36A     -1.184807
      37A     -1.111170    38A     -1.084464    39A     -1.008146
      40A     -0.970544    41A     -0.948667    42A     -0.819945
      43A     -0.800626    44A     -0.699752    45A     -0.668643
      46A     -0.612298    47A     -0.593767    48A     -0.589393
      49A     -0.567990    50A     -0.559572    51A     -0.538256
      52A     -0.512843    53A     -0.497640    54A     -0.475494
      55A     -0.427554    56A     -0.422564    57A     -0.419965
      58A     -0.345368    59A     -0.323512

  @DF-RHF Final Energy: -5413.56063730189817

   => Energetics <=

    Nuclear Repulsion Energy =            882.9176870899389087
    One-Electron Energy =               -9286.6709405295678152
    Two-Electron Energy =                2990.1926161377305107
    Total Energy =                      -5413.5606373018981685
  Basis Set: (AUG-CC-PVTZ AUX)
    Blend: AUG-CC-PVTZ-RI
    Molecular point group: c1

    Geometry (in Angstrom), charge = 0, multiplicity = 1:

       Center              X                  Y                   Z               Mass
    ------------   -----------------  -----------------  -----------------  -----------------
         BR           2.846052170828    -0.772275563495     0.001118723334    78.918337600000
         BR          -2.839339829172    -0.772275563495     0.001118723334    78.918337600000
         C            0.003356170828     2.280200436505    -0.016368276666    12.000000000000
         C           -1.204365829172     1.571630436505    -0.010154276666    12.000000000000
         C            1.211078170828     1.571630436505    -0.010154276666    12.000000000000
         C            0.003356170828     3.786554436505     0.013782723334    12.000000000000
         C            1.193770170828     0.177864436505    -0.000651276666    12.000000000000
         C           -1.256386229172     0.049457936505    -0.000345276666    12.000000000000
         C            0.003356170828    -0.547755563495     0.005265723334    12.000000000000
         H           -2.154061829172     2.100458436505    -0.018330276666     1.007825032230
         H            2.160775170828     2.100457436505    -0.018329276666     1.007825032230
         H            0.003366170828     4.155753436505     1.044751723334     1.007825032230
         H            0.889123170828     4.188162436505    -0.485476276666     1.007825032230
         H           -0.882419829172     4.188162436505    -0.485458276666     1.007825032230
         H            0.003355170828    -1.632737563495     0.009401723334     1.007825032230

  Basis Set: AUG-CC-PVTZ
    Blend: AUG-CC-PVTZ
  Basis Set: (AUG-CC-PVTZ AUX)
    Blend: AUG-CC-PVTZ-JKFIT
	 Reference Energy          =   -5413.5606373018981685 [Eh]
	 Singles Energy            =      -0.0000000000000000 [Eh]
	 Same-Spin Energy          =      -0.4897176189653112 [Eh]
	 Opposite-Spin Energy      =      -1.3678150783734306 [Eh]
	 Correlation Energy        =      -1.8575326973387418 [Eh]
	 Total Energy              =   -5415.4181699992368522 [Eh]

	 ================> DF-SCS-MP2 Energies <==================
	-----------------------------------------------------------
	 SCS Same-Spin Scale       =       0.3333333333333333 [-]
	 SCS Opposite-Spin Scale   =       1.2000000000000000 [-]
	 SCS Same-Spin Energy      =      -0.1632392063217704 [Eh]
	 SCS Opposite-Spin Energy  =      -1.6413780940481166 [Eh]
	 SCS Correlation Energy    =      -1.8046173003698871 [Eh]
	 SCS Total Energy          =   -5415.3652546022676688 [Eh]
	-----------------------------------------------------------

  Dipole Moment: [D]
     X:    -0.5136      Y:     1.8614      Z:     0.0363     Total:     1.9313

*** Psi4 exiting successfully. Buy a developer a beer!
