                               Psi4 1.4a3.dev225

  ==> Input File <==

--------------------------------------------------------------------------
#psi4
#
memory 32 gb

molecule  {
0 1
 Br        2.8426960    -0.9006560     0.0010230
 Br       -2.8426960    -0.9006560     0.0010230
  C        0.0000000     2.1518200    -0.0164640
  C       -1.2077220     1.4432500    -0.0102500
  C        1.2077220     1.4432500    -0.0102500
  C        0.0000000     3.6581740     0.0136870
  C        1.1643642     0.0905854    -0.0010822
  C       -1.1904140     0.0494850    -0.0007470
  C        0.0000000    -0.6761360     0.0051700
  H       -2.1574180     1.9720780    -0.0184260
  H        2.1574190     1.9720770    -0.0184250
  H        0.0000100     4.0273730     1.0446560
  H        0.8857670     4.0597820    -0.4855720
  H       -0.8857760     4.0597820    -0.4855540
  H       -0.0000010    -1.7611180     0.0093060
units angstrom
no_reorient  #important for SAPT in psi4, default
symmetry c1  #important for SAPT in psi4, default
}

set PROPERTIES_ORIGIN ["COM"]
properties('MP2/aug-cc-pvtz', properties = ['dipole'])
--------------------------------------------------------------------------

    Molecular point group: c1
  Charge       = 0
  Multiplicity = 1
  Basis Set: AUG-CC-PVTZ
    Blend: AUG-CC-PVTZ
  Basis Set: (AUG-CC-PVTZ AUX)
    Blend: AUG-CC-PVTZ-JKFIT

    Orbital Energies [Eh]
    ---------------------

    Doubly Occupied:

       1A   -490.032665     2A   -490.027512     3A    -65.172382
       4A    -65.167086     5A    -58.527704     6A    -58.526301
       7A    -58.526270     8A    -58.522424     9A    -58.521008
      10A    -58.520983    11A    -11.316396    12A    -11.314568
      13A    -11.274437    14A    -11.266323    15A    -11.259316
      16A    -11.256186    17A    -11.243986    18A     -9.845088
      19A     -9.839538    20A     -7.456717    21A     -7.451052
      22A     -7.449861    23A     -7.449803    24A     -7.444302
      25A     -7.444280    26A     -3.200503    27A     -3.196944
      28A     -3.196719    29A     -3.194777    30A     -3.191332
      31A     -3.191160    32A     -3.187966    33A     -3.187957
      34A     -3.182461    35A     -3.182451    36A     -1.200151
      37A     -1.096073    38A     -1.086771    39A     -1.002438
      40A     -0.979923    41A     -0.961706    42A     -0.817479
      43A     -0.815207    44A     -0.712543    45A     -0.681132
      46A     -0.606460    47A     -0.599666    48A     -0.590805
      49A     -0.583923    50A     -0.560547    51A     -0.544527
      52A     -0.511933    53A     -0.483331    54A     -0.465934
      55A     -0.425187    56A     -0.422377    57A     -0.418031
      58A     -0.346157    59A     -0.345327

  @DF-RHF Final Energy: -5413.58138437414618

   => Energetics <=

    Nuclear Repulsion Energy =            881.2815707329863244
    One-Electron Energy =               -9283.6737325920184958
    Two-Electron Energy =                2988.8107774848858753
    Total Energy =                      -5413.5813843741461824
  Basis Set: (AUG-CC-PVTZ AUX)
    Blend: AUG-CC-PVTZ-RI
    Molecular point group: c1

    Geometry (in Angstrom), charge = 0, multiplicity = 1:

       Center              X                  Y                   Z               Mass
    ------------   -----------------  -----------------  -----------------  -----------------
         BR           2.843957061886    -0.780481457679     0.001149763707    78.918337600000
         BR          -2.841434938114    -0.780481457679     0.001149763707    78.918337600000
         C            0.001261061886     2.271994542321    -0.016337236293    12.000000000000
         C           -1.206460938114     1.563424542321    -0.010123236293    12.000000000000
         C            1.208983061886     1.563424542321    -0.010123236293    12.000000000000
         C            0.001261061886     3.778348542321     0.013813763707    12.000000000000
         C            1.165625261886     0.210759942321    -0.000955436293    12.000000000000
         C           -1.189152938114     0.169659542321    -0.000620236293    12.000000000000
         C            0.001261061886    -0.555961457679     0.005296763707    12.000000000000
         H           -2.156156938114     2.092252542321    -0.018299236293     1.007825032230
         H            2.158680061886     2.092251542321    -0.018298236293     1.007825032230
         H            0.001271061886     4.147547542321     1.044782763707     1.007825032230
         H            0.887028061886     4.179956542321    -0.485445236293     1.007825032230
         H           -0.884514938114     4.179956542321    -0.485427236293     1.007825032230
         H            0.001260061886    -1.640943457679     0.009432763707     1.007825032230

  Basis Set: AUG-CC-PVTZ
    Blend: AUG-CC-PVTZ
  Basis Set: (AUG-CC-PVTZ AUX)
    Blend: AUG-CC-PVTZ-JKFIT
	 Reference Energy          =   -5413.5813843741461824 [Eh]
	 Singles Energy            =      -0.0000000000000000 [Eh]
	 Same-Spin Energy          =      -0.4876967432306352 [Eh]
	 Opposite-Spin Energy      =      -1.3636750906237660 [Eh]
	 Correlation Energy        =      -1.8513718338544012 [Eh]
	 Total Energy              =   -5415.4327562080006828 [Eh]

	 ================> DF-SCS-MP2 Energies <==================
	-----------------------------------------------------------
	 SCS Same-Spin Scale       =       0.3333333333333333 [-]
	 SCS Opposite-Spin Scale   =       1.2000000000000000 [-]
	 SCS Same-Spin Energy      =      -0.1625655810768784 [Eh]
	 SCS Opposite-Spin Energy  =      -1.6364101087485192 [Eh]
	 SCS Correlation Energy    =      -1.7989756898253977 [Eh]
	 SCS Total Energy          =   -5415.3803600639712386 [Eh]
	-----------------------------------------------------------

  Dipole Moment: [D]
     X:    -0.1895      Y:     2.3041      Z:     0.0367     Total:     2.3122

*** Psi4 exiting successfully. Buy a developer a beer!
