                               Psi4 1.4a3.dev225

  ==> Input File <==

--------------------------------------------------------------------------
#psi4
#
memory 32 gb

molecule  {
0 1
 Br        2.8426960    -0.9006560     0.0010230
 Br       -2.8426960    -0.9006560     0.0010230
  C        0.0000000     2.1518200    -0.0164640
  C       -1.2077220     1.4432500    -0.0102500
  C        1.2077220     1.4432500    -0.0102500
  C        0.0000000     3.6581740     0.0136870
  C        1.1904140     0.0494840    -0.0007470
  C       -1.1904140     0.0494850    -0.0007470
  C        0.0000000    -0.6761360     0.0051700
  H       -2.1574180     1.9720780    -0.0184260
  H        2.1574190     1.9720770    -0.0184250
  H        0.0000098     4.0206301     1.0258269
  H        0.8857670     4.0597820    -0.4855720
  H       -0.8857760     4.0597820    -0.4855540
  H       -0.0000010    -1.7611180     0.0093060
units angstrom
no_reorient  #important for SAPT in psi4, default
symmetry c1  #important for SAPT in psi4, default
}

set PROPERTIES_ORIGIN ["COM"]
properties('MP2/aug-cc-pvtz', properties = ['dipole'])
--------------------------------------------------------------------------

    Molecular point group: c1
  Charge       = 0
  Multiplicity = 1
  Basis Set: AUG-CC-PVTZ
    Blend: AUG-CC-PVTZ
  Basis Set: (AUG-CC-PVTZ AUX)
    Blend: AUG-CC-PVTZ-JKFIT

    Orbital Energies [Eh]
    ---------------------

    Doubly Occupied:

       1A   -490.031935     2A   -490.031935     3A    -65.171642
       4A    -65.171642     5A    -58.526967     6A    -58.526967
       7A    -58.525561     8A    -58.525560     9A    -58.525531
      10A    -58.525531    11A    -11.314915    12A    -11.314906
      13A    -11.272365    14A    -11.264707    15A    -11.258787
      16A    -11.258725    17A    -11.240537    18A     -9.844341
      19A     -9.844341    20A     -7.455976    21A     -7.455976
      22A     -7.449106    23A     -7.449106    24A     -7.449056
      25A     -7.449056    26A     -3.199767    27A     -3.199766
      28A     -3.196202    29A     -3.196201    30A     -3.195982
      31A     -3.195981    32A     -3.187209    33A     -3.187209
      34A     -3.187200    35A     -3.187200    36A     -1.194978
      37A     -1.095102    38A     -1.088694    39A     -1.004520
      40A     -0.976743    41A     -0.960526    42A     -0.816305
      43A     -0.813856    44A     -0.709003    45A     -0.677473
      46A     -0.604761    47A     -0.600597    48A     -0.588475
      49A     -0.582970    50A     -0.559830    51A     -0.542718
      52A     -0.510630    53A     -0.491271    54A     -0.467240
      55A     -0.425959    56A     -0.423315    57A     -0.419816
      58A     -0.345787    59A     -0.339707

  @DF-RHF Final Energy: -5413.58303312080716

   => Energetics <=

    Nuclear Repulsion Energy =            881.7008522373804453
    One-Electron Energy =               -9284.4514423087730393
    Two-Electron Energy =                2989.1675569505864587
    Total Energy =                      -5413.5830331208071584
  Basis Set: (AUG-CC-PVTZ AUX)
    Blend: AUG-CC-PVTZ-RI
    Molecular point group: c1

    Geometry (in Angstrom), charge = 0, multiplicity = 1:

       Center              X                  Y                   Z               Mass
    ------------   -----------------  -----------------  -----------------  -----------------
         BR           2.842695996747    -0.778464331850     0.001210090557    78.918337600000
         BR          -2.842696003253    -0.778464331850     0.001210090557    78.918337600000
         C           -0.000000003253     2.274011668150    -0.016276909443    12.000000000000
         C           -1.207722003253     1.565441668150    -0.010062909443    12.000000000000
         C            1.207721996747     1.565441668150    -0.010062909443    12.000000000000
         C           -0.000000003253     3.780365668150     0.013874090557    12.000000000000
         C            1.190413996747     0.171675668150    -0.000559909443    12.000000000000
         C           -1.190414003253     0.171676668150    -0.000559909443    12.000000000000
         C           -0.000000003253    -0.553944331850     0.005357090557    12.000000000000
         H           -2.157418003253     2.094269668150    -0.018238909443     1.007825032230
         H            2.157418996747     2.094268668150    -0.018237909443     1.007825032230
         H            0.000009796747     4.142821768150     1.026013990557     1.007825032230
         H            0.885766996747     4.181973668150    -0.485384909443     1.007825032230
         H           -0.885776003253     4.181973668150    -0.485366909443     1.007825032230
         H           -0.000001003253    -1.638926331850     0.009493090557     1.007825032230

  Basis Set: AUG-CC-PVTZ
    Blend: AUG-CC-PVTZ
  Basis Set: (AUG-CC-PVTZ AUX)
    Blend: AUG-CC-PVTZ-JKFIT
	 Reference Energy          =   -5413.5830331208071584 [Eh]
	 Singles Energy            =      -0.0000000000000000 [Eh]
	 Same-Spin Energy          =      -0.4880385489717152 [Eh]
	 Opposite-Spin Energy      =      -1.3641748659147399 [Eh]
	 Correlation Energy        =      -1.8522134148864551 [Eh]
	 Total Energy              =   -5415.4352465356932953 [Eh]

	 ================> DF-SCS-MP2 Energies <==================
	-----------------------------------------------------------
	 SCS Same-Spin Scale       =       0.3333333333333333 [-]
	 SCS Opposite-Spin Scale   =       1.2000000000000000 [-]
	 SCS Same-Spin Energy      =      -0.1626795163239050 [Eh]
	 SCS Opposite-Spin Energy  =      -1.6370098390976879 [Eh]
	 SCS Correlation Energy    =      -1.7996893554215929 [Eh]
	 SCS Total Energy          =   -5415.3827224762289916 [Eh]
	-----------------------------------------------------------

  Dipole Moment: [D]
     X:     0.0000      Y:     2.1857      Z:     0.0415     Total:     2.1861

*** Psi4 exiting successfully. Buy a developer a beer!
