                               Psi4 1.4a3.dev225

  ==> Input File <==

--------------------------------------------------------------------------
#psi4
#
memory 32 gb

molecule  {
0 1
 Br        2.8426960    -0.9006560     0.0010230
 Br       -2.8426960    -0.9006560     0.0010230
  C        0.0000000     2.1518200    -0.0164640
  C       -1.2077220     1.4432500    -0.0102500
  C        1.2077220     1.4432500    -0.0102500
  C        0.0000000     3.6581740     0.0136870
  C        1.1904140     0.0494840    -0.0007470
  C       -1.1904140     0.0494850    -0.0007470
  C        0.0000000    -0.6761360     0.0051700
  H       -2.1399449     1.9623483    -0.0182756
  H        2.1574190     1.9720770    -0.0184250
  H        0.0000100     4.0273730     1.0446560
  H        0.8857670     4.0597820    -0.4855720
  H       -0.8857760     4.0597820    -0.4855540
  H       -0.0000010    -1.7611180     0.0093060
units angstrom
no_reorient  #important for SAPT in psi4, default
symmetry c1  #important for SAPT in psi4, default
}

set PROPERTIES_ORIGIN ["COM"]
properties('MP2/aug-cc-pvtz', properties = ['dipole'])
--------------------------------------------------------------------------

    Molecular point group: c1
  Charge       = 0
  Multiplicity = 1
  Basis Set: AUG-CC-PVTZ
    Blend: AUG-CC-PVTZ
  Basis Set: (AUG-CC-PVTZ AUX)
    Blend: AUG-CC-PVTZ-JKFIT

    Orbital Energies [Eh]
    ---------------------

    Doubly Occupied:

       1A   -490.031985     2A   -490.031935     3A    -65.171693
       4A    -65.171643     5A    -58.527018     6A    -58.526968
       7A    -58.525612     8A    -58.525582     9A    -58.525561
      10A    -58.525531    11A    -11.314918    12A    -11.314819
      13A    -11.272350    14A    -11.264658    15A    -11.258712
      16A    -11.256586    17A    -11.242949    18A     -9.844392
      19A     -9.844342    20A     -7.456025    21A     -7.455976
      22A     -7.449158    23A     -7.449109    24A     -7.449107
      25A     -7.449057    26A     -3.199815    27A     -3.199767
      28A     -3.196250    29A     -3.196202    30A     -3.196032
      31A     -3.195982    32A     -3.187263    33A     -3.187254
      34A     -3.187210    35A     -3.187200    36A     -1.195048
      37A     -1.095305    38A     -1.088476    39A     -1.004315
      40A     -0.977395    41A     -0.959484    42A     -0.817133
      43A     -0.813426    44A     -0.711147    45A     -0.677495
      46A     -0.604138    47A     -0.598003    48A     -0.589565
      49A     -0.584398    50A     -0.560142    51A     -0.541941
      52A     -0.510689    53A     -0.491559    54A     -0.467256
      55A     -0.425981    56A     -0.423197    57A     -0.419843
      58A     -0.345632    59A     -0.339704

  @DF-RHF Final Energy: -5413.58317263318349

   => Energetics <=

    Nuclear Repulsion Energy =            881.7254796471914915
    One-Electron Energy =               -9284.4974349877884379
    Two-Electron Energy =                2989.1887827074128836
    Total Energy =                      -5413.5831726331834943
  Basis Set: (AUG-CC-PVTZ AUX)
    Blend: AUG-CC-PVTZ-RI
    Molecular point group: c1

    Geometry (in Angstrom), charge = 0, multiplicity = 1:

       Center              X                  Y                   Z               Mass
    ------------   -----------------  -----------------  -----------------  -----------------
         BR           2.842624955229    -0.778452188362     0.001132925253    78.918337600000
         BR          -2.842767044771    -0.778452188362     0.001132925253    78.918337600000
         C           -0.000071044771     2.274023811638    -0.016354074747    12.000000000000
         C           -1.207793044771     1.565453811638    -0.010140074747    12.000000000000
         C            1.207650955229     1.565453811638    -0.010140074747    12.000000000000
         C           -0.000071044771     3.780377811638     0.013796925253    12.000000000000
         C            1.190342955229     0.171687811638    -0.000637074747    12.000000000000
         C           -1.190485044771     0.171688811638    -0.000637074747    12.000000000000
         C           -0.000071044771    -0.553932188362     0.005279925253    12.000000000000
         H           -2.140015944771     2.084552111638    -0.018165674747     1.007825032230
         H            2.157347955229     2.094280811638    -0.018315074747     1.007825032230
         H           -0.000061044771     4.149576811638     1.044765925253     1.007825032230
         H            0.885695955229     4.181985811638    -0.485462074747     1.007825032230
         H           -0.885847044771     4.181985811638    -0.485444074747     1.007825032230
         H           -0.000072044771    -1.638914188362     0.009415925253     1.007825032230

  Basis Set: AUG-CC-PVTZ
    Blend: AUG-CC-PVTZ
  Basis Set: (AUG-CC-PVTZ AUX)
    Blend: AUG-CC-PVTZ-JKFIT
	 Reference Energy          =   -5413.5831726331834943 [Eh]
	 Singles Energy            =      -0.0000000000000000 [Eh]
	 Same-Spin Energy          =      -0.4879777336388298 [Eh]
	 Opposite-Spin Energy      =      -1.3641445427565224 [Eh]
	 Correlation Energy        =      -1.8521222763953522 [Eh]
	 Total Energy              =   -5415.4352949095791701 [Eh]

	 ================> DF-SCS-MP2 Energies <==================
	-----------------------------------------------------------
	 SCS Same-Spin Scale       =       0.3333333333333333 [-]
	 SCS Opposite-Spin Scale   =       1.2000000000000000 [-]
	 SCS Same-Spin Energy      =      -0.1626592445462766 [Eh]
	 SCS Opposite-Spin Energy  =      -1.6369734513078269 [Eh]
	 SCS Correlation Energy    =      -1.7996326958541036 [Eh]
	 SCS Total Energy          =   -5415.3828053290371827 [Eh]
	-----------------------------------------------------------

  Dipole Moment: [D]
     X:    -0.0009      Y:     2.1802      Z:     0.0365     Total:     2.1805

*** Psi4 exiting successfully. Buy a developer a beer!
