                               Psi4 1.4a3.dev225

  ==> Input File <==

--------------------------------------------------------------------------
#psi4
#
memory 32 gb

molecule  {
0 1
 Br        2.8426960    -0.9006560     0.0010230
 Br       -2.8426960    -0.9006560     0.0010230
  C        0.0000000     2.1518200    -0.0164640
  C       -1.3049062     1.4386470    -0.0102984
  C        1.2077220     1.4432500    -0.0102500
  C        0.0000000     3.6581740     0.0136870
  C        1.1904140     0.0494840    -0.0007470
  C       -1.1904140     0.0494850    -0.0007470
  C        0.0000000    -0.6761360     0.0051700
  H       -2.1574180     1.9720780    -0.0184260
  H        2.1574190     1.9720770    -0.0184250
  H        0.0000100     4.0273730     1.0446560
  H        0.8857670     4.0597820    -0.4855720
  H       -0.8857760     4.0597820    -0.4855540
  H       -0.0000010    -1.7611180     0.0093060
units angstrom
no_reorient  #important for SAPT in psi4, default
symmetry c1  #important for SAPT in psi4, default
}

set PROPERTIES_ORIGIN ["COM"]
properties('MP2/aug-cc-pvtz', properties = ['dipole'])
--------------------------------------------------------------------------

    Molecular point group: c1
  Charge       = 0
  Multiplicity = 1
  Basis Set: AUG-CC-PVTZ
    Blend: AUG-CC-PVTZ
  Basis Set: (AUG-CC-PVTZ AUX)
    Blend: AUG-CC-PVTZ-JKFIT

    Orbital Energies [Eh]
    ---------------------

    Doubly Occupied:

       1A   -490.033396     2A   -490.027711     3A    -65.173101
       4A    -65.167551     5A    -58.528425     6A    -58.527020
       7A    -58.526984     8A    -58.522842     9A    -58.521475
      10A    -58.521445    11A    -11.318015    12A    -11.317636
      13A    -11.283214    14A    -11.264950    15A    -11.262090
      16A    -11.258731    17A    -11.243411    18A     -9.845799
      19A     -9.840374    20A     -7.457432    21A     -7.451942
      22A     -7.450573    23A     -7.450494    24A     -7.445204
      25A     -7.445163    26A     -3.201227    27A     -3.197672
      28A     -3.197421    29A     -3.195664    30A     -3.192168
      31A     -3.191959    32A     -3.188661    33A     -3.188651
      34A     -3.183383    35A     -3.183372    36A     -1.190003
      37A     -1.097212    38A     -1.082864    39A     -1.003766
      40A     -0.977151    41A     -0.959737    42A     -0.822622
      43A     -0.804075    44A     -0.720113    45A     -0.674146
      46A     -0.609120    47A     -0.600564    48A     -0.596094
      49A     -0.585778    50A     -0.559634    51A     -0.540924
      52A     -0.511290    53A     -0.483371    54A     -0.467475
      55A     -0.425262    56A     -0.419479    57A     -0.417951
      58A     -0.344228    59A     -0.337627

  @DF-RHF Final Energy: -5413.56970951603580

   => Energetics <=

    Nuclear Repulsion Energy =            880.5756898985016505
    One-Electron Energy =               -9282.2195113008147018
    Two-Electron Energy =                2988.0741118862779331
    Total Energy =                      -5413.5697095160348908
  Basis Set: (AUG-CC-PVTZ AUX)
    Blend: AUG-CC-PVTZ-RI
    Molecular point group: c1

    Geometry (in Angstrom), charge = 0, multiplicity = 1:

       Center              X                  Y                   Z               Mass
    ------------   -----------------  -----------------  -----------------  -----------------
         BR           2.847400664902    -0.778268916213     0.001135879772    78.918337600000
         BR          -2.837991335098    -0.778268916213     0.001135879772    78.918337600000
         C            0.004704664902     2.274207083787    -0.016351120228    12.000000000000
         C           -1.300201535098     1.561034083787    -0.010185520228    12.000000000000
         C            1.212426664902     1.565637083787    -0.010137120228    12.000000000000
         C            0.004704664902     3.780561083787     0.013799879772    12.000000000000
         C            1.195118664902     0.171871083787    -0.000634120228    12.000000000000
         C           -1.185709335098     0.171872083787    -0.000634120228    12.000000000000
         C            0.004704664902    -0.553748916213     0.005282879772    12.000000000000
         H           -2.152713335098     2.094465083787    -0.018313120228     1.007825032230
         H            2.162123664902     2.094464083787    -0.018312120228     1.007825032230
         H            0.004714664902     4.149760083787     1.044768879772     1.007825032230
         H            0.890471664902     4.182169083787    -0.485459120228     1.007825032230
         H           -0.881071335098     4.182169083787    -0.485441120228     1.007825032230
         H            0.004703664902    -1.638730916213     0.009418879772     1.007825032230

  Basis Set: AUG-CC-PVTZ
    Blend: AUG-CC-PVTZ
  Basis Set: (AUG-CC-PVTZ AUX)
    Blend: AUG-CC-PVTZ-JKFIT
	 Reference Energy          =   -5413.5697095160358003 [Eh]
	 Singles Energy            =      -0.0000000000000000 [Eh]
	 Same-Spin Energy          =      -0.4881374076951938 [Eh]
	 Opposite-Spin Energy      =      -1.3651010647222162 [Eh]
	 Correlation Energy        =      -1.8532384724174100 [Eh]
	 Total Energy              =   -5415.4229479884534157 [Eh]

	 ================> DF-SCS-MP2 Energies <==================
	-----------------------------------------------------------
	 SCS Same-Spin Scale       =       0.3333333333333333 [-]
	 SCS Opposite-Spin Scale   =       1.2000000000000000 [-]
	 SCS Same-Spin Energy      =      -0.1627124692317313 [Eh]
	 SCS Opposite-Spin Energy  =      -1.6381212776666594 [Eh]
	 SCS Correlation Energy    =      -1.8008337468983906 [Eh]
	 SCS Total Energy          =   -5415.3705432629340066 [Eh]
	-----------------------------------------------------------

  Dipole Moment: [D]
     X:     0.1362      Y:     2.2772      Z:     0.0382     Total:     2.2816

*** Psi4 exiting successfully. Buy a developer a beer!
