                               Psi4 1.4a3.dev225

  ==> Input File <==

--------------------------------------------------------------------------
#psi4
#
memory 32 gb

molecule  {
0 1
 Br        2.8426960    -0.9006560     0.0010230
 Br       -2.8426960    -0.9006560     0.0010230
  C        0.0000000     2.1518200    -0.0164640
  C       -1.2077220     1.4432500    -0.0102500
  C        1.1553783     1.3607512    -0.0127853
  C        0.0000000     3.6581740     0.0136870
  C        1.1904140     0.0494840    -0.0007470
  C       -1.1904140     0.0494850    -0.0007470
  C        0.0000000    -0.6761360     0.0051700
  H       -2.1574180     1.9720780    -0.0184260
  H        2.1574190     1.9720770    -0.0184250
  H        0.0000100     4.0273730     1.0446560
  H        0.8857670     4.0597820    -0.4855720
  H       -0.8857760     4.0597820    -0.4855540
  H       -0.0000010    -1.7611180     0.0093060
units angstrom
no_reorient  #important for SAPT in psi4, default
symmetry c1  #important for SAPT in psi4, default
}

set PROPERTIES_ORIGIN ["COM"]
properties('MP2/aug-cc-pvtz', properties = ['dipole'])
--------------------------------------------------------------------------

    Molecular point group: c1
  Charge       = 0
  Multiplicity = 1
  Basis Set: AUG-CC-PVTZ
    Blend: AUG-CC-PVTZ
  Basis Set: (AUG-CC-PVTZ AUX)
    Blend: AUG-CC-PVTZ-JKFIT

    Orbital Energies [Eh]
    ---------------------

    Doubly Occupied:

       1A   -490.032892     2A   -490.030940     3A    -65.172573
       4A    -65.170646     5A    -58.527916     6A    -58.526479
       7A    -58.526453     8A    -58.525973     9A    -58.524563
      10A    -58.524538    11A    -11.312647    12A    -11.304508
      13A    -11.272667    14A    -11.264411    15A    -11.258474
      16A    -11.256458    17A    -11.245822    18A     -9.845237
      19A     -9.843342    20A     -7.456933    21A     -7.454982
      22A     -7.449948    23A     -7.449907    24A     -7.448098
      25A     -7.448069    26A     -3.200753    27A     -3.198773
      28A     -3.197130    29A     -3.196920    30A     -3.195196
      31A     -3.194998    32A     -3.188000    33A     -3.187991
      34A     -3.186208    35A     -3.186199    36A     -1.203532
      37A     -1.100220    38A     -1.087064    39A     -1.006175
      40A     -0.978666    41A     -0.961101    42A     -0.825375
      43A     -0.810153    44A     -0.700503    45A     -0.682122
      46A     -0.606733    47A     -0.600014    48A     -0.587238
      49A     -0.564090    50A     -0.561454    51A     -0.547662
      52A     -0.519522    53A     -0.480862    54A     -0.469655
      55A     -0.426655    56A     -0.424117    57A     -0.419594
      58A     -0.347067    59A     -0.342647

  @DF-RHF Final Energy: -5413.57112997800141

   => Energetics <=

    Nuclear Repulsion Energy =            883.7432004427868151
    One-Electron Energy =               -9288.5109195426830411
    Two-Electron Energy =                2991.1965891218956131
    Total Energy =                      -5413.5711299780014087
  Basis Set: (AUG-CC-PVTZ AUX)
    Blend: AUG-CC-PVTZ-RI
    Molecular point group: c1

    Geometry (in Angstrom), charge = 0, multiplicity = 1:

       Center              X                  Y                   Z               Mass
    ------------   -----------------  -----------------  -----------------  -----------------
         BR           2.845229944673    -0.774497995086     0.001256270137    78.918337600000
         BR          -2.840162055327    -0.774497995086     0.001256270137    78.918337600000
         C            0.002533944673     2.277978004914    -0.016230729863    12.000000000000
         C           -1.205188055327     1.569408004914    -0.010016729863    12.000000000000
         C            1.157912244673     1.486909204914    -0.012552029863    12.000000000000
         C            0.002533944673     3.784332004914     0.013920270137    12.000000000000
         C            1.192947944673     0.175642004914    -0.000513729863    12.000000000000
         C           -1.187880055327     0.175643004914    -0.000513729863    12.000000000000
         C            0.002533944673    -0.549977995086     0.005403270137    12.000000000000
         H           -2.154884055327     2.098236004914    -0.018192729863     1.007825032230
         H            2.159952944673     2.098235004914    -0.018191729863     1.007825032230
         H            0.002543944673     4.153531004914     1.044889270137     1.007825032230
         H            0.888300944673     4.185940004914    -0.485338729863     1.007825032230
         H           -0.883242055327     4.185940004914    -0.485320729863     1.007825032230
         H            0.002532944673    -1.634959995086     0.009539270137     1.007825032230

  Basis Set: AUG-CC-PVTZ
    Blend: AUG-CC-PVTZ
  Basis Set: (AUG-CC-PVTZ AUX)
    Blend: AUG-CC-PVTZ-JKFIT
	 Reference Energy          =   -5413.5711299780014087 [Eh]
	 Singles Energy            =      -0.0000000000000000 [Eh]
	 Same-Spin Energy          =      -0.4882190864693567 [Eh]
	 Opposite-Spin Energy      =      -1.3645446904111822 [Eh]
	 Correlation Energy        =      -1.8527637768805389 [Eh]
	 Total Energy              =   -5415.4238937548816466 [Eh]

	 ================> DF-SCS-MP2 Energies <==================
	-----------------------------------------------------------
	 SCS Same-Spin Scale       =       0.3333333333333333 [-]
	 SCS Opposite-Spin Scale   =       1.2000000000000000 [-]
	 SCS Same-Spin Energy      =      -0.1627396954897856 [Eh]
	 SCS Opposite-Spin Energy  =      -1.6374536284934187 [Eh]
	 SCS Correlation Energy    =      -1.8001933239832042 [Eh]
	 SCS Total Energy          =   -5415.3713233019843756 [Eh]
	-----------------------------------------------------------

  Dipole Moment: [D]
     X:    -0.0071      Y:     2.2308      Z:     0.0385     Total:     2.2311

*** Psi4 exiting successfully. Buy a developer a beer!
