                               Psi4 1.4a3.dev225

  ==> Input File <==

--------------------------------------------------------------------------
#psi4
#
memory 32 gb

molecule  {
0 1
 Br        2.8426960    -0.9006560     0.0010230
 Br       -2.8426960    -0.9006560     0.0010230
  C        0.0000000     2.1518200    -0.0164640
  C       -1.2077220     1.4432500    -0.0102500
  C        1.2077220     1.4432500    -0.0102500
  C        0.0000000     3.6581740     0.0136870
  C        1.1904140     0.0494840    -0.0007470
  C       -1.1904140     0.0494850    -0.0007470
  C        0.0000000    -0.6761360     0.0051700
  H       -2.1574180     1.9720780    -0.0184260
  H        2.1574190     1.9720770    -0.0184250
  H        0.0000100     4.0273730     1.0446560
  H        0.8047434     4.0230458    -0.4399034
  H       -0.8857760     4.0597820    -0.4855540
  H       -0.0000010    -1.7611180     0.0093060
units angstrom
no_reorient  #important for SAPT in psi4, default
symmetry c1  #important for SAPT in psi4, default
}

set PROPERTIES_ORIGIN ["COM"]
properties('MP2/aug-cc-pvtz', properties = ['dipole'])
--------------------------------------------------------------------------

    Molecular point group: c1
  Charge       = 0
  Multiplicity = 1
  Basis Set: AUG-CC-PVTZ
    Blend: AUG-CC-PVTZ
  Basis Set: (AUG-CC-PVTZ AUX)
    Blend: AUG-CC-PVTZ-JKFIT

    Orbital Energies [Eh]
    ---------------------

    Doubly Occupied:

       1A   -490.031880     2A   -490.031741     3A    -65.171588
       4A    -65.171449     5A    -58.526913     6A    -58.526773
       7A    -58.525506     8A    -58.525476     9A    -58.525368
      10A    -58.525338    11A    -11.314860    12A    -11.314667
      13A    -11.271799    14A    -11.264531    15A    -11.258748
      16A    -11.258254    17A    -11.230741    18A     -9.844286
      19A     -9.844148    20A     -7.455920    21A     -7.455781
      22A     -7.449052    23A     -7.449003    24A     -7.448915
      25A     -7.448864    26A     -3.199711    27A     -3.199571
      28A     -3.196146    29A     -3.196008    30A     -3.195926
      31A     -3.195787    32A     -3.187156    33A     -3.187147
      34A     -3.187019    35A     -3.187010    36A     -1.194883
      37A     -1.094958    38A     -1.090138    39A     -1.005640
      40A     -0.976625    41A     -0.966128    42A     -0.817114
      43A     -0.815478    44A     -0.709001    45A     -0.679143
      46A     -0.608482    47A     -0.600269    48A     -0.588446
      49A     -0.583027    50A     -0.570649    51A     -0.542197
      52A     -0.510372    53A     -0.491559    54A     -0.467114
      55A     -0.425830    56A     -0.423162    57A     -0.419710
      58A     -0.345585    59A     -0.339559

  @DF-RHF Final Energy: -5413.57701314862334

   => Energetics <=

    Nuclear Repulsion Energy =            882.0922863899291997
    One-Electron Energy =               -9285.2022983187926002
    Two-Electron Energy =                2989.5329987802410869
    Total Energy =                      -5413.5770131486224273
  Basis Set: (AUG-CC-PVTZ AUX)
    Blend: AUG-CC-PVTZ-RI
    Molecular point group: c1

    Geometry (in Angstrom), charge = 0, multiplicity = 1:

       Center              X                  Y                   Z               Mass
    ------------   -----------------  -----------------  -----------------  -----------------
         BR           2.843025415081    -0.778342387536     0.000947861067    78.918337600000
         BR          -2.842366584919    -0.778342387536     0.000947861067    78.918337600000
         C            0.000329415081     2.274133612464    -0.016539138933    12.000000000000
         C           -1.207392584919     1.565563612464    -0.010325138933    12.000000000000
         C            1.208051415081     1.565563612464    -0.010325138933    12.000000000000
         C            0.000329415081     3.780487612464     0.013611861067    12.000000000000
         C            1.190743415081     0.171797612464    -0.000822138933    12.000000000000
         C           -1.190084584919     0.171798612464    -0.000822138933    12.000000000000
         C            0.000329415081    -0.553822387536     0.005094861067    12.000000000000
         H           -2.157088584919     2.094391612464    -0.018501138933     1.007825032230
         H            2.157748415081     2.094390612464    -0.018500138933     1.007825032230
         H            0.000339415081     4.149686612464     1.044580861067     1.007825032230
         H            0.805072815081     4.145359412464    -0.439978538933     1.007825032230
         H           -0.885446584919     4.182095612464    -0.485629138933     1.007825032230
         H            0.000328415081    -1.638804387536     0.009230861067     1.007825032230

  Basis Set: AUG-CC-PVTZ
    Blend: AUG-CC-PVTZ
  Basis Set: (AUG-CC-PVTZ AUX)
    Blend: AUG-CC-PVTZ-JKFIT
	 Reference Energy          =   -5413.5770131486233367 [Eh]
	 Singles Energy            =      -0.0000000000000000 [Eh]
	 Same-Spin Energy          =      -0.4880399009196225 [Eh]
	 Opposite-Spin Energy      =      -1.3637859942418438 [Eh]
	 Correlation Energy        =      -1.8518258951614661 [Eh]
	 Total Energy              =   -5415.4288390437850467 [Eh]

	 ================> DF-SCS-MP2 Energies <==================
	-----------------------------------------------------------
	 SCS Same-Spin Scale       =       0.3333333333333333 [-]
	 SCS Opposite-Spin Scale   =       1.2000000000000000 [-]
	 SCS Same-Spin Energy      =      -0.1626799669732075 [Eh]
	 SCS Opposite-Spin Energy  =      -1.6365431930902126 [Eh]
	 SCS Correlation Energy    =      -1.7992231600634201 [Eh]
	 SCS Total Energy          =   -5415.3762363086871119 [Eh]
	-----------------------------------------------------------

  Dipole Moment: [D]
     X:     0.0244      Y:     2.2132      Z:     0.0248     Total:     2.2135

*** Psi4 exiting successfully. Buy a developer a beer!
