                               Psi4 1.4a3.dev225

  ==> Input File <==

--------------------------------------------------------------------------
#psi4
#
memory 32 gb

molecule  {
0 1
 Br        2.8426960    -0.9006560     0.0010230
 Br       -2.8426960    -0.9006560     0.0010230
  C        0.0228187     2.1523109    -0.0295229
  C       -1.2077220     1.4432500    -0.0102500
  C        1.2077220     1.4432500    -0.0102500
  C        0.0000000     3.6581740     0.0136870
  C        1.1904140     0.0494840    -0.0007470
  C       -1.1904140     0.0494850    -0.0007470
  C        0.0000000    -0.6761360     0.0051700
  H       -2.1574180     1.9720780    -0.0184260
  H        2.1574190     1.9720770    -0.0184250
  H        0.0000100     4.0273730     1.0446560
  H        0.8857670     4.0597820    -0.4855720
  H       -0.8857760     4.0597820    -0.4855540
  H       -0.0000010    -1.7611180     0.0093060
units angstrom
no_reorient  #important for SAPT in psi4, default
symmetry c1  #important for SAPT in psi4, default
}

set PROPERTIES_ORIGIN ["COM"]
properties('MP2/aug-cc-pvtz', properties = ['dipole'])
--------------------------------------------------------------------------

    Molecular point group: c1
  Charge       = 0
  Multiplicity = 1
  Basis Set: AUG-CC-PVTZ
    Blend: AUG-CC-PVTZ
  Basis Set: (AUG-CC-PVTZ AUX)
    Blend: AUG-CC-PVTZ-JKFIT

    Orbital Energies [Eh]
    ---------------------

    Doubly Occupied:

       1A   -490.032173     2A   -490.031774     3A    -65.171875
       4A    -65.171486     5A    -58.527202     6A    -58.526810
       7A    -58.525794     8A    -58.525763     9A    -58.525404
      10A    -58.525376    11A    -11.315207    12A    -11.314689
      13A    -11.272425    14A    -11.264871    15A    -11.260838
      16A    -11.256851    17A    -11.242924    18A     -9.844570
      19A     -9.844189    20A     -7.456207    21A     -7.455822
      22A     -7.449335    23A     -7.449281    24A     -7.448953
      25A     -7.448909    26A     -3.200001    27A     -3.199610
      28A     -3.196437    29A     -3.196210    30A     -3.196043
      31A     -3.195830    32A     -3.187433    33A     -3.187424
      34A     -3.187061    35A     -3.187052    36A     -1.195030
      37A     -1.095367    38A     -1.088283    39A     -1.004338
      40A     -0.976875    41A     -0.959175    42A     -0.817923
      43A     -0.811784    44A     -0.709015    45A     -0.677493
      46A     -0.604599    47A     -0.597737    48A     -0.588525
      49A     -0.582742    50A     -0.559998    51A     -0.541998
      52A     -0.510835    53A     -0.490777    54A     -0.467298
      55A     -0.426016    56A     -0.423251    57A     -0.419845
      58A     -0.346623    59A     -0.338951

  @DF-RHF Final Energy: -5413.58225406116162

   => Energetics <=

    Nuclear Repulsion Energy =            881.5928361858100288
    One-Electron Energy =               -9284.2375629085308901
    Two-Electron Energy =                2989.0624726615606050
    Total Energy =                      -5413.5822540611607110
  Basis Set: (AUG-CC-PVTZ AUX)
    Blend: AUG-CC-PVTZ-RI
    Molecular point group: c1

    Geometry (in Angstrom), charge = 0, multiplicity = 1:

       Center              X                  Y                   Z               Mass
    ------------   -----------------  -----------------  -----------------  -----------------
         BR           2.841591346930    -0.778515510960     0.001765715647    78.918337600000
         BR          -2.843800653070    -0.778515510960     0.001765715647    78.918337600000
         C            0.021714046930     2.274451389040    -0.028780184353    12.000000000000
         C           -1.208826653070     1.565390489040    -0.009507284353    12.000000000000
         C            1.206617346930     1.565390489040    -0.009507284353    12.000000000000
         C           -0.001104653070     3.780314489040     0.014429715647    12.000000000000
         C            1.189309346930     0.171624489040    -0.000004284353    12.000000000000
         C           -1.191518653070     0.171625489040    -0.000004284353    12.000000000000
         C           -0.001104653070    -0.553995510960     0.005912715647    12.000000000000
         H           -2.158522653070     2.094218489040    -0.017683284353     1.007825032230
         H            2.156314346930     2.094217489040    -0.017682284353     1.007825032230
         H           -0.001094653070     4.149513489040     1.045398715647     1.007825032230
         H            0.884662346930     4.181922489040    -0.484829284353     1.007825032230
         H           -0.886880653070     4.181922489040    -0.484811284353     1.007825032230
         H           -0.001105653070    -1.638977510960     0.010048715647     1.007825032230

  Basis Set: AUG-CC-PVTZ
    Blend: AUG-CC-PVTZ
  Basis Set: (AUG-CC-PVTZ AUX)
    Blend: AUG-CC-PVTZ-JKFIT
	 Reference Energy          =   -5413.5822540611616205 [Eh]
	 Singles Energy            =      -0.0000000000000000 [Eh]
	 Same-Spin Energy          =      -0.4880255686842302 [Eh]
	 Opposite-Spin Energy      =      -1.3643312105971406 [Eh]
	 Correlation Energy        =      -1.8523567792813709 [Eh]
	 Total Energy              =   -5415.4346108404433835 [Eh]

	 ================> DF-SCS-MP2 Energies <==================
	-----------------------------------------------------------
	 SCS Same-Spin Scale       =       0.3333333333333333 [-]
	 SCS Opposite-Spin Scale   =       1.2000000000000000 [-]
	 SCS Same-Spin Energy      =      -0.1626751895614101 [Eh]
	 SCS Opposite-Spin Energy  =      -1.6371974527165687 [Eh]
	 SCS Correlation Energy    =      -1.7998726422779787 [Eh]
	 SCS Total Energy          =   -5415.3821267034400080 [Eh]
	-----------------------------------------------------------

  Dipole Moment: [D]
     X:     0.0130      Y:     2.1750      Z:     0.0402     Total:     2.1754

*** Psi4 exiting successfully. Buy a developer a beer!
