                               Psi4 1.4a3.dev225

  ==> Input File <==

--------------------------------------------------------------------------
#psi4
#
memory 32 gb

molecule  {
0 1
 Br        2.8426960    -0.9006560     0.0010230
 Br       -2.8426960    -0.9006560     0.0010230
  C        0.0000000     2.1518200    -0.0164640
  C       -1.2077220     1.4432500    -0.0102500
  C        1.2077220     1.4432500    -0.0102500
  C        0.0000000     3.6581740     0.0136870
  C        1.1904140     0.0494840    -0.0007470
  C       -1.1904140     0.0494850    -0.0007470
  C       -0.1707731    -0.5720407     0.0043212
  H       -2.1574180     1.9720780    -0.0184260
  H        2.1574190     1.9720770    -0.0184250
  H        0.0000100     4.0273730     1.0446560
  H        0.8857670     4.0597820    -0.4855720
  H       -0.8857760     4.0597820    -0.4855540
  H       -0.0000010    -1.7611180     0.0093060
units angstrom
no_reorient  #important for SAPT in psi4, default
symmetry c1  #important for SAPT in psi4, default
}

set PROPERTIES_ORIGIN ["COM"]
properties('MP2/aug-cc-pvtz', properties = ['dipole'])
--------------------------------------------------------------------------

    Molecular point group: c1
  Charge       = 0
  Multiplicity = 1
  Basis Set: AUG-CC-PVTZ
    Blend: AUG-CC-PVTZ
  Basis Set: (AUG-CC-PVTZ AUX)
    Blend: AUG-CC-PVTZ-JKFIT

    Orbital Energies [Eh]
    ---------------------

    Doubly Occupied:

       1A   -490.040390     2A   -490.027605     3A    -65.179847
       4A    -65.167440     5A    -58.535231     6A    -58.533751
       7A    -58.533724     8A    -58.522755     9A    -58.521336
      10A    -58.521313    11A    -11.321638    12A    -11.286151
      13A    -11.269527    14A    -11.260250    15A    -11.256860
      16A    -11.256159    17A    -11.241629    18A     -9.852329
      19A     -9.840227    20A     -7.464066    21A     -7.456960
      22A     -7.456915    23A     -7.451910    24A     -7.444956
      25A     -7.444932    26A     -3.207981    27A     -3.204294
      28A     -3.204073    29A     -3.195664    30A     -3.194945
      31A     -3.194937    32A     -3.192065    33A     -3.191882
      34A     -3.183050    35A     -3.183040    36A     -1.211435
      37A     -1.109811    38A     -1.082369    39A     -1.009292
      40A     -0.978002    41A     -0.958497    42A     -0.829704
      43A     -0.802104    44A     -0.697572    45A     -0.683728
      46A     -0.599501    47A     -0.596691    48A     -0.586540
      49A     -0.572863    50A     -0.558028    51A     -0.554440
      52A     -0.511969    53A     -0.472774    54A     -0.471305
      55A     -0.428157    56A     -0.423995    57A     -0.418810
      58A     -0.365953    59A     -0.330373

  @DF-RHF Final Energy: -5413.52153398262817

   => Energetics <=

    Nuclear Repulsion Energy =            883.6983469107990459
    One-Electron Energy =               -9288.2522711039546266
    Two-Electron Energy =                2991.0323902105269553
    Total Energy =                      -5413.5215339826281706
  Basis Set: (AUG-CC-PVTZ AUX)
    Blend: AUG-CC-PVTZ-RI
    Molecular point group: c1

    Geometry (in Angstrom), charge = 0, multiplicity = 1:

       Center              X                  Y                   Z               Mass
    ------------   -----------------  -----------------  -----------------  -----------------
         BR           2.850963089804    -0.783530980611     0.001174626987    78.918337600000
         BR          -2.834428910196    -0.783530980611     0.001174626987    78.918337600000
         C            0.008267089804     2.268945019389    -0.016312373013    12.000000000000
         C           -1.199454910196     1.560375019389    -0.010098373013    12.000000000000
         C            1.215989089804     1.560375019389    -0.010098373013    12.000000000000
         C            0.008267089804     3.775299019389     0.013838626987    12.000000000000
         C            1.198681089804     0.166609019389    -0.000595373013    12.000000000000
         C           -1.182146910196     0.166610019389    -0.000595373013    12.000000000000
         C           -0.162506010196    -0.454915680611     0.004472826987    12.000000000000
         H           -2.149150910196     2.089203019389    -0.018274373013     1.007825032230
         H            2.165686089804     2.089202019389    -0.018273373013     1.007825032230
         H            0.008277089804     4.144498019389     1.044807626987     1.007825032230
         H            0.894034089804     4.176907019389    -0.485420373013     1.007825032230
         H           -0.877508910196     4.176907019389    -0.485402373013     1.007825032230
         H            0.008266089804    -1.643992980611     0.009457626987     1.007825032230

  Basis Set: AUG-CC-PVTZ
    Blend: AUG-CC-PVTZ
  Basis Set: (AUG-CC-PVTZ AUX)
    Blend: AUG-CC-PVTZ-JKFIT
	 Reference Energy          =   -5413.5215339826281706 [Eh]
	 Singles Energy            =      -0.0000000000000000 [Eh]
	 Same-Spin Energy          =      -0.4876001511045605 [Eh]
	 Opposite-Spin Energy      =      -1.3657174731471717 [Eh]
	 Correlation Energy        =      -1.8533176242517322 [Eh]
	 Total Energy              =   -5415.3748516068799290 [Eh]

	 ================> DF-SCS-MP2 Energies <==================
	-----------------------------------------------------------
	 SCS Same-Spin Scale       =       0.3333333333333333 [-]
	 SCS Opposite-Spin Scale   =       1.2000000000000000 [-]
	 SCS Same-Spin Energy      =      -0.1625333837015202 [Eh]
	 SCS Opposite-Spin Energy  =      -1.6388609677766059 [Eh]
	 SCS Correlation Energy    =      -1.8013943514781261 [Eh]
	 SCS Total Energy          =   -5415.3229283341061091 [Eh]
	-----------------------------------------------------------

  Dipole Moment: [D]
     X:     0.4671      Y:     2.1150      Z:     0.0365     Total:     2.1663

*** Psi4 exiting successfully. Buy a developer a beer!
