                               Psi4 1.4a3.dev225

  ==> Input File <==

--------------------------------------------------------------------------
#psi4
#
memory 32 gb

molecule  {
0 1
 Br        2.8426960    -0.9006560     0.0010230
 Br       -2.8426960    -0.9006560     0.0010230
  C        0.0000000     2.1518200    -0.0164640
  C       -1.2077220     1.4432500    -0.0102500
  C        1.2077220     1.4432500    -0.0102500
  C        0.0000000     3.6581740     0.0136870
  C        1.1904140     0.0494840    -0.0007470
  C       -1.2028968     0.0285988    -0.0007004
  C        0.0000000    -0.6761360     0.0051700
  H       -2.1574180     1.9720780    -0.0184260
  H        2.1574190     1.9720770    -0.0184250
  H        0.0000100     4.0273730     1.0446560
  H        0.8857670     4.0597820    -0.4855720
  H       -0.8857760     4.0597820    -0.4855540
  H       -0.0000010    -1.7611180     0.0093060
units angstrom
no_reorient  #important for SAPT in psi4, default
symmetry c1  #important for SAPT in psi4, default
}

set PROPERTIES_ORIGIN ["COM"]
properties('MP2/aug-cc-pvtz', properties = ['dipole'])
--------------------------------------------------------------------------

    Molecular point group: c1
  Charge       = 0
  Multiplicity = 1
  Basis Set: AUG-CC-PVTZ
    Blend: AUG-CC-PVTZ
  Basis Set: (AUG-CC-PVTZ AUX)
    Blend: AUG-CC-PVTZ-JKFIT

    Orbital Energies [Eh]
    ---------------------

    Doubly Occupied:

       1A   -490.033971     2A   -490.031658     3A    -65.173762
       4A    -65.171360     5A    -58.529076     6A    -58.527679
       7A    -58.527647     8A    -58.526687     9A    -58.525278
      10A    -58.525249    11A    -11.315274    12A    -11.314308
      13A    -11.271616    14A    -11.264102    15A    -11.260152
      16A    -11.258631    17A    -11.242441    18A     -9.846606
      19A     -9.844055    20A     -7.458299    21A     -7.455693
      22A     -7.451379    23A     -7.451313    24A     -7.448816
      25A     -7.448769    26A     -3.202120    27A     -3.199487
      28A     -3.198496    29A     -3.198249    30A     -3.195918
      31A     -3.195700    32A     -3.189460    33A     -3.189451
      34A     -3.186917    35A     -3.186908    36A     -1.192783
      37A     -1.096332    38A     -1.088288    39A     -1.005213
      40A     -0.975367    41A     -0.957835    42A     -0.816914
      43A     -0.811286    44A     -0.707318    45A     -0.675885
      46A     -0.603917    47A     -0.597186    48A     -0.588803
      49A     -0.580799    50A     -0.559880    51A     -0.540971
      52A     -0.510225    53A     -0.494345    54A     -0.468283
      55A     -0.426580    56A     -0.423387    57A     -0.420251
      58A     -0.345563    59A     -0.336953

  @DF-RHF Final Energy: -5413.58204137776829

   => Energetics <=

    Nuclear Repulsion Energy =            881.7905686265524992
    One-Electron Energy =               -9284.6034469612313842
    Two-Electron Energy =                2989.2308369569100250
    Total Energy =                      -5413.5820413777682916
  Basis Set: (AUG-CC-PVTZ AUX)
    Blend: AUG-CC-PVTZ-RI
    Molecular point group: c1

    Geometry (in Angstrom), charge = 0, multiplicity = 1:

       Center              X                  Y                   Z               Mass
    ------------   -----------------  -----------------  -----------------  -----------------
         BR           2.843300285950    -0.777480649542     0.001131280840    78.918337600000
         BR          -2.842091714050    -0.777480649542     0.001131280840    78.918337600000
         C            0.000604285950     2.274995350458    -0.016355719160    12.000000000000
         C           -1.207117714050     1.566425350458    -0.010141719160    12.000000000000
         C            1.208326285950     1.566425350458    -0.010141719160    12.000000000000
         C            0.000604285950     3.781349350458     0.013795280840    12.000000000000
         C            1.191018285950     0.172659350458    -0.000638719160    12.000000000000
         C           -1.202292514050     0.151774150458    -0.000592119160    12.000000000000
         C            0.000604285950    -0.552960649542     0.005278280840    12.000000000000
         H           -2.156813714050     2.095253350458    -0.018317719160     1.007825032230
         H            2.158023285950     2.095252350458    -0.018316719160     1.007825032230
         H            0.000614285950     4.150548350458     1.044764280840     1.007825032230
         H            0.886371285950     4.182957350458    -0.485463719160     1.007825032230
         H           -0.885171714050     4.182957350458    -0.485445719160     1.007825032230
         H            0.000603285950    -1.637942649542     0.009414280840     1.007825032230

  Basis Set: AUG-CC-PVTZ
    Blend: AUG-CC-PVTZ
  Basis Set: (AUG-CC-PVTZ AUX)
    Blend: AUG-CC-PVTZ-JKFIT
	 Reference Energy          =   -5413.5820413777682916 [Eh]
	 Singles Energy            =      -0.0000000000000000 [Eh]
	 Same-Spin Energy          =      -0.4882468119746201 [Eh]
	 Opposite-Spin Energy      =      -1.3646921048885301 [Eh]
	 Correlation Energy        =      -1.8529389168631503 [Eh]
	 Total Energy              =   -5415.4349802946317141 [Eh]

	 ================> DF-SCS-MP2 Energies <==================
	-----------------------------------------------------------
	 SCS Same-Spin Scale       =       0.3333333333333333 [-]
	 SCS Opposite-Spin Scale   =       1.2000000000000000 [-]
	 SCS Same-Spin Energy      =      -0.1627489373248733 [Eh]
	 SCS Opposite-Spin Energy  =      -1.6376305258662360 [Eh]
	 SCS Correlation Energy    =      -1.8003794631911094 [Eh]
	 SCS Total Energy          =   -5415.3824208409596395 [Eh]
	-----------------------------------------------------------

  Dipole Moment: [D]
     X:    -0.0903      Y:     2.1210      Z:     0.0365     Total:     2.1233

*** Psi4 exiting successfully. Buy a developer a beer!
