                               Psi4 1.3.2 release

  ==> Input File <==

--------------------------------------------------------------------------
#psi4
#
memory 32 gb

molecule  {
0 1
  O       -1.6795290    -0.6689080     0.0000150
  O       -0.5986390     1.3214310    -0.0000090
  C        0.6881810    -0.7445990    -0.0000210
  C        1.9439181     0.1149475     0.0000166
  C       -0.5569890     0.1032180    -0.0000050
  H        0.6387670    -1.4041120    -0.8735980
  H        0.6387510    -1.4041660     0.8735140
  H        2.8395290    -0.5539470    -0.0001680
  H        1.9988870     0.7359150    -0.8812290
  H        1.9990450     0.7356100     0.8814780
  H       -2.4291550    -0.0386050     0.0000200
units angstrom
no_reorient  #important for SAPT in psi4, default
symmetry c1  #important for SAPT in psi4, default
}

set PROPERTIES_ORIGIN ["COM"]
properties('MP2/aug-cc-pvtz', properties = ['dipole'])
--------------------------------------------------------------------------

    Molecular point group: c1
  Charge       = 0
  Multiplicity = 1
  Basis Set: AUG-CC-PVTZ
    Blend: AUG-CC-PVTZ
  Basis Set: (AUG-CC-PVTZ AUX)
    Blend: AUG-CC-PVTZ-JKFIT

    Orbital Energies [Eh]
    ---------------------

    Doubly Occupied:

       1A    -20.615229     2A    -20.552381     3A    -11.389288
       4A    -11.251929     5A    -11.224938     6A     -1.459224
       7A     -1.356758     8A     -1.068006     9A     -0.914127
      10A     -0.791484    11A     -0.704391    12A     -0.687906
      13A     -0.660635    14A     -0.595808    15A     -0.594663
      16A     -0.533958    17A     -0.522348    18A     -0.510533
      19A     -0.482965    20A     -0.454038

  @DF-RHF Final Energy:  -266.95062194566520

   => Energetics <=

    Nuclear Repulsion Energy =            178.0226932827547728
    One-Electron Energy =                -717.2054088107064445
    Two-Electron Energy =                 272.2320935822864953
    Total Energy =                       -266.9506219456652047
  Basis Set: (AUG-CC-PVTZ AUX)
    Blend: AUG-CC-PVTZ-RI
    Molecular point group: c1

    Geometry (in Angstrom), charge = 0, multiplicity = 1:

       Center              X                  Y                   Z               Mass
    ------------   -----------------  -----------------  -----------------  -----------------
         O           -1.601088720216    -0.698291312121     0.000014995914    15.994914619570
         O           -0.520198720216     1.292047687879    -0.000009004086    15.994914619570
         C            0.766621279784    -0.773982312121    -0.000021004086    12.000000000000
         C            2.022358379784     0.085564187879     0.000016595914    12.000000000000
         C           -0.478548720216     0.073834687879    -0.000005004086    12.000000000000
         H            0.717207279784    -1.433495312121    -0.873598004086     1.007825032230
         H            0.717191279784    -1.433549312121     0.873513995914     1.007825032230
         H            2.917969279784    -0.583330312121    -0.000168004086     1.007825032230
         H            2.077327279784     0.706531687879    -0.881229004086     1.007825032230
         H            2.077485279784     0.706226687879     0.881477995914     1.007825032230
         H           -2.350714720216    -0.067988312121     0.000019995914     1.007825032230

  Basis Set: AUG-CC-PVTZ
    Blend: AUG-CC-PVTZ
  Basis Set: (AUG-CC-PVTZ AUX)
    Blend: AUG-CC-PVTZ-JKFIT
	 Reference Energy          =    -266.9506219456652047 [Eh]
	 Singles Energy            =      -0.0000000000000000 [Eh]
	 Same-Spin Energy          =      -0.2577941909996277 [Eh]
	 Opposite-Spin Energy      =      -0.8243650876953588 [Eh]
	 Correlation Energy        =      -1.0821592786949865 [Eh]
	 Total Energy              =    -268.0327812243601784 [Eh]

	 ================> DF-SCS-MP2 Energies <==================
	-----------------------------------------------------------
	 SCS Same-Spin Scale       =       0.3333333333333333 [-]
	 SCS Opposite-Spin Scale   =       1.2000000000000000 [-]
	 SCS Same-Spin Energy      =      -0.0859313969998759 [Eh]
	 SCS Opposite-Spin Energy  =      -0.9892381052344305 [Eh]
	 SCS Correlation Energy    =      -1.0751695022343064 [Eh]
	 SCS Total Energy          =    -268.0257914478995076 [Eh]
	-----------------------------------------------------------

  Dipole Moment: [D]
     X:     0.1811      Y:    -1.5211      Z:    -0.0000     Total:     1.5319

*** Psi4 exiting successfully. Buy a developer a beer!
