                               Psi4 1.3.2 release

  ==> Input File <==

--------------------------------------------------------------------------
#psi4
#
memory 32 gb

molecule  {
0 1
  O       -1.6795290    -0.6689080     0.0000150
  O       -0.5986390     1.3214310    -0.0000090
  C        0.6881810    -0.7445990    -0.0000210
  C        1.9871823     0.0480494     0.0000148
  C       -0.5569890     0.1032180    -0.0000050
  H        0.6387670    -1.4041120    -0.8735980
  H        0.6387510    -1.4041660     0.8735140
  H        2.8395290    -0.5539470    -0.0001680
  H        1.9988870     0.7359150    -0.8812290
  H        1.9990450     0.7356100     0.8814780
  H       -2.4291550    -0.0386050     0.0000200
units angstrom
no_reorient  #important for SAPT in psi4, default
symmetry c1  #important for SAPT in psi4, default
}

set PROPERTIES_ORIGIN ["COM"]
properties('MP2/aug-cc-pvtz', properties = ['dipole'])
--------------------------------------------------------------------------

    Molecular point group: c1
  Charge       = 0
  Multiplicity = 1
  Basis Set: AUG-CC-PVTZ
    Blend: AUG-CC-PVTZ
  Basis Set: (AUG-CC-PVTZ AUX)
    Blend: AUG-CC-PVTZ-JKFIT

    Orbital Energies [Eh]
    ---------------------

    Doubly Occupied:

       1A    -20.616187     2A    -20.552823     3A    -11.390985
       4A    -11.251859     5A    -11.225384     6A     -1.459872
       7A     -1.357150     8A     -1.067556     9A     -0.915962
      10A     -0.791596    11A     -0.705111    12A     -0.688816
      13A     -0.658539    14A     -0.601510    15A     -0.588638
      16A     -0.549588    17A     -0.522977    18A     -0.495468
      19A     -0.483220    20A     -0.454728

  @DF-RHF Final Energy:  -266.94822993262784

   => Energetics <=

    Nuclear Repulsion Energy =            177.6440791008463123
    One-Electron Energy =                -716.4286804336126124
    Two-Electron Energy =                 271.8363714001384892
    Total Energy =                       -266.9482299326278394
  Basis Set: (AUG-CC-PVTZ AUX)
    Blend: AUG-CC-PVTZ-RI
    Molecular point group: c1

    Geometry (in Angstrom), charge = 0, multiplicity = 1:

       Center              X                  Y                   Z               Mass
    ------------   -----------------  -----------------  -----------------  -----------------
         O           -1.608101051168    -0.687448360737     0.000015287661    15.994914619570
         O           -0.527211051168     1.302890639263    -0.000008712339    15.994914619570
         C            0.759608948832    -0.763139360737    -0.000020712339    12.000000000000
         C            2.058610248832     0.029509039263     0.000015087661    12.000000000000
         C           -0.485561051168     0.084677639263    -0.000004712339    12.000000000000
         H            0.710194948832    -1.422652360737    -0.873597712339     1.007825032230
         H            0.710178948832    -1.422706360737     0.873514287661     1.007825032230
         H            2.910956948832    -0.572487360737    -0.000167712339     1.007825032230
         H            2.070314948832     0.717374639263    -0.881228712339     1.007825032230
         H            2.070472948832     0.717069639263     0.881478287661     1.007825032230
         H           -2.357727051168    -0.057145360737     0.000020287661     1.007825032230

  Basis Set: AUG-CC-PVTZ
    Blend: AUG-CC-PVTZ
  Basis Set: (AUG-CC-PVTZ AUX)
    Blend: AUG-CC-PVTZ-JKFIT
	 Reference Energy          =    -266.9482299326278394 [Eh]
	 Singles Energy            =      -0.0000000000000000 [Eh]
	 Same-Spin Energy          =      -0.2577910869875684 [Eh]
	 Opposite-Spin Energy      =      -0.8244476124128131 [Eh]
	 Correlation Energy        =      -1.0822386994003814 [Eh]
	 Total Energy              =    -268.0304686320282030 [Eh]

	 ================> DF-SCS-MP2 Energies <==================
	-----------------------------------------------------------
	 SCS Same-Spin Scale       =       0.3333333333333333 [-]
	 SCS Opposite-Spin Scale   =       1.2000000000000000 [-]
	 SCS Same-Spin Energy      =      -0.0859303623291894 [Eh]
	 SCS Opposite-Spin Energy  =      -0.9893371348953757 [Eh]
	 SCS Correlation Energy    =      -1.0752674972245650 [Eh]
	 SCS Total Energy          =    -268.0234974298523980 [Eh]
	-----------------------------------------------------------

  Dipole Moment: [D]
     X:     0.1893      Y:    -1.5418      Z:    -0.0000     Total:     1.5534

*** Psi4 exiting successfully. Buy a developer a beer!
