                               Psi4 1.3.2 release

  ==> Input File <==

--------------------------------------------------------------------------
#psi4
#
memory 32 gb

molecule  {
0 1
  O       -1.6795290    -0.6689080     0.0000150
  O       -0.5986390     1.3214310    -0.0000090
  C        0.6881810    -0.7445990    -0.0000210
  C        1.8642252     0.2211214     0.0000192
  C       -0.5569890     0.1032180    -0.0000050
  H        0.6387670    -1.4041120    -0.8735980
  H        0.6387510    -1.4041660     0.8735140
  H        2.8395290    -0.5539470    -0.0001680
  H        1.9988870     0.7359150    -0.8812290
  H        1.9990450     0.7356100     0.8814780
  H       -2.4291550    -0.0386050     0.0000200
units angstrom
no_reorient  #important for SAPT in psi4, default
symmetry c1  #important for SAPT in psi4, default
}

set PROPERTIES_ORIGIN ["COM"]
properties('MP2/aug-cc-pvtz', properties = ['dipole'])
--------------------------------------------------------------------------

    Molecular point group: c1
  Charge       = 0
  Multiplicity = 1
  Basis Set: AUG-CC-PVTZ
    Blend: AUG-CC-PVTZ
  Basis Set: (AUG-CC-PVTZ AUX)
    Blend: AUG-CC-PVTZ-JKFIT

    Orbital Energies [Eh]
    ---------------------

    Doubly Occupied:

       1A    -20.614467     2A    -20.552805     3A    -11.387714
       4A    -11.254264     5A    -11.229040     6A     -1.459148
       7A     -1.357273     8A     -1.070771     9A     -0.914583
      10A     -0.793267    11A     -0.704768    12A     -0.687108
      13A     -0.667650    14A     -0.607423    15A     -0.591277
      16A     -0.545594    17A     -0.529040    18A     -0.483478
      19A     -0.479293    20A     -0.451625

  @DF-RHF Final Energy:  -266.92752911105794

   => Energetics <=

    Nuclear Repulsion Energy =            178.7223678883532898
    One-Electron Energy =                -718.5386206743378352
    Two-Electron Energy =                 272.8887236749265526
    Total Energy =                       -266.9275291110579360
  Basis Set: (AUG-CC-PVTZ AUX)
    Blend: AUG-CC-PVTZ-RI
    Molecular point group: c1

    Geometry (in Angstrom), charge = 0, multiplicity = 1:

       Center              X                  Y                   Z               Mass
    ------------   -----------------  -----------------  -----------------  -----------------
         O           -1.588171967120    -0.715500148186     0.000014574502    15.994914619570
         O           -0.507281967120     1.274838851814    -0.000009425498    15.994914619570
         C            0.779538032880    -0.791191148186    -0.000021425498    12.000000000000
         C            1.955582232880     0.174529251814     0.000018774502    12.000000000000
         C           -0.465631967120     0.056625851814    -0.000005425498    12.000000000000
         H            0.730124032880    -1.450704148186    -0.873598425498     1.007825032230
         H            0.730108032880    -1.450758148186     0.873513574502     1.007825032230
         H            2.930886032880    -0.600539148186    -0.000168425498     1.007825032230
         H            2.090244032880     0.689322851814    -0.881229425498     1.007825032230
         H            2.090402032880     0.689017851814     0.881477574502     1.007825032230
         H           -2.337797967120    -0.085197148186     0.000019574502     1.007825032230

  Basis Set: AUG-CC-PVTZ
    Blend: AUG-CC-PVTZ
  Basis Set: (AUG-CC-PVTZ AUX)
    Blend: AUG-CC-PVTZ-JKFIT
	 Reference Energy          =    -266.9275291110579360 [Eh]
	 Singles Energy            =      -0.0000000000000000 [Eh]
	 Same-Spin Energy          =      -0.2582555099480617 [Eh]
	 Opposite-Spin Energy      =      -0.8255875387599847 [Eh]
	 Correlation Energy        =      -1.0838430487080464 [Eh]
	 Total Energy              =    -268.0113721597659833 [Eh]

	 ================> DF-SCS-MP2 Energies <==================
	-----------------------------------------------------------
	 SCS Same-Spin Scale       =       0.3333333333333333 [-]
	 SCS Opposite-Spin Scale   =       1.2000000000000000 [-]
	 SCS Same-Spin Energy      =      -0.0860851699826872 [Eh]
	 SCS Opposite-Spin Energy  =      -0.9907050465119815 [Eh]
	 SCS Correlation Energy    =      -1.0767902164946688 [Eh]
	 SCS Total Energy          =    -268.0043193275525937 [Eh]
	-----------------------------------------------------------

  Dipole Moment: [D]
     X:     0.0936      Y:    -1.4744      Z:     0.0000     Total:     1.4774

*** Psi4 exiting successfully. Buy a developer a beer!
