                               Psi4 1.3.2 release

  ==> Input File <==

--------------------------------------------------------------------------
#psi4
#
memory 32 gb

molecule  {
0 1
  O       -1.6795290    -0.6689080     0.0000150
  O       -0.5986390     1.3214310    -0.0000090
  C        0.6881810    -0.7445990    -0.0000210
  C        1.9287257     0.1367323     0.0000171
  C       -0.5569890     0.1032180    -0.0000050
  H        0.6387670    -1.4041120    -0.8735980
  H        0.6387510    -1.4041660     0.8735140
  H        2.8395290    -0.5539470    -0.0001680
  H        1.9988870     0.7359150    -0.8812290
  H        1.9990450     0.7356100     0.8814780
  H       -2.4291550    -0.0386050     0.0000200
units angstrom
no_reorient  #important for SAPT in psi4, default
symmetry c1  #important for SAPT in psi4, default
}

set PROPERTIES_ORIGIN ["COM"]
properties('MP2/aug-cc-pvtz', properties = ['dipole'])
--------------------------------------------------------------------------

    Molecular point group: c1
  Charge       = 0
  Multiplicity = 1
  Basis Set: AUG-CC-PVTZ
    Blend: AUG-CC-PVTZ
  Basis Set: (AUG-CC-PVTZ AUX)
    Blend: AUG-CC-PVTZ-JKFIT

    Orbital Energies [Eh]
    ---------------------

    Doubly Occupied:

       1A    -20.614991     2A    -20.552345     3A    -11.388844
       4A    -11.252185     5A    -11.225265     6A     -1.459105
       7A     -1.356739     8A     -1.068363     9A     -0.913924
      10A     -0.791703    11A     -0.704308    12A     -0.687635
      13A     -0.661667    14A     -0.597051    15A     -0.594496
      16A     -0.536018    17A     -0.514930    18A     -0.514107
      19A     -0.482963    20A     -0.453794

  @DF-RHF Final Energy:  -266.94837912334748

   => Energetics <=

    Nuclear Repulsion Energy =            178.1566504720004787
    One-Electron Energy =                -717.4691924562268923
    Two-Electron Energy =                 272.3641628608789347
    Total Energy =                       -266.9483791233474790
  Basis Set: (AUG-CC-PVTZ AUX)
    Blend: AUG-CC-PVTZ-RI
    Molecular point group: c1

    Geometry (in Angstrom), charge = 0, multiplicity = 1:

       Center              X                  Y                   Z               Mass
    ------------   -----------------  -----------------  -----------------  -----------------
         O           -1.598626311648    -0.701822227458     0.000014914873    15.994914619570
         O           -0.517736311648     1.288516772542    -0.000009085127    15.994914619570
         C            0.769083688352    -0.777513227458    -0.000021085127    12.000000000000
         C            2.009628388352     0.103818072542     0.000017014873    12.000000000000
         C           -0.476086311648     0.070303772542    -0.000005085127    12.000000000000
         H            0.719669688352    -1.437026227458    -0.873598085127     1.007825032230
         H            0.719653688352    -1.437080227458     0.873513914873     1.007825032230
         H            2.920431688352    -0.586861227458    -0.000168085127     1.007825032230
         H            2.079789688352     0.703000772542    -0.881229085127     1.007825032230
         H            2.079947688352     0.702695772542     0.881477914873     1.007825032230
         H           -2.348252311648    -0.071519227458     0.000019914873     1.007825032230

  Basis Set: AUG-CC-PVTZ
    Blend: AUG-CC-PVTZ
  Basis Set: (AUG-CC-PVTZ AUX)
    Blend: AUG-CC-PVTZ-JKFIT
	 Reference Energy          =    -266.9483791233474790 [Eh]
	 Singles Energy            =      -0.0000000000000000 [Eh]
	 Same-Spin Energy          =      -0.2578417037050645 [Eh]
	 Opposite-Spin Energy      =      -0.8244785125189545 [Eh]
	 Correlation Energy        =      -1.0823202162240191 [Eh]
	 Total Energy              =    -268.0306993395714699 [Eh]

	 ================> DF-SCS-MP2 Energies <==================
	-----------------------------------------------------------
	 SCS Same-Spin Scale       =       0.3333333333333333 [-]
	 SCS Opposite-Spin Scale   =       1.2000000000000000 [-]
	 SCS Same-Spin Energy      =      -0.0859472345683548 [Eh]
	 SCS Opposite-Spin Energy  =      -0.9893742150227454 [Eh]
	 SCS Correlation Energy    =      -1.0753214495911001 [Eh]
	 SCS Total Energy          =    -268.0237005729385942 [Eh]
	-----------------------------------------------------------

  Dipole Moment: [D]
     X:     0.1708      Y:    -1.5131      Z:    -0.0000     Total:     1.5227

*** Psi4 exiting successfully. Buy a developer a beer!
