                               Psi4 1.3.2 release

  ==> Input File <==

--------------------------------------------------------------------------
#psi4
#
memory 32 gb

molecule  {
0 1
  O       -1.6795290    -0.6689080     0.0000150
  O       -0.5986390     1.3214310    -0.0000090
  C        0.6881810    -0.7445990    -0.0000210
  C        2.0140541     0.0022320     0.0000136
  C       -0.5569890     0.1032180    -0.0000050
  H        0.6387670    -1.4041120    -0.8735980
  H        0.6387510    -1.4041660     0.8735140
  H        2.8395290    -0.5539470    -0.0001680
  H        1.9988870     0.7359150    -0.8812290
  H        1.9990450     0.7356100     0.8814780
  H       -2.4291550    -0.0386050     0.0000200
units angstrom
no_reorient  #important for SAPT in psi4, default
symmetry c1  #important for SAPT in psi4, default
}

set PROPERTIES_ORIGIN ["COM"]
properties('MP2/aug-cc-pvtz', properties = ['dipole'])
--------------------------------------------------------------------------

    Molecular point group: c1
  Charge       = 0
  Multiplicity = 1
  Basis Set: AUG-CC-PVTZ
    Blend: AUG-CC-PVTZ
  Basis Set: (AUG-CC-PVTZ AUX)
    Blend: AUG-CC-PVTZ-JKFIT

    Orbital Energies [Eh]
    ---------------------

    Doubly Occupied:

       1A    -20.617022     2A    -20.553374     3A    -11.392404
       4A    -11.252427     5A    -11.226829     6A     -1.460532
       7A     -1.357670     8A     -1.067783     9A     -0.918416
      10A     -0.792594    11A     -0.705952    12A     -0.689345
      13A     -0.657863    14A     -0.607440    15A     -0.585709
      16A     -0.563368    17A     -0.516852    18A     -0.485200
      19A     -0.482578    20A     -0.455209

  @DF-RHF Final Energy:  -266.93785087285971

   => Energetics <=

    Nuclear Repulsion Energy =            177.4139963124820838
    One-Electron Energy =                -715.9265623934240921
    Two-Electron Energy =                 271.5747152080822389
    Total Energy =                       -266.9378508728597126
  Basis Set: (AUG-CC-PVTZ AUX)
    Blend: AUG-CC-PVTZ-RI
    Molecular point group: c1

    Geometry (in Angstrom), charge = 0, multiplicity = 1:

       Center              X                  Y                   Z               Mass
    ------------   -----------------  -----------------  -----------------  -----------------
         O           -1.612456475627    -0.680022203033     0.000015482159    15.994914619570
         O           -0.531566475627     1.310316796967    -0.000008517841    15.994914619570
         C            0.755253524373    -0.755713203033    -0.000020517841    12.000000000000
         C            2.081126624373    -0.008882203033     0.000014082159    12.000000000000
         C           -0.489916475627     0.092103796967    -0.000004517841    12.000000000000
         H            0.705839524373    -1.415226203033    -0.873597517841     1.007825032230
         H            0.705823524373    -1.415280203033     0.873514482159     1.007825032230
         H            2.906601524373    -0.565061203033    -0.000167517841     1.007825032230
         H            2.065959524373     0.724800796967    -0.881228517841     1.007825032230
         H            2.066117524373     0.724495796967     0.881478482159     1.007825032230
         H           -2.362082475627    -0.049719203033     0.000020482159     1.007825032230

  Basis Set: AUG-CC-PVTZ
    Blend: AUG-CC-PVTZ
  Basis Set: (AUG-CC-PVTZ AUX)
    Blend: AUG-CC-PVTZ-JKFIT
	 Reference Energy          =    -266.9378508728597126 [Eh]
	 Singles Energy            =      -0.0000000000000000 [Eh]
	 Same-Spin Energy          =      -0.2579101108482186 [Eh]
	 Opposite-Spin Energy      =      -0.8248825324489526 [Eh]
	 Correlation Energy        =      -1.0827926432971711 [Eh]
	 Total Energy              =    -268.0206435161568947 [Eh]

	 ================> DF-SCS-MP2 Energies <==================
	-----------------------------------------------------------
	 SCS Same-Spin Scale       =       0.3333333333333333 [-]
	 SCS Opposite-Spin Scale   =       1.2000000000000000 [-]
	 SCS Same-Spin Energy      =      -0.0859700369494062 [Eh]
	 SCS Opposite-Spin Energy  =      -0.9898590389387431 [Eh]
	 SCS Correlation Energy    =      -1.0758290758881492 [Eh]
	 SCS Total Energy          =    -268.0136799487478356 [Eh]
	-----------------------------------------------------------

  Dipole Moment: [D]
     X:     0.1755      Y:    -1.5533      Z:    -0.0000     Total:     1.5632

*** Psi4 exiting successfully. Buy a developer a beer!
