                               Psi4 1.3.2 release

  ==> Input File <==

--------------------------------------------------------------------------
#psi4
#
memory 32 gb

molecule  {
0 1
  O       -1.6795290    -0.6689080     0.0000150
  O       -0.5986390     1.3214310    -0.0000090
  C        0.6881810    -0.7445990    -0.0000210
  C        1.8972120     0.1794898     0.0000182
  C       -0.5569890     0.1032180    -0.0000050
  H        0.6387670    -1.4041120    -0.8735980
  H        0.6387510    -1.4041660     0.8735140
  H        2.8395290    -0.5539470    -0.0001680
  H        1.9988870     0.7359150    -0.8812290
  H        1.9990450     0.7356100     0.8814780
  H       -2.4291550    -0.0386050     0.0000200
units angstrom
no_reorient  #important for SAPT in psi4, default
symmetry c1  #important for SAPT in psi4, default
}

set PROPERTIES_ORIGIN ["COM"]
properties('MP2/aug-cc-pvtz', properties = ['dipole'])
--------------------------------------------------------------------------

    Molecular point group: c1
  Charge       = 0
  Multiplicity = 1
  Basis Set: AUG-CC-PVTZ
    Blend: AUG-CC-PVTZ
  Basis Set: (AUG-CC-PVTZ AUX)
    Blend: AUG-CC-PVTZ-JKFIT

    Orbital Energies [Eh]
    ---------------------

    Doubly Occupied:

       1A    -20.614643     2A    -20.552450     3A    -11.388148
       4A    -11.253024     5A    -11.226657     6A     -1.459020
       7A     -1.356880     8A     -1.069376     9A     -0.914002
      10A     -0.792382    11A     -0.704379    12A     -0.687234
      13A     -0.664288    14A     -0.602180    15A     -0.592515
      16A     -0.540948    17A     -0.522672    18A     -0.496356
      19A     -0.483111    20A     -0.453136

  @DF-RHF Final Energy:  -266.94007585738939

   => Energetics <=

    Nuclear Repulsion Energy =            178.4342153995844740
    One-Electron Energy =                -718.0017824756141636
    Two-Electron Energy =                 272.6274912186403299
    Total Energy =                       -266.9400758573893881
  Basis Set: (AUG-CC-PVTZ AUX)
    Blend: AUG-CC-PVTZ-RI
    Molecular point group: c1

    Geometry (in Angstrom), charge = 0, multiplicity = 1:

       Center              X                  Y                   Z               Mass
    ------------   -----------------  -----------------  -----------------  -----------------
         O           -1.593518520590    -0.708752431661     0.000014736583    15.994914619570
         O           -0.512628520590     1.281586568339    -0.000009263417    15.994914619570
         C            0.774191479410    -0.784443431661    -0.000021263417    12.000000000000
         C            1.983222479410     0.139645368339     0.000017936583    12.000000000000
         C           -0.470978520590     0.063373568339    -0.000005263417    12.000000000000
         H            0.724777479410    -1.443956431661    -0.873598263417     1.007825032230
         H            0.724761479410    -1.444010431661     0.873513736583     1.007825032230
         H            2.925539479410    -0.593791431661    -0.000168263417     1.007825032230
         H            2.084897479410     0.696070568339    -0.881229263417     1.007825032230
         H            2.085055479410     0.695765568339     0.881477736583     1.007825032230
         H           -2.343144520590    -0.078449431661     0.000019736583     1.007825032230

  Basis Set: AUG-CC-PVTZ
    Blend: AUG-CC-PVTZ
  Basis Set: (AUG-CC-PVTZ AUX)
    Blend: AUG-CC-PVTZ-JKFIT
	 Reference Energy          =    -266.9400758573893881 [Eh]
	 Singles Energy            =      -0.0000000000000000 [Eh]
	 Same-Spin Energy          =      -0.2580041574776759 [Eh]
	 Opposite-Spin Energy      =      -0.8249045617168927 [Eh]
	 Correlation Energy        =      -1.0829087191945685 [Eh]
	 Total Energy              =    -268.0229845765839514 [Eh]

	 ================> DF-SCS-MP2 Energies <==================
	-----------------------------------------------------------
	 SCS Same-Spin Scale       =       0.3333333333333333 [-]
	 SCS Opposite-Spin Scale   =       1.2000000000000000 [-]
	 SCS Same-Spin Energy      =      -0.0860013858258920 [Eh]
	 SCS Opposite-Spin Energy  =      -0.9898854740602713 [Eh]
	 SCS Correlation Energy    =      -1.0758868598861633 [Eh]
	 SCS Total Energy          =    -268.0159627172755563 [Eh]
	-----------------------------------------------------------

  Dipole Moment: [D]
     X:     0.1390      Y:    -1.4951      Z:     0.0000     Total:     1.5015

*** Psi4 exiting successfully. Buy a developer a beer!
