                               Psi4 1.3.2 release

  ==> Input File <==

--------------------------------------------------------------------------
#psi4
#
memory 32 gb

molecule  {
0 1
  O       -1.6795290    -0.6689080     0.0000150
  O       -0.5986390     1.3214310    -0.0000090
  C        0.6881810    -0.7445990    -0.0000210
  C        1.9731509     0.0705993     0.0000154
  C       -0.5569890     0.1032180    -0.0000050
  H        0.6387670    -1.4041120    -0.8735980
  H        0.6387510    -1.4041660     0.8735140
  H        2.8395290    -0.5539470    -0.0001680
  H        1.9988870     0.7359150    -0.8812290
  H        1.9990450     0.7356100     0.8814780
  H       -2.4291550    -0.0386050     0.0000200
units angstrom
no_reorient  #important for SAPT in psi4, default
symmetry c1  #important for SAPT in psi4, default
}

set PROPERTIES_ORIGIN ["COM"]
properties('MP2/aug-cc-pvtz', properties = ['dipole'])
--------------------------------------------------------------------------

    Molecular point group: c1
  Charge       = 0
  Multiplicity = 1
  Basis Set: AUG-CC-PVTZ
    Blend: AUG-CC-PVTZ
  Basis Set: (AUG-CC-PVTZ AUX)
    Blend: AUG-CC-PVTZ-JKFIT

    Orbital Energies [Eh]
    ---------------------

    Doubly Occupied:

       1A    -20.615827     2A    -20.552622     3A    -11.390360
       4A    -11.251763     5A    -11.225002     6A     -1.459609
       7A     -1.356965     8A     -1.067602     9A     -0.915124
      10A     -0.791404    11A     -0.704794    12A     -0.688513
      13A     -0.659082    14A     -0.599257    15A     -0.590435
      16A     -0.541987    17A     -0.525662    18A     -0.500764
      19A     -0.483104    20A     -0.454496

  @DF-RHF Final Energy:  -266.95066812569485

   => Energetics <=

    Nuclear Repulsion Energy =            177.7660949864489623
    One-Electron Energy =                -716.6847804038995946
    Two-Electron Energy =                 271.9680172917558139
    Total Energy =                       -266.9506681256948468
  Basis Set: (AUG-CC-PVTZ AUX)
    Blend: AUG-CC-PVTZ-RI
    Molecular point group: c1

    Geometry (in Angstrom), charge = 0, multiplicity = 1:

       Center              X                  Y                   Z               Mass
    ------------   -----------------  -----------------  -----------------  -----------------
         O           -1.605826819343    -0.691103284710     0.000015190412    15.994914619570
         O           -0.524936819343     1.299235715290    -0.000008809588    15.994914619570
         C            0.761883180657    -0.766794284710    -0.000020809588    12.000000000000
         C            2.046853080657     0.048404015290     0.000015590412    12.000000000000
         C           -0.483286819343     0.081022715290    -0.000004809588    12.000000000000
         H            0.712469180657    -1.426307284710    -0.873597809588     1.007825032230
         H            0.712453180657    -1.426361284710     0.873514190412     1.007825032230
         H            2.913231180657    -0.576142284710    -0.000167809588     1.007825032230
         H            2.072589180657     0.713719715290    -0.881228809588     1.007825032230
         H            2.072747180657     0.713414715290     0.881478190412     1.007825032230
         H           -2.355452819343    -0.060800284710     0.000020190412     1.007825032230

  Basis Set: AUG-CC-PVTZ
    Blend: AUG-CC-PVTZ
  Basis Set: (AUG-CC-PVTZ AUX)
    Blend: AUG-CC-PVTZ-JKFIT
	 Reference Energy          =    -266.9506681256948468 [Eh]
	 Singles Energy            =      -0.0000000000000000 [Eh]
	 Same-Spin Energy          =      -0.2577684132216803 [Eh]
	 Opposite-Spin Energy      =      -0.8243471416210555 [Eh]
	 Correlation Energy        =      -1.0821155548427357 [Eh]
	 Total Energy              =    -268.0327836805375910 [Eh]

	 ================> DF-SCS-MP2 Energies <==================
	-----------------------------------------------------------
	 SCS Same-Spin Scale       =       0.3333333333333333 [-]
	 SCS Opposite-Spin Scale   =       1.2000000000000000 [-]
	 SCS Same-Spin Energy      =      -0.0859228044072268 [Eh]
	 SCS Opposite-Spin Energy  =      -0.9892165699452665 [Eh]
	 SCS Correlation Energy    =      -1.0751393743524933 [Eh]
	 SCS Total Energy          =    -268.0258075000473355 [Eh]
	-----------------------------------------------------------

  Dipole Moment: [D]
     X:     0.1905      Y:    -1.5354      Z:    -0.0000     Total:     1.5472

*** Psi4 exiting successfully. Buy a developer a beer!
