                               Psi4 1.3.2 release

  ==> Input File <==

--------------------------------------------------------------------------
#psi4
#
memory 32 gb

molecule  {
0 1
  O       -1.6795290    -0.6689080     0.0000150
  O       -0.5986390     1.3214310    -0.0000090
  C        0.6881810    -0.7445990    -0.0000210
  C        1.9587280     0.0929010     0.0000160
  C       -0.5569890     0.1032180    -0.0000050
  H        0.6387670    -1.4041120    -0.8735980
  H        0.6387510    -1.4041660     0.8735140
  H        2.8395290    -0.5539470    -0.0001680
  H        1.9988870     0.7359150    -0.8812290
  H        1.9990450     0.7356100     0.8814780
  H       -2.4291550    -0.0386050     0.0000200
units angstrom
no_reorient  #important for SAPT in psi4, default
symmetry c1  #important for SAPT in psi4, default
}

set PROPERTIES_ORIGIN ["COM"]
properties('MP2/aug-cc-pvtz', properties = ['dipole'])
--------------------------------------------------------------------------

    Molecular point group: c1
  Charge       = 0
  Multiplicity = 1
  Basis Set: AUG-CC-PVTZ
    Blend: AUG-CC-PVTZ
  Basis Set: (AUG-CC-PVTZ AUX)
    Blend: AUG-CC-PVTZ-JKFIT

    Orbital Energies [Eh]
    ---------------------

    Doubly Occupied:

       1A    -20.615507     2A    -20.552474     3A    -11.389794
       4A    -11.251787     5A    -11.224852     6A     -1.459393
       7A     -1.356834     8A     -1.067752     9A     -0.914520
      10A     -0.791376    11A     -0.704554    12A     -0.688205
      13A     -0.659776    14A     -0.597378    15A     -0.592449
      16A     -0.535198    17A     -0.526988    18A     -0.505801
      19A     -0.483015    20A     -0.454268

  @DF-RHF Final Energy:  -266.95142566631267

   => Energetics <=

    Nuclear Repulsion Energy =            177.8924008401311596
    One-Electron Energy =                -716.9438112288510183
    Two-Electron Energy =                 272.0999847224072141
    Total Energy =                       -266.9514256663126730
  Basis Set: (AUG-CC-PVTZ AUX)
    Blend: AUG-CC-PVTZ-RI
    Molecular point group: c1

    Geometry (in Angstrom), charge = 0, multiplicity = 1:

       Center              X                  Y                   Z               Mass
    ------------   -----------------  -----------------  -----------------  -----------------
         O           -1.603489132570    -0.694717980028     0.000015093163    15.994914619570
         O           -0.522599132570     1.295621019972    -0.000008906837    15.994914619570
         C            0.764220867430    -0.770408980028    -0.000020906837    12.000000000000
         C            2.034767867430     0.067091019972     0.000016093163    12.000000000000
         C           -0.480949132570     0.077408019972    -0.000004906837    12.000000000000
         H            0.714806867430    -1.429921980028    -0.873597906837     1.007825032230
         H            0.714790867430    -1.429975980028     0.873514093163     1.007825032230
         H            2.915568867430    -0.579756980028    -0.000167906837     1.007825032230
         H            2.074926867430     0.710105019972    -0.881228906837     1.007825032230
         H            2.075084867430     0.709800019972     0.881478093163     1.007825032230
         H           -2.353115132570    -0.064414980028     0.000020093163     1.007825032230

  Basis Set: AUG-CC-PVTZ
    Blend: AUG-CC-PVTZ
  Basis Set: (AUG-CC-PVTZ AUX)
    Blend: AUG-CC-PVTZ-JKFIT
	 Reference Energy          =    -266.9514256663126730 [Eh]
	 Singles Energy            =      -0.0000000000000000 [Eh]
	 Same-Spin Energy          =      -0.2577696118881717 [Eh]
	 Opposite-Spin Energy      =      -0.8243205286129194 [Eh]
	 Correlation Energy        =      -1.0820901405010912 [Eh]
	 Total Energy              =    -268.0335158068137389 [Eh]

	 ================> DF-SCS-MP2 Energies <==================
	-----------------------------------------------------------
	 SCS Same-Spin Scale       =       0.3333333333333333 [-]
	 SCS Opposite-Spin Scale   =       1.2000000000000000 [-]
	 SCS Same-Spin Energy      =      -0.0859232039627239 [Eh]
	 SCS Opposite-Spin Energy  =      -0.9891846343355032 [Eh]
	 SCS Correlation Energy    =      -1.0751078382982271 [Eh]
	 SCS Total Energy          =    -268.0265335046108817 [Eh]
	-----------------------------------------------------------

  Dipole Moment: [D]
     X:     0.1877      Y:    -1.5285      Z:    -0.0000     Total:     1.5400

*** Psi4 exiting successfully. Buy a developer a beer!
