                               Psi4 1.3.2 release

  ==> Input File <==

--------------------------------------------------------------------------
#psi4
#
memory 32 gb

molecule  {
0 1
  O       -1.6795290    -0.6689080     0.0000150
  O       -0.5986390     1.3214310    -0.0000090
  C        0.6881810    -0.7445990    -0.0000210
  C        2.0393104    -0.0444952     0.0000124
  C       -0.5569890     0.1032180    -0.0000050
  H        0.6387670    -1.4041120    -0.8735980
  H        0.6387510    -1.4041660     0.8735140
  H        2.8395290    -0.5539470    -0.0001680
  H        1.9988870     0.7359150    -0.8812290
  H        1.9990450     0.7356100     0.8814780
  H       -2.4291550    -0.0386050     0.0000200
units angstrom
no_reorient  #important for SAPT in psi4, default
symmetry c1  #important for SAPT in psi4, default
}

set PROPERTIES_ORIGIN ["COM"]
properties('MP2/aug-cc-pvtz', properties = ['dipole'])
--------------------------------------------------------------------------

    Molecular point group: c1
  Charge       = 0
  Multiplicity = 1
  Basis Set: AUG-CC-PVTZ
    Blend: AUG-CC-PVTZ
  Basis Set: (AUG-CC-PVTZ AUX)
    Blend: AUG-CC-PVTZ-JKFIT

    Orbital Energies [Eh]
    ---------------------

    Doubly Occupied:

       1A    -20.618006     2A    -20.554113     3A    -11.394038
       4A    -11.253509     5A    -11.229167     6A     -1.461360
       7A     -1.358377     8A     -1.068435     9A     -0.922028
      10A     -0.794596    11A     -0.707020    12A     -0.689700
      13A     -0.657665    14A     -0.615526    15A     -0.583630
      16A     -0.574008    17A     -0.510313    18A     -0.484576
      19A     -0.471841    20A     -0.455688

  @DF-RHF Final Energy:  -266.91941291657446

   => Energetics <=

    Nuclear Repulsion Energy =            177.2039939827246258
    One-Electron Energy =                -715.4396220000675157
    Two-Electron Energy =                 271.3162151007683747
    Total Energy =                       -266.9194129165744584
  Basis Set: (AUG-CC-PVTZ AUX)
    Blend: AUG-CC-PVTZ-RI
    Molecular point group: c1

    Geometry (in Angstrom), charge = 0, multiplicity = 1:

       Center              X                  Y                   Z               Mass
    ------------   -----------------  -----------------  -----------------  -----------------
         O           -1.616550057254    -0.672448583484     0.000015676657    15.994914619570
         O           -0.535660057254     1.317890416516    -0.000008323343    15.994914619570
         C            0.751159942746    -0.748139583484    -0.000020323343    12.000000000000
         C            2.102289342746    -0.048035783484     0.000013076657    12.000000000000
         C           -0.494010057254     0.099677416516    -0.000004323343    12.000000000000
         H            0.701745942746    -1.407652583484    -0.873597323343     1.007825032230
         H            0.701729942746    -1.407706583484     0.873514676657     1.007825032230
         H            2.902507942746    -0.557487583484    -0.000167323343     1.007825032230
         H            2.061865942746     0.732374416516    -0.881228323343     1.007825032230
         H            2.062023942746     0.732069416516     0.881478676657     1.007825032230
         H           -2.366176057254    -0.042145583484     0.000020676657     1.007825032230

  Basis Set: AUG-CC-PVTZ
    Blend: AUG-CC-PVTZ
  Basis Set: (AUG-CC-PVTZ AUX)
    Blend: AUG-CC-PVTZ-JKFIT
	 Reference Energy          =    -266.9194129165744584 [Eh]
	 Singles Energy            =      -0.0000000000000000 [Eh]
	 Same-Spin Energy          =      -0.2581307517960510 [Eh]
	 Opposite-Spin Energy      =      -0.8256514174506958 [Eh]
	 Correlation Energy        =      -1.0837821692467469 [Eh]
	 Total Energy              =    -268.0031950858212326 [Eh]

	 ================> DF-SCS-MP2 Energies <==================
	-----------------------------------------------------------
	 SCS Same-Spin Scale       =       0.3333333333333333 [-]
	 SCS Opposite-Spin Scale   =       1.2000000000000000 [-]
	 SCS Same-Spin Energy      =      -0.0860435839320170 [Eh]
	 SCS Opposite-Spin Energy  =      -0.9907817009408350 [Eh]
	 SCS Correlation Energy    =      -1.0768252848728519 [Eh]
	 SCS Total Energy          =    -267.9962382014472837 [Eh]
	-----------------------------------------------------------

  Dipole Moment: [D]
     X:     0.1464      Y:    -1.5638      Z:    -0.0000     Total:     1.5707

*** Psi4 exiting successfully. Buy a developer a beer!
