                               Psi4 1.3.2 release

  ==> Input File <==

--------------------------------------------------------------------------
#psi4
#
memory 32 gb

molecule  {
-1 1
  O        0.7018950    -1.1499360     0.0000130
  O        0.7018860     1.1499410     0.0000130
  N       -1.2570952    -0.0000040     0.1998150
  C        0.1802210     0.0000000     0.0000470
  H       -1.7560250     0.8738390     0.0004010
  H       -1.7560220    -0.8738500     0.0004010
units angstrom
no_reorient  #important for SAPT in psi4, default
symmetry c1  #important for SAPT in psi4, default
}

set PROPERTIES_ORIGIN ["COM"]
properties('MP2/aug-cc-pvtz', properties = ['dipole'])
--------------------------------------------------------------------------

    Molecular point group: c1
  Charge       = -1
  Multiplicity = 1
  Basis Set: AUG-CC-PVTZ
    Blend: AUG-CC-PVTZ
  Basis Set: (AUG-CC-PVTZ AUX)
    Blend: AUG-CC-PVTZ-JKFIT

    Orbital Energies [Eh]
    ---------------------

    Doubly Occupied:

       1A    -20.286092     2A    -20.286061     3A    -15.374577
       4A    -11.159023     5A     -1.168029     6A     -1.063612
       7A     -0.957473     8A     -0.554695     9A     -0.488397
      10A     -0.433130    11A     -0.376903    12A     -0.373438
      13A     -0.226827    14A     -0.210763    15A     -0.204638
      16A     -0.194466

  @DF-RHF Final Energy:  -243.34692916436484

   => Energetics <=

    Nuclear Repulsion Energy =            112.8601067125393911
    One-Electron Energy =                -565.6978220474817363
    Two-Electron Energy =                 209.4907861705775076
    Total Energy =                       -243.3469291643648376
  Basis Set: (AUG-CC-PVTZ AUX)
    Blend: AUG-CC-PVTZ-RI
    Molecular point group: c1

    Geometry (in Angstrom), charge = -1, multiplicity = 1:

       Center              X                  Y                   Z               Mass
    ------------   -----------------  -----------------  -----------------  -----------------
         O            0.644015197023    -1.149936214573    -0.046643888415    15.994914619570
         O            0.644006197023     1.149940785427    -0.046643888415    15.994914619570
         N           -1.314975002977    -0.000004214573     0.153158111585    14.003074004430
         C            0.122341197023    -0.000000214573    -0.046609888415    12.000000000000
         H           -1.813904802977     0.873838785427    -0.046255888415     1.007825032230
         H           -1.813901802977    -0.873850214573    -0.046255888415     1.007825032230

  Basis Set: AUG-CC-PVTZ
    Blend: AUG-CC-PVTZ
  Basis Set: (AUG-CC-PVTZ AUX)
    Blend: AUG-CC-PVTZ-JKFIT
	 Reference Energy          =    -243.3469291643648376 [Eh]
	 Singles Energy            =      -0.0000000000000000 [Eh]
	 Same-Spin Energy          =      -0.2389550239723212 [Eh]
	 Opposite-Spin Energy      =      -0.6931277380217649 [Eh]
	 Correlation Energy        =      -0.9320827619940861 [Eh]
	 Total Energy              =    -244.2790119263589190 [Eh]

	 ================> DF-SCS-MP2 Energies <==================
	-----------------------------------------------------------
	 SCS Same-Spin Scale       =       0.3333333333333333 [-]
	 SCS Opposite-Spin Scale   =       1.2000000000000000 [-]
	 SCS Same-Spin Energy      =      -0.0796516746574404 [Eh]
	 SCS Opposite-Spin Energy  =      -0.8317532856261178 [Eh]
	 SCS Correlation Energy    =      -0.9114049602835582 [Eh]
	 SCS Total Energy          =    -244.2583341246483997 [Eh]
	-----------------------------------------------------------

  Dipole Moment: [D]
     X:    -3.6461      Y:    -0.0000      Z:    -0.4380     Total:     3.6724

*** Psi4 exiting successfully. Buy a developer a beer!
