                               Psi4 1.3.2 release

  ==> Input File <==

--------------------------------------------------------------------------
#psi4
#
memory 32 gb

molecule  {
-1 1
  O        0.7018950    -1.1499360     0.0000130
  O        0.7018860     1.1499410     0.0000130
  N       -1.2570750    -0.0000040    -0.0001850
  C        0.1802210     0.0000000     0.0000470
  H       -1.7560250     0.8738390     0.0004010
  H       -1.7559946    -0.8738500     0.1504010
units angstrom
no_reorient  #important for SAPT in psi4, default
symmetry c1  #important for SAPT in psi4, default
}

set PROPERTIES_ORIGIN ["COM"]
properties('MP2/aug-cc-pvtz', properties = ['dipole'])
--------------------------------------------------------------------------

    Molecular point group: c1
  Charge       = -1
  Multiplicity = 1
  Basis Set: AUG-CC-PVTZ
    Blend: AUG-CC-PVTZ
  Basis Set: (AUG-CC-PVTZ AUX)
    Blend: AUG-CC-PVTZ-JKFIT

    Orbital Energies [Eh]
    ---------------------

    Doubly Occupied:

       1A    -20.283418     2A    -20.283282     3A    -15.370459
       4A    -11.157399     5A     -1.166942     6A     -1.061635
       7A     -0.960916     8A     -0.561125     9A     -0.499401
      10A     -0.432610    11A     -0.377611    12A     -0.371193
      13A     -0.222398    14A     -0.209609    15A     -0.201387
      16A     -0.193137

  @DF-RHF Final Energy:  -243.34782435783586

   => Energetics <=

    Nuclear Repulsion Energy =            113.1985510589595805
    One-Electron Energy =                -566.3877037150579099
    Two-Electron Energy =                 209.8413282982624537
    Total Energy =                       -243.3478243578358615
  Basis Set: (AUG-CC-PVTZ AUX)
    Blend: AUG-CC-PVTZ-RI
    Molecular point group: c1

    Geometry (in Angstrom), charge = -1, multiplicity = 1:

       Center              X                  Y                   Z               Mass
    ------------   -----------------  -----------------  -----------------  -----------------
         O            0.644010023152    -1.149936214573    -0.002492831608    15.994914619570
         O            0.644001023152     1.149940785427    -0.002492831608    15.994914619570
         N           -1.314959976848    -0.000004214573    -0.002690831608    14.003074004430
         C            0.122336023152    -0.000000214573    -0.002458831608    12.000000000000
         H           -1.813909976848     0.873838785427    -0.002104831608     1.007825032230
         H           -1.813879576848    -0.873850214573     0.147895168392     1.007825032230

  Basis Set: AUG-CC-PVTZ
    Blend: AUG-CC-PVTZ
  Basis Set: (AUG-CC-PVTZ AUX)
    Blend: AUG-CC-PVTZ-JKFIT
	 Reference Energy          =    -243.3478243578358615 [Eh]
	 Singles Energy            =      -0.0000000000000000 [Eh]
	 Same-Spin Energy          =      -0.2388102920871845 [Eh]
	 Opposite-Spin Energy      =      -0.6921458930506360 [Eh]
	 Correlation Energy        =      -0.9309561851378205 [Eh]
	 Total Energy              =    -244.2787805429736920 [Eh]

	 ================> DF-SCS-MP2 Energies <==================
	-----------------------------------------------------------
	 SCS Same-Spin Scale       =       0.3333333333333333 [-]
	 SCS Opposite-Spin Scale   =       1.2000000000000000 [-]
	 SCS Same-Spin Energy      =      -0.0796034306957282 [Eh]
	 SCS Opposite-Spin Energy  =      -0.8305750716607632 [Eh]
	 SCS Correlation Energy    =      -0.9101785023564913 [Eh]
	 SCS Total Energy          =    -244.2580028601923630 [Eh]
	-----------------------------------------------------------

  Dipole Moment: [D]
     X:    -3.7886      Y:     0.0133      Z:     0.2344     Total:     3.7959

*** Psi4 exiting successfully. Buy a developer a beer!
