                               Psi4 1.3.2 release

  ==> Input File <==

--------------------------------------------------------------------------
#psi4
#
memory 32 gb

molecule  {
-1 1
  O        0.7018950    -1.1499360     0.0000130
  O        0.7018860     1.1499410     0.0000130
  N       -1.2570750    -0.0000040    -0.0001850
  C        0.1802210     0.0000000     0.0000470
  H       -1.7560250     0.8738390     0.0004010
  H       -1.7559672    -0.8738500     0.3004010
units angstrom
no_reorient  #important for SAPT in psi4, default
symmetry c1  #important for SAPT in psi4, default
}

set PROPERTIES_ORIGIN ["COM"]
properties('MP2/aug-cc-pvtz', properties = ['dipole'])
--------------------------------------------------------------------------

    Molecular point group: c1
  Charge       = -1
  Multiplicity = 1
  Basis Set: AUG-CC-PVTZ
    Blend: AUG-CC-PVTZ
  Basis Set: (AUG-CC-PVTZ AUX)
    Blend: AUG-CC-PVTZ-JKFIT

    Orbital Energies [Eh]
    ---------------------

    Doubly Occupied:

       1A    -20.284115     2A    -20.283571     3A    -15.373726
       4A    -11.157482     5A     -1.167174     6A     -1.061978
       7A     -0.957084     8A     -0.559118     9A     -0.490994
      10A     -0.432497    11A     -0.379737    12A     -0.368409
      13A     -0.224139    14A     -0.211546    15A     -0.199360
      16A     -0.193265

  @DF-RHF Final Energy:  -243.34520616497880

   => Energetics <=

    Nuclear Repulsion Energy =            113.0571950247475570
    One-Electron Energy =                -566.1164108577830802
    Two-Electron Energy =                 209.7140096680567183
    Total Energy =                       -243.3452061649788050
  Basis Set: (AUG-CC-PVTZ AUX)
    Blend: AUG-CC-PVTZ-RI
    Molecular point group: c1

    Geometry (in Angstrom), charge = -1, multiplicity = 1:

       Center              X                  Y                   Z               Mass
    ------------   -----------------  -----------------  -----------------  -----------------
         O            0.644009562978    -1.149936214573    -0.005012035063    15.994914619570
         O            0.644000562978     1.149940785427    -0.005012035063    15.994914619570
         N           -1.314960437022    -0.000004214573    -0.005210035063    14.003074004430
         C            0.122335562978    -0.000000214573    -0.004978035063    12.000000000000
         H           -1.813910437022     0.873838785427    -0.004624035063     1.007825032230
         H           -1.813852637022    -0.873850214573     0.295375964937     1.007825032230

  Basis Set: AUG-CC-PVTZ
    Blend: AUG-CC-PVTZ
  Basis Set: (AUG-CC-PVTZ AUX)
    Blend: AUG-CC-PVTZ-JKFIT
	 Reference Energy          =    -243.3452061649788050 [Eh]
	 Singles Energy            =      -0.0000000000000000 [Eh]
	 Same-Spin Energy          =      -0.2389787387095130 [Eh]
	 Opposite-Spin Energy      =      -0.6927432454390068 [Eh]
	 Correlation Energy        =      -0.9317219841485198 [Eh]
	 Total Energy              =    -244.2769281491273148 [Eh]

	 ================> DF-SCS-MP2 Energies <==================
	-----------------------------------------------------------
	 SCS Same-Spin Scale       =       0.3333333333333333 [-]
	 SCS Opposite-Spin Scale   =       1.2000000000000000 [-]
	 SCS Same-Spin Energy      =      -0.0796595795698377 [Eh]
	 SCS Opposite-Spin Energy  =      -0.8312918945268081 [Eh]
	 SCS Correlation Energy    =      -0.9109514740966458 [Eh]
	 SCS Total Energy          =    -244.2561576390754396 [Eh]
	-----------------------------------------------------------

  Dipole Moment: [D]
     X:    -3.7316      Y:     0.0516      Z:     0.4511     Total:     3.7591

*** Psi4 exiting successfully. Buy a developer a beer!
