                               Psi4 1.3.2 release

  ==> Input File <==

--------------------------------------------------------------------------
#psi4
#
memory 32 gb

molecule  {
-1 1
  O        0.7018950    -1.1499360     0.0000130
  O        0.7018860     1.1499410     0.0000130
  N       -1.2570801    -0.0000040     0.0498150
  C        0.1802210     0.0000000     0.0000470
  H       -1.7560250     0.8738390     0.0004010
  H       -1.7560220    -0.8738500     0.0004010
units angstrom
no_reorient  #important for SAPT in psi4, default
symmetry c1  #important for SAPT in psi4, default
}

set PROPERTIES_ORIGIN ["COM"]
properties('MP2/aug-cc-pvtz', properties = ['dipole'])
--------------------------------------------------------------------------

    Molecular point group: c1
  Charge       = -1
  Multiplicity = 1
  Basis Set: AUG-CC-PVTZ
    Blend: AUG-CC-PVTZ
  Basis Set: (AUG-CC-PVTZ AUX)
    Blend: AUG-CC-PVTZ-JKFIT

    Orbital Energies [Eh]
    ---------------------

    Doubly Occupied:

       1A    -20.283383     2A    -20.283352     3A    -15.369644
       4A    -11.157484     5A     -1.166943     6A     -1.061654
       7A     -0.962030     8A     -0.561519     9A     -0.501366
      10A     -0.432668    11A     -0.376284    12A     -0.372817
      13A     -0.222080    14A     -0.208644    15A     -0.202706
      16A     -0.193180

  @DF-RHF Final Energy:  -243.34831679055529

   => Energetics <=

    Nuclear Repulsion Energy =            113.2239960338184659
    One-Electron Energy =                -566.4331199462461655
    Two-Electron Energy =                 209.8608071218723978
    Total Energy =                       -243.3483167905552875
  Basis Set: (AUG-CC-PVTZ AUX)
    Blend: AUG-CC-PVTZ-RI
    Molecular point group: c1

    Geometry (in Angstrom), charge = -1, multiplicity = 1:

       Center              X                  Y                   Z               Mass
    ------------   -----------------  -----------------  -----------------  -----------------
         O            0.644011673419    -1.149936214573    -0.011641193218    15.994914619570
         O            0.644002673419     1.149940785427    -0.011641193218    15.994914619570
         N           -1.314963426581    -0.000004214573     0.038160806782    14.003074004430
         C            0.122337673419    -0.000000214573    -0.011607193218    12.000000000000
         H           -1.813908326581     0.873838785427    -0.011253193218     1.007825032230
         H           -1.813905326581    -0.873850214573    -0.011253193218     1.007825032230

  Basis Set: AUG-CC-PVTZ
    Blend: AUG-CC-PVTZ
  Basis Set: (AUG-CC-PVTZ AUX)
    Blend: AUG-CC-PVTZ-JKFIT
	 Reference Energy          =    -243.3483167905552875 [Eh]
	 Singles Energy            =      -0.0000000000000000 [Eh]
	 Same-Spin Energy          =      -0.2387637835511726 [Eh]
	 Opposite-Spin Energy      =      -0.6920187318129809 [Eh]
	 Correlation Energy        =      -0.9307825153641535 [Eh]
	 Total Energy              =    -244.2790993059194307 [Eh]

	 ================> DF-SCS-MP2 Energies <==================
	-----------------------------------------------------------
	 SCS Same-Spin Scale       =       0.3333333333333333 [-]
	 SCS Opposite-Spin Scale   =       1.2000000000000000 [-]
	 SCS Same-Spin Energy      =      -0.0795879278503908 [Eh]
	 SCS Opposite-Spin Energy  =      -0.8304224781755770 [Eh]
	 SCS Correlation Energy    =      -0.9100104060259678 [Eh]
	 SCS Total Energy          =    -244.2583271965812628 [Eh]
	-----------------------------------------------------------

  Dipole Moment: [D]
     X:    -3.7981      Y:    -0.0000      Z:    -0.1143     Total:     3.7998

*** Psi4 exiting successfully. Buy a developer a beer!
