                               Psi4 1.3.2 release

  ==> Input File <==

--------------------------------------------------------------------------
#psi4
#
memory 32 gb

molecule  {
-1 1
  O        0.7018950    -1.1499360     0.0000130
  O        0.7018860     1.1499410     0.0000130
  N       -1.2571053    -0.0000040     0.2998150
  C        0.1802210     0.0000000     0.0000470
  H       -1.7560250     0.8738390     0.0004010
  H       -1.7560220    -0.8738500     0.0004010
units angstrom
no_reorient  #important for SAPT in psi4, default
symmetry c1  #important for SAPT in psi4, default
}

set PROPERTIES_ORIGIN ["COM"]
properties('MP2/aug-cc-pvtz', properties = ['dipole'])
--------------------------------------------------------------------------

    Molecular point group: c1
  Charge       = -1
  Multiplicity = 1
  Basis Set: AUG-CC-PVTZ
    Blend: AUG-CC-PVTZ
  Basis Set: (AUG-CC-PVTZ AUX)
    Blend: AUG-CC-PVTZ-JKFIT

    Orbital Energies [Eh]
    ---------------------

    Doubly Occupied:

       1A    -20.289365     2A    -20.289333     3A    -15.381216
       4A    -11.161097     5A     -1.169331     6A     -1.065991
       7A     -0.951305     8A     -0.546601     9A     -0.472951
      10A     -0.433231    11A     -0.377091    12A     -0.374351
      13A     -0.233739    14A     -0.212108    15A     -0.206911
      16A     -0.196071

  @DF-RHF Final Energy:  -243.34284418828230

   => Energetics <=

    Nuclear Repulsion Energy =            112.3921588127400355
    One-Electron Energy =                -564.7486252787762169
    Two-Electron Energy =                 209.0136222777538819
    Total Energy =                       -243.3428441882822995
  Basis Set: (AUG-CC-PVTZ AUX)
    Blend: AUG-CC-PVTZ-RI
    Molecular point group: c1

    Geometry (in Angstrom), charge = -1, multiplicity = 1:

       Center              X                  Y                   Z               Mass
    ------------   -----------------  -----------------  -----------------  -----------------
         O            0.644017553871    -1.149936214573    -0.069979018547    15.994914619570
         O            0.644008553871     1.149940785427    -0.069979018547    15.994914619570
         N           -1.314982746129    -0.000004214573     0.229822981453    14.003074004430
         C            0.122343553871    -0.000000214573    -0.069945018547    12.000000000000
         H           -1.813902446129     0.873838785427    -0.069591018547     1.007825032230
         H           -1.813899446129    -0.873850214573    -0.069591018547     1.007825032230

  Basis Set: AUG-CC-PVTZ
    Blend: AUG-CC-PVTZ
  Basis Set: (AUG-CC-PVTZ AUX)
    Blend: AUG-CC-PVTZ-JKFIT
	 Reference Energy          =    -243.3428441882822995 [Eh]
	 Singles Energy            =      -0.0000000000000000 [Eh]
	 Same-Spin Energy          =      -0.2392891994336922 [Eh]
	 Opposite-Spin Energy      =      -0.6947210745954217 [Eh]
	 Correlation Energy        =      -0.9340102740291139 [Eh]
	 Total Energy              =    -244.2768544623114053 [Eh]

	 ================> DF-SCS-MP2 Energies <==================
	-----------------------------------------------------------
	 SCS Same-Spin Scale       =       0.3333333333333333 [-]
	 SCS Opposite-Spin Scale   =       1.2000000000000000 [-]
	 SCS Same-Spin Energy      =      -0.0797630664778974 [Eh]
	 SCS Opposite-Spin Energy  =      -0.8336652895145059 [Eh]
	 SCS Correlation Energy    =      -0.9134283559924034 [Eh]
	 SCS Total Energy          =    -244.2562725442747080 [Eh]
	-----------------------------------------------------------

  Dipole Moment: [D]
     X:    -3.4598      Y:    -0.0000      Z:    -0.6134     Total:     3.5138

*** Psi4 exiting successfully. Buy a developer a beer!
