                               Psi4 1.3.2 release

  ==> Input File <==

--------------------------------------------------------------------------
#psi4
#
memory 32 gb

molecule  {
-1 1
  O        0.7018950    -1.1499360     0.0000130
  O        0.7018860     1.1499410     0.0000130
  N       -1.2570851    -0.0000040     0.0998150
  C        0.1802210     0.0000000     0.0000470
  H       -1.7560250     0.8738390     0.0004010
  H       -1.7560220    -0.8738500     0.0004010
units angstrom
no_reorient  #important for SAPT in psi4, default
symmetry c1  #important for SAPT in psi4, default
}

set PROPERTIES_ORIGIN ["COM"]
properties('MP2/aug-cc-pvtz', properties = ['dipole'])
--------------------------------------------------------------------------

    Molecular point group: c1
  Charge       = -1
  Multiplicity = 1
  Basis Set: AUG-CC-PVTZ
    Blend: AUG-CC-PVTZ
  Basis Set: (AUG-CC-PVTZ AUX)
    Blend: AUG-CC-PVTZ-JKFIT

    Orbital Energies [Eh]
    ---------------------

    Doubly Occupied:

       1A    -20.283944     2A    -20.283913     3A    -15.370622
       4A    -11.157792     5A     -1.167169     6A     -1.062059
       7A     -0.961127     8A     -0.560103     9A     -0.498680
      10A     -0.432789    11A     -0.376439    12A     -0.372937
      13A     -0.222964    14A     -0.209178    15A     -0.203110
      16A     -0.193444

  @DF-RHF Final Energy:  -243.34816817031134

   => Energetics <=

    Nuclear Repulsion Energy =            113.1503670911717450
    One-Electron Energy =                -566.2845317138938981
    Two-Electron Energy =                 209.7859964524108136
    Total Energy =                       -243.3481681703113395
  Basis Set: (AUG-CC-PVTZ AUX)
    Blend: AUG-CC-PVTZ-RI
    Molecular point group: c1

    Geometry (in Angstrom), charge = -1, multiplicity = 1:

       Center              X                  Y                   Z               Mass
    ------------   -----------------  -----------------  -----------------  -----------------
         O            0.644012840175    -1.149936214573    -0.023308758284    15.994914619570
         O            0.644003840175     1.149940785427    -0.023308758284    15.994914619570
         N           -1.314967259825    -0.000004214573     0.076493241716    14.003074004430
         C            0.122338840175    -0.000000214573    -0.023274758284    12.000000000000
         H           -1.813907159825     0.873838785427    -0.022920758284     1.007825032230
         H           -1.813904159825    -0.873850214573    -0.022920758284     1.007825032230

  Basis Set: AUG-CC-PVTZ
    Blend: AUG-CC-PVTZ
  Basis Set: (AUG-CC-PVTZ AUX)
    Blend: AUG-CC-PVTZ-JKFIT
	 Reference Energy          =    -243.3481681703113395 [Eh]
	 Singles Energy            =      -0.0000000000000000 [Eh]
	 Same-Spin Energy          =      -0.2387977181056377 [Eh]
	 Opposite-Spin Energy      =      -0.6922345711384019 [Eh]
	 Correlation Energy        =      -0.9310322892440397 [Eh]
	 Total Energy              =    -244.2792004595553692 [Eh]

	 ================> DF-SCS-MP2 Energies <==================
	-----------------------------------------------------------
	 SCS Same-Spin Scale       =       0.3333333333333333 [-]
	 SCS Opposite-Spin Scale   =       1.2000000000000000 [-]
	 SCS Same-Spin Energy      =      -0.0795992393685459 [Eh]
	 SCS Opposite-Spin Energy  =      -0.8306814853660823 [Eh]
	 SCS Correlation Energy    =      -0.9102807247346283 [Eh]
	 SCS Total Energy          =    -244.2584488950459729 [Eh]
	-----------------------------------------------------------

  Dipole Moment: [D]
     X:    -3.7668      Y:    -0.0000      Z:    -0.2278     Total:     3.7736

*** Psi4 exiting successfully. Buy a developer a beer!
