                               Psi4 1.3.2 release

  ==> Input File <==

--------------------------------------------------------------------------
#psi4
#
memory 32 gb

molecule  {
-1 1
  O        0.7018950    -1.1499360     0.0000130
  O        0.7018860     1.1499410     0.0000130
  N       -1.2571003    -0.0000040     0.2498150
  C        0.1802210     0.0000000     0.0000470
  H       -1.7560250     0.8738390     0.0004010
  H       -1.7560220    -0.8738500     0.0004010
units angstrom
no_reorient  #important for SAPT in psi4, default
symmetry c1  #important for SAPT in psi4, default
}

set PROPERTIES_ORIGIN ["COM"]
properties('MP2/aug-cc-pvtz', properties = ['dipole'])
--------------------------------------------------------------------------

    Molecular point group: c1
  Charge       = -1
  Multiplicity = 1
  Basis Set: AUG-CC-PVTZ
    Blend: AUG-CC-PVTZ
  Basis Set: (AUG-CC-PVTZ AUX)
    Blend: AUG-CC-PVTZ-JKFIT

    Orbital Energies [Eh]
    ---------------------

    Doubly Occupied:

       1A    -20.287608     2A    -20.287576     3A    -15.377564
       4A    -11.159951     5A     -1.168633     6A     -1.064712
       7A     -0.954706     8A     -0.550912     9A     -0.481187
      10A     -0.433245    11A     -0.377080    12A     -0.373838
      13A     -0.229914    14A     -0.211516    15A     -0.205700
      16A     -0.195201

  @DF-RHF Final Energy:  -243.34537901625583

   => Energetics <=

    Nuclear Repulsion Energy =            112.6471314042875633
    One-Electron Energy =                -565.2663342276695175
    Two-Electron Energy =                 209.2738238071261208
    Total Energy =                       -243.3453790162558334
  Basis Set: (AUG-CC-PVTZ AUX)
    Blend: AUG-CC-PVTZ-RI
    Molecular point group: c1

    Geometry (in Angstrom), charge = -1, multiplicity = 1:

       Center              X                  Y                   Z               Mass
    ------------   -----------------  -----------------  -----------------  -----------------
         O            0.644016387115    -1.149936214573    -0.058311453481    15.994914619570
         O            0.644007387115     1.149940785427    -0.058311453481    15.994914619570
         N           -1.314978912885    -0.000004214573     0.191490546519    14.003074004430
         C            0.122342387115    -0.000000214573    -0.058277453481    12.000000000000
         H           -1.813903612885     0.873838785427    -0.057923453481     1.007825032230
         H           -1.813900612885    -0.873850214573    -0.057923453481     1.007825032230

  Basis Set: AUG-CC-PVTZ
    Blend: AUG-CC-PVTZ
  Basis Set: (AUG-CC-PVTZ AUX)
    Blend: AUG-CC-PVTZ-JKFIT
	 Reference Energy          =    -243.3453790162558334 [Eh]
	 Singles Energy            =      -0.0000000000000000 [Eh]
	 Same-Spin Energy          =      -0.2390946784554729 [Eh]
	 Opposite-Spin Energy      =      -0.6938289883792275 [Eh]
	 Correlation Energy        =      -0.9329236668347004 [Eh]
	 Total Energy              =    -244.2783026830905442 [Eh]

	 ================> DF-SCS-MP2 Energies <==================
	-----------------------------------------------------------
	 SCS Same-Spin Scale       =       0.3333333333333333 [-]
	 SCS Opposite-Spin Scale   =       1.2000000000000000 [-]
	 SCS Same-Spin Energy      =      -0.0796982261518243 [Eh]
	 SCS Opposite-Spin Energy  =      -0.8325947860550730 [Eh]
	 SCS Correlation Energy    =      -0.9122930122068973 [Eh]
	 SCS Total Energy          =    -244.2576720284627356 [Eh]
	-----------------------------------------------------------

  Dipole Moment: [D]
     X:    -3.5602      Y:    -0.0000      Z:    -0.5308     Total:     3.5996

*** Psi4 exiting successfully. Buy a developer a beer!
