                               Psi4 1.3.2 release

  ==> Input File <==

--------------------------------------------------------------------------
#psi4
#
memory 32 gb

molecule  {
-1 1
  O        0.7018950    -1.1499360     0.0000130
  O        0.7018860     1.1499410     0.0000130
  N       -1.2570750    -0.0000040    -0.0001850
  C        0.1802210     0.0000000     0.0000470
  H       -1.7560250     0.8738390     0.0004010
  H       -1.7559763    -0.8738500     0.2504010
units angstrom
no_reorient  #important for SAPT in psi4, default
symmetry c1  #important for SAPT in psi4, default
}

set PROPERTIES_ORIGIN ["COM"]
properties('MP2/aug-cc-pvtz', properties = ['dipole'])
--------------------------------------------------------------------------

    Molecular point group: c1
  Charge       = -1
  Multiplicity = 1
  Basis Set: AUG-CC-PVTZ
    Blend: AUG-CC-PVTZ
  Basis Set: (AUG-CC-PVTZ AUX)
    Blend: AUG-CC-PVTZ-JKFIT

    Orbital Energies [Eh]
    ---------------------

    Doubly Occupied:

       1A    -20.283832     2A    -20.283457     3A    -15.372416
       4A    -11.157443     5A     -1.167078     6A     -1.061839
       7A     -0.958578     8A     -0.559842     9A     -0.494385
      10A     -0.432555    11A     -0.379032    12A     -0.369391
      13A     -0.223441    14A     -0.210912    15A     -0.200028
      16A     -0.193214

  @DF-RHF Final Energy:  -243.34644176472344

   => Energetics <=

    Nuclear Repulsion Energy =            113.1134073903949684
    One-Electron Energy =                -566.2248110535955448
    Two-Electron Energy =                 209.7649618984771394
    Total Energy =                       -243.3464417647234370
  Basis Set: (AUG-CC-PVTZ AUX)
    Blend: AUG-CC-PVTZ-RI
    Molecular point group: c1

    Geometry (in Angstrom), charge = -1, multiplicity = 1:

       Center              X                  Y                   Z               Mass
    ------------   -----------------  -----------------  -----------------  -----------------
         O            0.644009715810    -1.149936214573    -0.004172300578    15.994914619570
         O            0.644000715810     1.149940785427    -0.004172300578    15.994914619570
         N           -1.314960284190    -0.000004214573    -0.004370300578    14.003074004430
         C            0.122335715810    -0.000000214573    -0.004138300578    12.000000000000
         H           -1.813910284190     0.873838785427    -0.003784300578     1.007825032230
         H           -1.813861584190    -0.873850214573     0.246215699422     1.007825032230

  Basis Set: AUG-CC-PVTZ
    Blend: AUG-CC-PVTZ
  Basis Set: (AUG-CC-PVTZ AUX)
    Blend: AUG-CC-PVTZ-JKFIT
	 Reference Energy          =    -243.3464417647234370 [Eh]
	 Singles Energy            =      -0.0000000000000000 [Eh]
	 Same-Spin Energy          =      -0.2389107599403602 [Eh]
	 Opposite-Spin Energy      =      -0.6924990519238108 [Eh]
	 Correlation Energy        =      -0.9314098118641709 [Eh]
	 Total Energy              =    -244.2778515765876080 [Eh]

	 ================> DF-SCS-MP2 Energies <==================
	-----------------------------------------------------------
	 SCS Same-Spin Scale       =       0.3333333333333333 [-]
	 SCS Opposite-Spin Scale   =       1.2000000000000000 [-]
	 SCS Same-Spin Energy      =      -0.0796369199801201 [Eh]
	 SCS Opposite-Spin Energy  =      -0.8309988623085729 [Eh]
	 SCS Correlation Energy    =      -0.9106357822886930 [Eh]
	 SCS Total Energy          =    -244.2570775470121305 [Eh]
	-----------------------------------------------------------

  Dipole Moment: [D]
     X:    -3.7545      Y:     0.0362      Z:     0.3815     Total:     3.7740

*** Psi4 exiting successfully. Buy a developer a beer!
