                               Psi4 1.3.2 release

  ==> Input File <==

--------------------------------------------------------------------------
#psi4
#
memory 32 gb

molecule  {
-1 1
  O        0.7018950    -1.1499360     0.0000130
  O        0.7018860     1.1499410     0.0000130
  N       -1.2570750    -0.0000040    -0.0001850
  C        0.1802210     0.0000000     0.0000470
  H       -1.7560250     0.8738390     0.0004010
  H       -1.7560037    -0.8738500     0.1004010
units angstrom
no_reorient  #important for SAPT in psi4, default
symmetry c1  #important for SAPT in psi4, default
}

set PROPERTIES_ORIGIN ["COM"]
properties('MP2/aug-cc-pvtz', properties = ['dipole'])
--------------------------------------------------------------------------

    Molecular point group: c1
  Charge       = -1
  Multiplicity = 1
  Basis Set: AUG-CC-PVTZ
    Blend: AUG-CC-PVTZ
  Basis Set: (AUG-CC-PVTZ AUX)
    Blend: AUG-CC-PVTZ-JKFIT

    Orbital Energies [Eh]
    ---------------------

    Doubly Occupied:

       1A    -20.283289     2A    -20.283223     3A    -15.369833
       4A    -11.157389     5A     -1.166901     6A     -1.061571
       7A     -0.961690     8A     -0.561592     9A     -0.500982
      10A     -0.432620    11A     -0.376956    12A     -0.371962
      13A     -0.222067    14A     -0.209032    15A     -0.201982
      16A     -0.193112

  @DF-RHF Final Energy:  -243.34814159630079

   => Energetics <=

    Nuclear Repulsion Energy =            113.2260534175027260
    One-Electron Energy =                -566.4399897299383611
    Two-Electron Energy =                 209.8657947161348432
    Total Energy =                       -243.3481415963007919
  Basis Set: (AUG-CC-PVTZ AUX)
    Blend: AUG-CC-PVTZ-RI
    Molecular point group: c1

    Geometry (in Angstrom), charge = -1, multiplicity = 1:

       Center              X                  Y                   Z               Mass
    ------------   -----------------  -----------------  -----------------  -----------------
         O            0.644010175984    -1.149936214573    -0.001653097122    15.994914619570
         O            0.644001175984     1.149940785427    -0.001653097122    15.994914619570
         N           -1.314959824016    -0.000004214573    -0.001851097122    14.003074004430
         C            0.122336175984    -0.000000214573    -0.001619097122    12.000000000000
         H           -1.813909824016     0.873838785427    -0.001265097122     1.007825032230
         H           -1.813888524016    -0.873850214573     0.098734902878     1.007825032230

  Basis Set: AUG-CC-PVTZ
    Blend: AUG-CC-PVTZ
  Basis Set: (AUG-CC-PVTZ AUX)
    Blend: AUG-CC-PVTZ-JKFIT
	 Reference Energy          =    -243.3481415963007919 [Eh]
	 Singles Energy            =      -0.0000000000000000 [Eh]
	 Same-Spin Energy          =      -0.2387785827818906 [Eh]
	 Opposite-Spin Energy      =      -0.6920361014621794 [Eh]
	 Correlation Energy        =      -0.9308146842440701 [Eh]
	 Total Energy              =    -244.2789562805448611 [Eh]

	 ================> DF-SCS-MP2 Energies <==================
	-----------------------------------------------------------
	 SCS Same-Spin Scale       =       0.3333333333333333 [-]
	 SCS Opposite-Spin Scale   =       1.2000000000000000 [-]
	 SCS Same-Spin Energy      =      -0.0795928609272969 [Eh]
	 SCS Opposite-Spin Energy  =      -0.8304433217546153 [Eh]
	 SCS Correlation Energy    =      -0.9100361826819122 [Eh]
	 SCS Total Energy          =    -244.2581777789827129 [Eh]
	-----------------------------------------------------------

  Dipole Moment: [D]
     X:    -3.7996      Y:     0.0059      Z:     0.1579     Total:     3.8029

*** Psi4 exiting successfully. Buy a developer a beer!
