                               Psi4 1.3.2 release

  ==> Input File <==

--------------------------------------------------------------------------
#psi4
#
memory 32 gb

molecule  {
-1 1
  O        0.7018950    -1.1499360     0.0000130
  O        0.7018860     1.1499410     0.0000130
  N       -1.2570902    -0.0000040     0.1498150
  C        0.1802210     0.0000000     0.0000470
  H       -1.7560250     0.8738390     0.0004010
  H       -1.7560220    -0.8738500     0.0004010
units angstrom
no_reorient  #important for SAPT in psi4, default
symmetry c1  #important for SAPT in psi4, default
}

set PROPERTIES_ORIGIN ["COM"]
properties('MP2/aug-cc-pvtz', properties = ['dipole'])
--------------------------------------------------------------------------

    Molecular point group: c1
  Charge       = -1
  Multiplicity = 1
  Basis Set: AUG-CC-PVTZ
    Blend: AUG-CC-PVTZ
  Basis Set: (AUG-CC-PVTZ AUX)
    Blend: AUG-CC-PVTZ-JKFIT

    Orbital Energies [Eh]
    ---------------------

    Doubly Occupied:

       1A    -20.284858     2A    -20.284826     3A    -15.372264
       4A    -11.158305     5A     -1.167536     6A     -1.062719
       7A     -0.959611     8A     -0.557799     9A     -0.494303
      10A     -0.432958    11A     -0.376663    12A     -0.373141
      13A     -0.224521    14A     -0.209937    15A     -0.203763
      16A     -0.193876

  @DF-RHF Final Energy:  -243.34777381367292

   => Energetics <=

    Nuclear Repulsion Energy =            113.0285482552203433
    One-Electron Energy =                -566.0384840224564869
    Two-Electron Energy =                 209.6621619535632135
    Total Energy =                       -243.3477738136729158
  Basis Set: (AUG-CC-PVTZ AUX)
    Blend: AUG-CC-PVTZ-RI
    Molecular point group: c1

    Geometry (in Angstrom), charge = -1, multiplicity = 1:

       Center              X                  Y                   Z               Mass
    ------------   -----------------  -----------------  -----------------  -----------------
         O            0.644014030267    -1.149936214573    -0.034976323349    15.994914619570
         O            0.644005030267     1.149940785427    -0.034976323349    15.994914619570
         N           -1.314971169733    -0.000004214573     0.114825676651    14.003074004430
         C            0.122340030267    -0.000000214573    -0.034942323349    12.000000000000
         H           -1.813905969733     0.873838785427    -0.034588323349     1.007825032230
         H           -1.813902969733    -0.873850214573    -0.034588323349     1.007825032230

  Basis Set: AUG-CC-PVTZ
    Blend: AUG-CC-PVTZ
  Basis Set: (AUG-CC-PVTZ AUX)
    Blend: AUG-CC-PVTZ-JKFIT
	 Reference Energy          =    -243.3477738136729158 [Eh]
	 Singles Energy            =      -0.0000000000000000 [Eh]
	 Same-Spin Energy          =      -0.2388591500717224 [Eh]
	 Opposite-Spin Energy      =      -0.6926009196465455 [Eh]
	 Correlation Energy        =      -0.9314600697182679 [Eh]
	 Total Energy              =    -244.2792338833911856 [Eh]

	 ================> DF-SCS-MP2 Energies <==================
	-----------------------------------------------------------
	 SCS Same-Spin Scale       =       0.3333333333333333 [-]
	 SCS Opposite-Spin Scale   =       1.2000000000000000 [-]
	 SCS Same-Spin Energy      =      -0.0796197166905741 [Eh]
	 SCS Opposite-Spin Energy  =      -0.8311211035758546 [Eh]
	 SCS Correlation Energy    =      -0.9107408202664287 [Eh]
	 SCS Total Energy          =    -244.2585146339393418 [Eh]
	-----------------------------------------------------------

  Dipole Moment: [D]
     X:    -3.7156      Y:    -0.0000      Z:    -0.3365     Total:     3.7308

*** Psi4 exiting successfully. Buy a developer a beer!
