                               Psi4 1.3.2 release

  ==> Input File <==

--------------------------------------------------------------------------
#psi4
#
memory 32 gb

molecule  {
-1 1
  O        0.7018950    -1.1499360     0.0000130
  O        0.7018860     1.1499410     0.0000130
  N       -1.2570750    -0.0000040    -0.0001850
  C        0.1802210     0.0000000     0.0000470
  H       -1.7560250     0.8738390     0.0004010
  H       -1.7560129    -0.8738500     0.0504010
units angstrom
no_reorient  #important for SAPT in psi4, default
symmetry c1  #important for SAPT in psi4, default
}

set PROPERTIES_ORIGIN ["COM"]
properties('MP2/aug-cc-pvtz', properties = ['dipole'])
--------------------------------------------------------------------------

    Molecular point group: c1
  Charge       = -1
  Multiplicity = 1
  Basis Set: AUG-CC-PVTZ
    Blend: AUG-CC-PVTZ
  Basis Set: (AUG-CC-PVTZ AUX)
    Blend: AUG-CC-PVTZ-JKFIT

    Orbital Energies [Eh]
    ---------------------

    Doubly Occupied:

       1A    -20.283216     2A    -20.283182     3A    -15.369454
       4A    -11.157383     5A     -1.166876     6A     -1.061531
       7A     -0.962165     8A     -0.561890     9A     -0.501935
      10A     -0.432624    11A     -0.376439    12A     -0.372546
      13A     -0.221867    14A     -0.208611    15A     -0.202410
      16A     -0.193097

  @DF-RHF Final Energy:  -243.34830286179857

   => Energetics <=

    Nuclear Repulsion Energy =            113.2427968566684484
    One-Electron Energy =                -566.4717450726187735
    Two-Electron Energy =                 209.8806453541517385
    Total Energy =                       -243.3483028617985724
  Basis Set: (AUG-CC-PVTZ AUX)
    Blend: AUG-CC-PVTZ-RI
    Molecular point group: c1

    Geometry (in Angstrom), charge = -1, multiplicity = 1:

       Center              X                  Y                   Z               Mass
    ------------   -----------------  -----------------  -----------------  -----------------
         O            0.644010330495    -1.149936214573    -0.000813362637    15.994914619570
         O            0.644001330495     1.149940785427    -0.000813362637    15.994914619570
         N           -1.314959669505    -0.000004214573    -0.001011362637    14.003074004430
         C            0.122336330495    -0.000000214573    -0.000779362637    12.000000000000
         H           -1.813909669505     0.873838785427    -0.000425362637     1.007825032230
         H           -1.813897569505    -0.873850214573     0.049574637363     1.007825032230

  Basis Set: AUG-CC-PVTZ
    Blend: AUG-CC-PVTZ
  Basis Set: (AUG-CC-PVTZ AUX)
    Blend: AUG-CC-PVTZ-JKFIT
	 Reference Energy          =    -243.3483028617985724 [Eh]
	 Singles Energy            =      -0.0000000000000000 [Eh]
	 Same-Spin Energy          =      -0.2387594886916082 [Eh]
	 Opposite-Spin Energy      =      -0.6919702733405186 [Eh]
	 Correlation Energy        =      -0.9307297620321269 [Eh]
	 Total Energy              =    -244.2790326238306875 [Eh]

	 ================> DF-SCS-MP2 Energies <==================
	-----------------------------------------------------------
	 SCS Same-Spin Scale       =       0.3333333333333333 [-]
	 SCS Opposite-Spin Scale   =       1.2000000000000000 [-]
	 SCS Same-Spin Energy      =      -0.0795864962305361 [Eh]
	 SCS Opposite-Spin Energy  =      -0.8303643280086224 [Eh]
	 SCS Correlation Energy    =      -0.9099508242391584 [Eh]
	 SCS Total Energy          =    -244.2582536860377331 [Eh]
	-----------------------------------------------------------

  Dipole Moment: [D]
     X:    -3.8063      Y:     0.0015      Z:     0.0801     Total:     3.8071

*** Psi4 exiting successfully. Buy a developer a beer!
