                               Psi4 1.3.2 release

  ==> Input File <==

--------------------------------------------------------------------------
#psi4
#
memory 32 gb

molecule  {
-1 1
  O        0.7018950    -1.1499360     0.0000130
  O        0.7018860     1.1499410     0.0000130
  N       -1.2570750    -0.0000040    -0.0001850
  C        0.1802210     0.0000000     0.0000470
  H       -1.7560250     0.8738390     0.0004010
  H       -1.7559854    -0.8738500     0.2004010
units angstrom
no_reorient  #important for SAPT in psi4, default
symmetry c1  #important for SAPT in psi4, default
}

set PROPERTIES_ORIGIN ["COM"]
properties('MP2/aug-cc-pvtz', properties = ['dipole'])
--------------------------------------------------------------------------

    Molecular point group: c1
  Charge       = -1
  Multiplicity = 1
  Basis Set: AUG-CC-PVTZ
    Blend: AUG-CC-PVTZ
  Basis Set: (AUG-CC-PVTZ AUX)
    Blend: AUG-CC-PVTZ-JKFIT

    Orbital Energies [Eh]
    ---------------------

    Doubly Occupied:

       1A    -20.283599     2A    -20.283360     3A    -15.371323
       4A    -11.157417     5A     -1.167001     6A     -1.061725
       7A     -0.959868     8A     -0.560527     9A     -0.497198
      10A     -0.432590    11A     -0.378317    12A     -0.370324
      13A     -0.222858    14A     -0.210255    15A     -0.200716
      16A     -0.193171

  @DF-RHF Final Energy:  -243.34728498837831

   => Energetics <=

    Nuclear Repulsion Energy =            113.1607850842947869
    One-Electron Energy =                -566.3156435755909115
    Two-Electron Energy =                 209.8075735029178190
    Total Energy =                       -243.3472849883783056
  Basis Set: (AUG-CC-PVTZ AUX)
    Blend: AUG-CC-PVTZ-RI
    Molecular point group: c1

    Geometry (in Angstrom), charge = -1, multiplicity = 1:

       Center              X                  Y                   Z               Mass
    ------------   -----------------  -----------------  -----------------  -----------------
         O            0.644009868641    -1.149936214573    -0.003332566093    15.994914619570
         O            0.644000868641     1.149940785427    -0.003332566093    15.994914619570
         N           -1.314960131359    -0.000004214573    -0.003530566093    14.003074004430
         C            0.122335868641    -0.000000214573    -0.003298566093    12.000000000000
         H           -1.813910131359     0.873838785427    -0.002944566093     1.007825032230
         H           -1.813870531359    -0.873850214573     0.197055433907     1.007825032230

  Basis Set: AUG-CC-PVTZ
    Blend: AUG-CC-PVTZ
  Basis Set: (AUG-CC-PVTZ AUX)
    Blend: AUG-CC-PVTZ-JKFIT
	 Reference Energy          =    -243.3472849883783056 [Eh]
	 Singles Energy            =      -0.0000000000000000 [Eh]
	 Same-Spin Energy          =      -0.2388544507382029 [Eh]
	 Opposite-Spin Energy      =      -0.6923000635028876 [Eh]
	 Correlation Energy        =      -0.9311545142410905 [Eh]
	 Total Energy              =    -244.2784395026193920 [Eh]

	 ================> DF-SCS-MP2 Energies <==================
	-----------------------------------------------------------
	 SCS Same-Spin Scale       =       0.3333333333333333 [-]
	 SCS Opposite-Spin Scale   =       1.2000000000000000 [-]
	 SCS Same-Spin Energy      =      -0.0796181502460676 [Eh]
	 SCS Opposite-Spin Energy  =      -0.8307600762034651 [Eh]
	 SCS Correlation Energy    =      -0.9103782264495328 [Eh]
	 SCS Total Energy          =    -244.2576632148278293 [Eh]
	-----------------------------------------------------------

  Dipole Moment: [D]
     X:    -3.7735      Y:     0.0234      Z:     0.3091     Total:     3.7863

*** Psi4 exiting successfully. Buy a developer a beer!
