                               Psi4 1.3.2 release

  ==> Input File <==

--------------------------------------------------------------------------
#psi4
#
memory 32 gb

molecule  {
0 1
  S        1.5992360    -0.0004910    -0.9713300
  N        2.9928530     0.0007270     1.5561310
  C       -0.1349398    -0.0002468    -0.5066641
  C       -0.7602250     1.2164250    -0.1926110
  C       -0.7603600    -1.2165950    -0.1917730
  C       -2.0926340     1.2101350     0.2229910
  C       -2.0927710    -1.2098700     0.2238180
  C       -2.7593910     0.0002400     0.4292470
  C        2.3883410     0.0002320     0.5352820
  H       -0.2335390     2.1531730    -0.3546160
  H       -0.2337770    -2.1535140    -0.3531260
  H       -2.6102660     2.1527600     0.3813710
  H       -2.6105080    -2.1523280     0.3828450
  H       -3.7976120     0.0004090     0.7511150
units angstrom
no_reorient  #important for SAPT in psi4, default
symmetry c1  #important for SAPT in psi4, default
}

set PROPERTIES_ORIGIN ["COM"]
properties('MP2/aug-cc-pvtz', properties = ['dipole'])
--------------------------------------------------------------------------

    Molecular point group: c1
  Charge       = 0
  Multiplicity = 1
  Basis Set: AUG-CC-PVTZ
    Blend: AUG-CC-PVTZ
  Basis Set: (AUG-CC-PVTZ AUX)
    Blend: AUG-CC-PVTZ-JKFIT

    Orbital Energies [Eh]
    ---------------------

    Doubly Occupied:

       1A    -92.021402     2A    -15.588118     3A    -11.303798
       4A    -11.299376     5A    -11.273116     6A    -11.273075
       7A    -11.268691     8A    -11.263220     9A    -11.263080
      10A     -9.020468    11A     -6.701990    12A     -6.700478
      13A     -6.699665    14A     -1.213803    15A     -1.185651
      16A     -1.090263    17A     -1.045048    18A     -0.999170
      19A     -0.856905    20A     -0.841353    21A     -0.736837
      22A     -0.688983    23A     -0.657456    24A     -0.644157
      25A     -0.616951    26A     -0.584735    27A     -0.559900
      28A     -0.534535    29A     -0.529345    30A     -0.512915
      31A     -0.512164    32A     -0.447094    33A     -0.386083
      34A     -0.369612    35A     -0.363855

  @DF-RHF Final Energy:  -720.06214155216230

   => Energetics <=

    Nuclear Repulsion Energy =            439.8309668257769545
    One-Electron Energy =               -1857.6796293071843138
    Two-Electron Energy =                 697.7865209292449435
    Total Energy =                       -720.0621415521623021
  Basis Set: (AUG-CC-PVTZ AUX)
    Blend: AUG-CC-PVTZ-RI
    Molecular point group: c1

    Geometry (in Angstrom), charge = 0, multiplicity = 1:

       Center              X                  Y                   Z               Mass
    ------------   -----------------  -----------------  -----------------  -----------------
         S            1.533047857712    -0.000482321365    -0.954980416177    31.972071174400
         N            2.926664857712     0.000735678635     1.572480583823    14.003074004430
         C           -0.201127942288    -0.000238121365    -0.490314516177    12.000000000000
         C           -0.826413142288     1.216433678635    -0.176261416177    12.000000000000
         C           -0.826548142288    -1.216586321365    -0.175423416177    12.000000000000
         C           -2.158822142288     1.210143678635     0.239340583823    12.000000000000
         C           -2.158959142288    -1.209861321365     0.240167583823    12.000000000000
         C           -2.825579142288     0.000248678635     0.445596583823    12.000000000000
         C            2.322152857712     0.000240678635     0.551631583823    12.000000000000
         H           -0.299727142288     2.153181678635    -0.338266416177     1.007825032230
         H           -0.299965142288    -2.153505321365    -0.336776416177     1.007825032230
         H           -2.676454142288     2.152768678635     0.397720583823     1.007825032230
         H           -2.676696142288    -2.152319321365     0.399194583823     1.007825032230
         H           -3.863800142288     0.000417678635     0.767464583823     1.007825032230

  Basis Set: AUG-CC-PVTZ
    Blend: AUG-CC-PVTZ
  Basis Set: (AUG-CC-PVTZ AUX)
    Blend: AUG-CC-PVTZ-JKFIT
	 Reference Energy          =    -720.0621415521623021 [Eh]
	 Singles Energy            =      -0.0000000000000000 [Eh]
	 Same-Spin Energy          =      -0.4127454225347874 [Eh]
	 Opposite-Spin Energy      =      -1.2512855358660462 [Eh]
	 Correlation Energy        =      -1.6640309584008335 [Eh]
	 Total Energy              =    -721.7261725105631740 [Eh]

	 ================> DF-SCS-MP2 Energies <==================
	-----------------------------------------------------------
	 SCS Same-Spin Scale       =       0.3333333333333333 [-]
	 SCS Opposite-Spin Scale   =       1.2000000000000000 [-]
	 SCS Same-Spin Energy      =      -0.1375818075115958 [Eh]
	 SCS Opposite-Spin Energy  =      -1.5015426430392553 [Eh]
	 SCS Correlation Energy    =      -1.6391244505508511 [Eh]
	 SCS Total Energy          =    -721.7012660027131687 [Eh]
	-----------------------------------------------------------

  Dipole Moment: [D]
     X:    -4.2938      Y:    -0.0009      Z:    -1.8527     Total:     4.6765

*** Psi4 exiting successfully. Buy a developer a beer!
