                               Psi4 1.3.2 release

  ==> Input File <==

--------------------------------------------------------------------------
#psi4
#
memory 32 gb

molecule  {
0 1
  S        1.5992360    -0.0004910    -0.9713300
  N        2.9928530     0.0007270     1.5561310
  C       -0.0279054    -0.0001052    -0.2125870
  C       -0.7602250     1.2164250    -0.1926110
  C       -0.7603600    -1.2165950    -0.1917730
  C       -2.0926340     1.2101350     0.2229910
  C       -2.0927710    -1.2098700     0.2238180
  C       -2.7593910     0.0002400     0.4292470
  C        2.3883410     0.0002320     0.5352820
  H       -0.2335390     2.1531730    -0.3546160
  H       -0.2337770    -2.1535140    -0.3531260
  H       -2.6102660     2.1527600     0.3813710
  H       -2.6105080    -2.1523280     0.3828450
  H       -3.7976120     0.0004090     0.7511150
units angstrom
no_reorient  #important for SAPT in psi4, default
symmetry c1  #important for SAPT in psi4, default
}

set PROPERTIES_ORIGIN ["COM"]
properties('MP2/aug-cc-pvtz', properties = ['dipole'])
--------------------------------------------------------------------------

    Molecular point group: c1
  Charge       = 0
  Multiplicity = 1
  Basis Set: AUG-CC-PVTZ
    Blend: AUG-CC-PVTZ
  Basis Set: (AUG-CC-PVTZ AUX)
    Blend: AUG-CC-PVTZ-JKFIT

    Orbital Energies [Eh]
    ---------------------

    Doubly Occupied:

       1A    -92.025820     2A    -15.583753     3A    -11.301434
       4A    -11.301224     5A    -11.273255     6A    -11.273220
       7A    -11.267379     8A    -11.261910     9A    -11.261769
      10A     -9.024755    11A     -6.706128    12A     -6.704624
      13A     -6.703745    14A     -1.212083    15A     -1.181557
      16A     -1.092589    17A     -1.042250    18A     -0.997640
      19A     -0.852862    20A     -0.837664    21A     -0.730309
      22A     -0.681691    23A     -0.653532    24A     -0.647625
      25A     -0.614104    26A     -0.589681    27A     -0.557932
      28A     -0.529120    29A     -0.527768    30A     -0.518894
      31A     -0.508472    32A     -0.447161    33A     -0.388117
      34A     -0.364451    35A     -0.360537

  @DF-RHF Final Energy:  -720.05251269413839

   => Energetics <=

    Nuclear Repulsion Energy =            440.2982575820668671
    One-Electron Energy =               -1858.6514271216572070
    Two-Electron Energy =                 698.3006568454520675
    Total Energy =                       -720.0525126941383860
  Basis Set: (AUG-CC-PVTZ AUX)
    Blend: AUG-CC-PVTZ-RI
    Molecular point group: c1

    Geometry (in Angstrom), charge = 0, multiplicity = 1:

       Center              X                  Y                   Z               Mass
    ------------   -----------------  -----------------  -----------------  -----------------
         S            1.523534694424    -0.000494906701    -0.981117839955    31.972071174400
         N            2.917151694424     0.000723093299     1.546343160045    14.003074004430
         C           -0.103606705576    -0.000109106701    -0.222374839955    12.000000000000
         C           -0.835926305576     1.216421093299    -0.202398839955    12.000000000000
         C           -0.836061305576    -1.216598906701    -0.201560839955    12.000000000000
         C           -2.168335305576     1.210131093299     0.213203160045    12.000000000000
         C           -2.168472305576    -1.209873906701     0.214030160045    12.000000000000
         C           -2.835092305576     0.000236093299     0.419459160045    12.000000000000
         C            2.312639694424     0.000228093299     0.525494160045    12.000000000000
         H           -0.309240305576     2.153169093299    -0.364403839955     1.007825032230
         H           -0.309478305576    -2.153517906701    -0.362913839955     1.007825032230
         H           -2.685967305576     2.152756093299     0.371583160045     1.007825032230
         H           -2.686209305576    -2.152331906701     0.373057160045     1.007825032230
         H           -3.873313305576     0.000405093299     0.741327160045     1.007825032230

  Basis Set: AUG-CC-PVTZ
    Blend: AUG-CC-PVTZ
  Basis Set: (AUG-CC-PVTZ AUX)
    Blend: AUG-CC-PVTZ-JKFIT
	 Reference Energy          =    -720.0525126941383860 [Eh]
	 Singles Energy            =      -0.0000000000000000 [Eh]
	 Same-Spin Energy          =      -0.4139554658067264 [Eh]
	 Opposite-Spin Energy      =      -1.2540070961986145 [Eh]
	 Correlation Energy        =      -1.6679625620053409 [Eh]
	 Total Energy              =    -721.7204752561436862 [Eh]

	 ================> DF-SCS-MP2 Energies <==================
	-----------------------------------------------------------
	 SCS Same-Spin Scale       =       0.3333333333333333 [-]
	 SCS Opposite-Spin Scale   =       1.2000000000000000 [-]
	 SCS Same-Spin Energy      =      -0.1379851552689088 [Eh]
	 SCS Opposite-Spin Energy  =      -1.5048085154383373 [Eh]
	 SCS Correlation Energy    =      -1.6427936707072461 [Eh]
	 SCS Total Energy          =    -721.6953063648455782 [Eh]
	-----------------------------------------------------------

  Dipole Moment: [D]
     X:    -4.1185      Y:    -0.0010      Z:    -2.1395     Total:     4.6410

*** Psi4 exiting successfully. Buy a developer a beer!
