                               Psi4 1.3.2 release

  ==> Input File <==

--------------------------------------------------------------------------
#psi4
#
memory 32 gb

molecule  {
0 1
  S        1.5915067    -0.1880901    -0.9634714
  N        2.9928530     0.0007270     1.5561310
  C       -0.0983020    -0.0001890    -0.3868260
  C       -0.7602250     1.2164250    -0.1926110
  C       -0.7603600    -1.2165950    -0.1917730
  C       -2.0926340     1.2101350     0.2229910
  C       -2.0927710    -1.2098700     0.2238180
  C       -2.7593910     0.0002400     0.4292470
  C        2.3883410     0.0002320     0.5352820
  H       -0.2335390     2.1531730    -0.3546160
  H       -0.2337770    -2.1535140    -0.3531260
  H       -2.6102660     2.1527600     0.3813710
  H       -2.6105080    -2.1523280     0.3828450
  H       -3.7976120     0.0004090     0.7511150
units angstrom
no_reorient  #important for SAPT in psi4, default
symmetry c1  #important for SAPT in psi4, default
}

set PROPERTIES_ORIGIN ["COM"]
properties('MP2/aug-cc-pvtz', properties = ['dipole'])
--------------------------------------------------------------------------

    Molecular point group: c1
  Charge       = 0
  Multiplicity = 1
  Basis Set: AUG-CC-PVTZ
    Blend: AUG-CC-PVTZ
  Basis Set: (AUG-CC-PVTZ AUX)
    Blend: AUG-CC-PVTZ-JKFIT

    Orbital Energies [Eh]
    ---------------------

    Doubly Occupied:

       1A    -92.024136     2A    -15.587263     3A    -11.303439
       4A    -11.298359     5A    -11.272365     6A    -11.268612
       7A    -11.266447     8A    -11.263531     9A    -11.261614
      10A     -9.022977    11A     -6.704409    12A     -6.702897
      13A     -6.702061    14A     -1.213577    15A     -1.185516
      16A     -1.091025    17A     -1.044238    18A     -0.998515
      19A     -0.857266    20A     -0.839107    21A     -0.734583
      22A     -0.685261    23A     -0.657507    24A     -0.644635
      25A     -0.616180    26A     -0.586757    27A     -0.559925
      28A     -0.531831    29A     -0.528421    30A     -0.517617
      31A     -0.510066    32A     -0.448756    33A     -0.388661
      34A     -0.366063    35A     -0.363523

  @DF-RHF Final Energy:  -720.06315996346416

   => Energetics <=

    Nuclear Repulsion Energy =            440.3379067734234127
    One-Electron Energy =               -1858.7078602549206607
    Two-Electron Energy =                 698.3067935180331460
    Total Energy =                       -720.0631599634641589
  Basis Set: (AUG-CC-PVTZ AUX)
    Blend: AUG-CC-PVTZ-RI
    Molecular point group: c1

    Geometry (in Angstrom), charge = 0, multiplicity = 1:

       Center              X                  Y                   Z               Mass
    ------------   -----------------  -----------------  -----------------  -----------------
         S            1.523892546448    -0.143662130260    -0.959633922595    31.972071174400
         N            2.925238846448     0.045154969740     1.559968477405    14.003074004430
         C           -0.165916153552     0.044238969740    -0.382988522595    12.000000000000
         C           -0.827839153552     1.260852969740    -0.188773522595    12.000000000000
         C           -0.827974153552    -1.172167030260    -0.187935522595    12.000000000000
         C           -2.160248153552     1.254562969740     0.226828477405    12.000000000000
         C           -2.160385153552    -1.165442030260     0.227655477405    12.000000000000
         C           -2.827005153552     0.044667969740     0.433084477405    12.000000000000
         C            2.320726846448     0.044659969740     0.539119477405    12.000000000000
         H           -0.301153153552     2.197600969740    -0.350778522595     1.007825032230
         H           -0.301391153552    -2.109086030260    -0.349288522595     1.007825032230
         H           -2.677880153552     2.197187969740     0.385208477405     1.007825032230
         H           -2.678122153552    -2.107900030260     0.386682477405     1.007825032230
         H           -3.865226153552     0.044836969740     0.754952477405     1.007825032230

  Basis Set: AUG-CC-PVTZ
    Blend: AUG-CC-PVTZ
  Basis Set: (AUG-CC-PVTZ AUX)
    Blend: AUG-CC-PVTZ-JKFIT
	 Reference Energy          =    -720.0631599634641589 [Eh]
	 Singles Energy            =      -0.0000000000000000 [Eh]
	 Same-Spin Energy          =      -0.4130059796722175 [Eh]
	 Opposite-Spin Energy      =      -1.2517436337169481 [Eh]
	 Correlation Energy        =      -1.6647496133891657 [Eh]
	 Total Energy              =    -721.7279095768533352 [Eh]

	 ================> DF-SCS-MP2 Energies <==================
	-----------------------------------------------------------
	 SCS Same-Spin Scale       =       0.3333333333333333 [-]
	 SCS Opposite-Spin Scale   =       1.2000000000000000 [-]
	 SCS Same-Spin Energy      =      -0.1376686598907392 [Eh]
	 SCS Opposite-Spin Energy  =      -1.5020923604603376 [Eh]
	 SCS Correlation Energy    =      -1.6397610203510768 [Eh]
	 SCS Total Energy          =    -721.7029209838152610 [Eh]
	-----------------------------------------------------------

  Dipole Moment: [D]
     X:    -4.1575      Y:    -0.0615      Z:    -1.9712     Total:     4.6016

*** Psi4 exiting successfully. Buy a developer a beer!
