                               Psi4 1.4a3.dev225

  ==> Input File <==

--------------------------------------------------------------------------
#psi4
#
memory 32 gb

molecule  {
0 1
  S        1.5760570    -0.7866040    -0.6163520
  N        3.0341730     1.0750000     1.0360560
  C       -0.1516925    -0.2699912    -0.2330404
  C       -0.5575540     0.9935740    -0.5890840
  C       -0.9686960    -1.2210780     0.3301710
  C       -1.8821680     1.3412840    -0.3245050
  C       -2.2987160    -0.8680880     0.5684580
  C       -2.7556360     0.4105630     0.2446000
  C        2.4044840     0.3160870     0.3765100
  H        0.1226330     1.7094560    -1.0436160
  H       -0.6002520    -2.2070840     0.6009630
  H       -2.2361210     2.3368740    -0.5796600
  H       -2.9743520    -1.5927660     1.0156100
  H       -3.7893020     0.6841560     0.4396570
units angstrom
no_reorient  #important for SAPT in psi4, default
symmetry c1  #important for SAPT in psi4, default
}

set PROPERTIES_ORIGIN ["COM"]
properties('MP2/aug-cc-pvtz', properties = ['dipole'])
--------------------------------------------------------------------------

    Molecular point group: c1
  Charge       = 0
  Multiplicity = 1
  Basis Set: AUG-CC-PVTZ
    Blend: AUG-CC-PVTZ
  Basis Set: (AUG-CC-PVTZ AUX)
    Blend: AUG-CC-PVTZ-JKFIT

    Orbital Energies [Eh]
    ---------------------

    Doubly Occupied:

       1A    -92.022588     2A    -15.587240     3A    -11.303900
       4A    -11.299994     5A    -11.268290     6A    -11.266924
       7A    -11.264708     8A    -11.263680     9A    -11.262968
      10A     -9.021217    11A     -6.702685    12A     -6.701061
      13A     -6.700306    14A     -1.214044    15A     -1.190603
      16A     -1.085985    17A     -1.048063    18A     -1.001831
      19A     -0.861270    20A     -0.839019    21A     -0.735456
      22A     -0.682751    23A     -0.660104    24A     -0.643815
      25A     -0.619961    26A     -0.585481    27A     -0.560235
      28A     -0.535447    29A     -0.530596    30A     -0.515137
      31A     -0.513513    32A     -0.444599    33A     -0.398222
      34A     -0.365468    35A     -0.358853

  @DF-RHF Final Energy:  -720.06434437391317

   => Energetics <=

    Nuclear Repulsion Energy =            440.7374457525651792
    One-Electron Energy =               -1859.4915510405278383
    Two-Electron Energy =                 698.6897609140494296
    Total Energy =                       -720.0643443739131726
  Basis Set: (AUG-CC-PVTZ AUX)
    Blend: AUG-CC-PVTZ-RI
    Molecular point group: c1

    Geometry (in Angstrom), charge = 0, multiplicity = 1:

       Center              X                  Y                   Z               Mass
    ------------   -----------------  -----------------  -----------------  -----------------
         S            1.510832348528    -0.781197707311    -0.614245377552    31.972071174400
         N            2.968948348528     1.080406292689     1.038162622448    14.003074004430
         C           -0.216917151472    -0.264584907311    -0.230933777552    12.000000000000
         C           -0.622778651472     0.998980292689    -0.586977377552    12.000000000000
         C           -1.033920651472    -1.215671707311     0.332277622448    12.000000000000
         C           -1.947392651472     1.346690292689    -0.322398377552    12.000000000000
         C           -2.363940651472    -0.862681707311     0.570564622448    12.000000000000
         C           -2.820860651472     0.415969292689     0.246706622448    12.000000000000
         C            2.339259348528     0.321493292689     0.378616622448    12.000000000000
         H            0.057408348528     1.714862292689    -1.041509377552     1.007825032230
         H           -0.665476651472    -2.201677707311     0.603069622448     1.007825032230
         H           -2.301345651472     2.342280292689    -0.577553377552     1.007825032230
         H           -3.039576651472    -1.587359707311     1.017716622448     1.007825032230
         H           -3.854526651472     0.689562292689     0.441763622448     1.007825032230

  Basis Set: AUG-CC-PVTZ
    Blend: AUG-CC-PVTZ
  Basis Set: (AUG-CC-PVTZ AUX)
    Blend: AUG-CC-PVTZ-JKFIT
	 Reference Energy          =    -720.0643443739131726 [Eh]
	 Singles Energy            =      -0.0000000000000000 [Eh]
	 Same-Spin Energy          =      -0.4130237209890114 [Eh]
	 Opposite-Spin Energy      =      -1.2511547713829512 [Eh]
	 Correlation Energy        =      -1.6641784923719625 [Eh]
	 Total Energy              =    -721.7285228662851750 [Eh]

	 ================> DF-SCS-MP2 Energies <==================
	-----------------------------------------------------------
	 SCS Same-Spin Scale       =       0.3333333333333333 [-]
	 SCS Opposite-Spin Scale   =       1.2000000000000000 [-]
	 SCS Same-Spin Energy      =      -0.1376745736630038 [Eh]
	 SCS Opposite-Spin Energy  =      -1.5013857256595413 [Eh]
	 SCS Correlation Energy    =      -1.6390602993225452 [Eh]
	 SCS Total Energy          =    -721.7034046732356956 [Eh]
	-----------------------------------------------------------

  Dipole Moment: [D]
     X:    -4.2245      Y:    -1.3399      Z:    -1.3420     Total:     4.6306

*** Psi4 exiting successfully. Buy a developer a beer!
