                               Psi4 1.3.2 release

  ==> Input File <==

--------------------------------------------------------------------------
#psi4
#
memory 32 gb

molecule  {
0 1
  S        1.5992360    -0.0004910    -0.9713300
  N        2.9928530     0.0007270     1.5561310
  C       -0.0983020    -0.0001890    -0.3868260
  C       -0.7602250     1.2164250    -0.1926110
  C       -0.7603600    -1.2165950    -0.1917730
  C       -2.0926340     1.2101350     0.2229910
  C       -2.0927710    -1.2098700     0.2238180
  C       -2.7593910     0.0002400     0.4292470
  C        2.3373879     0.0001903     0.4492368
  H       -0.2335390     2.1531730    -0.3546160
  H       -0.2337770    -2.1535140    -0.3531260
  H       -2.6102660     2.1527600     0.3813710
  H       -2.6105080    -2.1523280     0.3828450
  H       -3.7976120     0.0004090     0.7511150
units angstrom
no_reorient  #important for SAPT in psi4, default
symmetry c1  #important for SAPT in psi4, default
}

set PROPERTIES_ORIGIN ["COM"]
properties('MP2/aug-cc-pvtz', properties = ['dipole'])
--------------------------------------------------------------------------

    Molecular point group: c1
  Charge       = 0
  Multiplicity = 1
  Basis Set: AUG-CC-PVTZ
    Blend: AUG-CC-PVTZ
  Basis Set: (AUG-CC-PVTZ AUX)
    Blend: AUG-CC-PVTZ-JKFIT

    Orbital Energies [Eh]
    ---------------------

    Doubly Occupied:

       1A    -92.023177     2A    -15.610124     3A    -11.325087
       4A    -11.300008     5A    -11.271989     6A    -11.271949
       7A    -11.267335     8A    -11.263885     9A    -11.263668
      10A     -9.025087    11A     -6.706918    12A     -6.704926
      13A     -6.704282    14A     -1.198099    15A     -1.168401
      16A     -1.096329    17A     -1.045520    18A     -1.013288
      19A     -0.858345    20A     -0.845581    21A     -0.741845
      22A     -0.693810    23A     -0.659209    24A     -0.648408
      25A     -0.617358    26A     -0.591900    27A     -0.558280
      28A     -0.533308    29A     -0.530724    30A     -0.518498
      31A     -0.508995    32A     -0.418590    33A     -0.374569
      34A     -0.367936    35A     -0.364340

  @DF-RHF Final Energy:  -720.02050211015182

   => Energetics <=

    Nuclear Repulsion Energy =            441.3302622172079737
    One-Electron Energy =               -1860.5179892830271910
    Two-Electron Energy =                 699.1672249556673933
    Total Energy =                       -720.0205021101518241
  Basis Set: (AUG-CC-PVTZ AUX)
    Blend: AUG-CC-PVTZ-RI
    Molecular point group: c1

    Geometry (in Angstrom), charge = 0, multiplicity = 1:

       Center              X                  Y                   Z               Mass
    ------------   -----------------  -----------------  -----------------  -----------------
         S            1.534320194329    -0.000483752324    -0.957983912022    31.972071174400
         N            2.927937194329     0.000734247676     1.569477087978    14.003074004430
         C           -0.163217805671    -0.000181752324    -0.373479912022    12.000000000000
         C           -0.825140805671     1.216432247676    -0.179264912022    12.000000000000
         C           -0.825275805671    -1.216587752324    -0.178426912022    12.000000000000
         C           -2.157549805671     1.210142247676     0.236337087978    12.000000000000
         C           -2.157686805671    -1.209862752324     0.237164087978    12.000000000000
         C           -2.824306805671     0.000247247676     0.442593087978    12.000000000000
         C            2.272472094329     0.000197547676     0.462582887978    12.000000000000
         H           -0.298454805671     2.153180247676    -0.341269912022     1.007825032230
         H           -0.298692805671    -2.153506752324    -0.339779912022     1.007825032230
         H           -2.675181805671     2.152767247676     0.394717087978     1.007825032230
         H           -2.675423805671    -2.152320752324     0.396191087978     1.007825032230
         H           -3.862527805671     0.000416247676     0.764461087978     1.007825032230

  Basis Set: AUG-CC-PVTZ
    Blend: AUG-CC-PVTZ
  Basis Set: (AUG-CC-PVTZ AUX)
    Blend: AUG-CC-PVTZ-JKFIT
	 Reference Energy          =    -720.0205021101518241 [Eh]
	 Singles Energy            =      -0.0000000000000000 [Eh]
	 Same-Spin Energy          =      -0.4215094722481016 [Eh]
	 Opposite-Spin Energy      =      -1.2659871853840350 [Eh]
	 Correlation Energy        =      -1.6874966576321366 [Eh]
	 Total Energy              =    -721.7079987677839199 [Eh]

	 ================> DF-SCS-MP2 Energies <==================
	-----------------------------------------------------------
	 SCS Same-Spin Scale       =       0.3333333333333333 [-]
	 SCS Opposite-Spin Scale   =       1.2000000000000000 [-]
	 SCS Same-Spin Energy      =      -0.1405031574160339 [Eh]
	 SCS Opposite-Spin Energy  =      -1.5191846224608418 [Eh]
	 SCS Correlation Energy    =      -1.6596877798768757 [Eh]
	 SCS Total Energy          =    -721.6801898900287142 [Eh]
	-----------------------------------------------------------

  Dipole Moment: [D]
     X:    -4.3100      Y:    -0.0010      Z:    -2.0724     Total:     4.7824

*** Psi4 exiting successfully. Buy a developer a beer!
