                               Psi4 1.4a3.dev225

  ==> Input File <==

--------------------------------------------------------------------------
#psi4
#
memory 32 gb

molecule  {
0 1
  S        1.5760570    -0.7866040    -0.6163520
  N        3.0341730     1.0750000     1.0360560
  C       -0.1048350    -0.2840020    -0.2434360
  C       -0.5575540     0.9935740    -0.5890840
  C       -0.9686960    -1.2210780     0.3301710
  C       -1.8821680     1.3412840    -0.3245050
  C       -2.2987160    -0.8680880     0.5684580
  C       -2.7556360     0.4105630     0.2446000
  C        2.4310226     0.3480718     0.4043070
  H        0.1226330     1.7094560    -1.0436160
  H       -0.6002520    -2.2070840     0.6009630
  H       -2.2361210     2.3368740    -0.5796600
  H       -2.9743520    -1.5927660     1.0156100
  H       -3.7893020     0.6841560     0.4396570
units angstrom
no_reorient  #important for SAPT in psi4, default
symmetry c1  #important for SAPT in psi4, default
}

set PROPERTIES_ORIGIN ["COM"]
properties('MP2/aug-cc-pvtz', properties = ['dipole'])
--------------------------------------------------------------------------

    Molecular point group: c1
  Charge       = 0
  Multiplicity = 1
  Basis Set: AUG-CC-PVTZ
    Blend: AUG-CC-PVTZ
  Basis Set: (AUG-CC-PVTZ AUX)
    Blend: AUG-CC-PVTZ-JKFIT

    Orbital Energies [Eh]
    ---------------------

    Doubly Occupied:

       1A    -92.025979     2A    -15.574140     3A    -11.298879
       4A    -11.290840     5A    -11.269850     6A    -11.268521
       7A    -11.264701     8A    -11.262202     9A    -11.261857
      10A     -9.023866    11A     -6.705204    12A     -6.703797
      13A     -6.702904    14A     -1.236733    15A     -1.185934
      16A     -1.087772    17A     -1.043521    18A     -0.992868
      19A     -0.856623    20A     -0.836560    21A     -0.731314
      22A     -0.682816    23A     -0.656519    24A     -0.640462
      25A     -0.615323    26A     -0.585461    27A     -0.560398
      28A     -0.534796    29A     -0.527026    30A     -0.518798
      31A     -0.516792    32A     -0.464072    33A     -0.405102
      34A     -0.363283    35A     -0.355706

  @DF-RHF Final Energy:  -720.07212294204362

   => Energetics <=

    Nuclear Repulsion Energy =            440.4160049053824650
    One-Electron Energy =               -1858.8750173563682893
    Two-Electron Energy =                 698.3868895089423177
    Total Energy =                       -720.0721229420436202
  Basis Set: (AUG-CC-PVTZ AUX)
    Blend: AUG-CC-PVTZ-RI
    Molecular point group: c1

    Geometry (in Angstrom), charge = 0, multiplicity = 1:

       Center              X                  Y                   Z               Mass
    ------------   -----------------  -----------------  -----------------  -----------------
         S            1.504308940315    -0.782795227332    -0.615792005175    31.972071174400
         N            2.962424940315     1.078808772668     1.036615994825    14.003074004430
         C           -0.176583059685    -0.280193227332    -0.242876005175    12.000000000000
         C           -0.629302059685     0.997382772668    -0.588524005175    12.000000000000
         C           -1.040444059685    -1.217269227332     0.330730994825    12.000000000000
         C           -1.953916059685     1.345092772668    -0.323945005175    12.000000000000
         C           -2.370464059685    -0.864279227332     0.569017994825    12.000000000000
         C           -2.827384059685     0.414371772668     0.245159994825    12.000000000000
         C            2.359274540315     0.351880572668     0.404866994825    12.000000000000
         H            0.050884940315     1.713264772668    -1.043056005175     1.007825032230
         H           -0.672000059685    -2.203275227332     0.601522994825     1.007825032230
         H           -2.307869059685     2.340682772668    -0.579100005175     1.007825032230
         H           -3.046100059685    -1.588957227332     1.016169994825     1.007825032230
         H           -3.861050059685     0.687964772668     0.440216994825     1.007825032230

  Basis Set: AUG-CC-PVTZ
    Blend: AUG-CC-PVTZ
  Basis Set: (AUG-CC-PVTZ AUX)
    Blend: AUG-CC-PVTZ-JKFIT
	 Reference Energy          =    -720.0721229420436202 [Eh]
	 Singles Energy            =      -0.0000000000000000 [Eh]
	 Same-Spin Energy          =      -0.4092640554820772 [Eh]
	 Opposite-Spin Energy      =      -1.2448484135597164 [Eh]
	 Correlation Energy        =      -1.6541124690417937 [Eh]
	 Total Energy              =    -721.7262354110854403 [Eh]

	 ================> DF-SCS-MP2 Energies <==================
	-----------------------------------------------------------
	 SCS Same-Spin Scale       =       0.3333333333333333 [-]
	 SCS Opposite-Spin Scale   =       1.2000000000000000 [-]
	 SCS Same-Spin Energy      =      -0.1364213518273591 [Eh]
	 SCS Opposite-Spin Energy  =      -1.4938180962716596 [Eh]
	 SCS Correlation Energy    =      -1.6302394480990188 [Eh]
	 SCS Total Energy          =    -721.7023623901426390 [Eh]
	-----------------------------------------------------------

  Dipole Moment: [D]
     X:    -4.0702      Y:    -1.3310      Z:    -1.3251     Total:     4.4826

*** Psi4 exiting successfully. Buy a developer a beer!
