                               Psi4 1.3.2 release

  ==> Input File <==

--------------------------------------------------------------------------
#psi4
#
memory 32 gb

molecule  {
0 1
  S        1.5992360    -0.0004910    -0.9713300
  N        2.9928530     0.0007270     1.5561310
  C       -0.0983020    -0.0001890    -0.3868260
  C       -0.7602250     1.2164250    -0.1926110
  C       -0.7603600    -1.2165950    -0.1917730
  C       -2.0926340     1.2101350     0.2229910
  C       -2.0927710    -1.2098700     0.2238180
  C       -2.7593910     0.0002400     0.4292470
  C        2.3883410     0.0002320     0.5352820
  H       -0.2335390     2.1531730    -0.3546160
  H       -0.2337770    -2.1535140    -0.3531260
  H       -2.6102660     2.1527600     0.3813710
  H       -2.6105080    -2.1523280     0.3828450
  H       -3.7976120     0.0004090     0.7511150
units angstrom
no_reorient  #important for SAPT in psi4, default
symmetry c1  #important for SAPT in psi4, default
}

set PROPERTIES_ORIGIN ["COM"]
properties('MP2/aug-cc-pvtz', properties = ['dipole'])
--------------------------------------------------------------------------

    Molecular point group: c1
  Charge       = 0
  Multiplicity = 1
  Basis Set: AUG-CC-PVTZ
    Blend: AUG-CC-PVTZ
  Basis Set: (AUG-CC-PVTZ AUX)
    Blend: AUG-CC-PVTZ-JKFIT

    Orbital Energies [Eh]
    ---------------------

    Doubly Occupied:

       1A    -92.023580     2A    -15.587035     3A    -11.303235
       4A    -11.298324     5A    -11.270733     6A    -11.270692
       7A    -11.266701     8A    -11.262724     9A    -11.262534
      10A     -9.022586    11A     -6.704060    12A     -6.702536
      13A     -6.701710    14A     -1.213615    15A     -1.185431
      16A     -1.091246    17A     -1.044387    18A     -0.999768
      19A     -0.856999    20A     -0.839663    21A     -0.734883
      22A     -0.685911    23A     -0.657649    24A     -0.645051
      25A     -0.616197    26A     -0.586987    27A     -0.559981
      28A     -0.532054    29A     -0.529157    30A     -0.516308
      31A     -0.511784    32A     -0.448198    33A     -0.387223
      34A     -0.367879    35A     -0.363615

  @DF-RHF Final Energy:  -720.06587382514658

   => Energetics <=

    Nuclear Repulsion Energy =            440.3218664176906714
    One-Electron Energy =               -1858.6746096558831596
    Two-Electron Energy =                 698.2868694130459062
    Total Energy =                       -720.0658738251465820
  Basis Set: (AUG-CC-PVTZ AUX)
    Blend: AUG-CC-PVTZ-RI
    Molecular point group: c1

    Geometry (in Angstrom), charge = 0, multiplicity = 1:

       Center              X                  Y                   Z               Mass
    ------------   -----------------  -----------------  -----------------  -----------------
         S            1.529791508595    -0.000487458599    -0.965631565839    31.972071174400
         N            2.923408508595     0.000730541401     1.561829434161    14.003074004430
         C           -0.167746491405    -0.000185458599    -0.381127565839    12.000000000000
         C           -0.829669491405     1.216428541401    -0.186912565839    12.000000000000
         C           -0.829804491405    -1.216591458599    -0.186074565839    12.000000000000
         C           -2.162078491405     1.210138541401     0.228689434161    12.000000000000
         C           -2.162215491405    -1.209866458599     0.229516434161    12.000000000000
         C           -2.828835491405     0.000243541401     0.434945434161    12.000000000000
         C            2.318896508595     0.000235541401     0.540980434161    12.000000000000
         H           -0.302983491405     2.153176541401    -0.348917565839     1.007825032230
         H           -0.303221491405    -2.153510458599    -0.347427565839     1.007825032230
         H           -2.679710491405     2.152763541401     0.387069434161     1.007825032230
         H           -2.679952491405    -2.152324458599     0.388543434161     1.007825032230
         H           -3.867056491405     0.000412541401     0.756813434161     1.007825032230

  Basis Set: AUG-CC-PVTZ
    Blend: AUG-CC-PVTZ
  Basis Set: (AUG-CC-PVTZ AUX)
    Blend: AUG-CC-PVTZ-JKFIT
	 Reference Energy          =    -720.0658738251465820 [Eh]
	 Singles Energy            =      -0.0000000000000000 [Eh]
	 Same-Spin Energy          =      -0.4129099083276727 [Eh]
	 Opposite-Spin Energy      =      -1.2513897809093246 [Eh]
	 Correlation Energy        =      -1.6642996892369974 [Eh]
	 Total Energy              =    -721.7301735143835231 [Eh]

	 ================> DF-SCS-MP2 Energies <==================
	-----------------------------------------------------------
	 SCS Same-Spin Scale       =       0.3333333333333333 [-]
	 SCS Opposite-Spin Scale   =       1.2000000000000000 [-]
	 SCS Same-Spin Energy      =      -0.1376366361092242 [Eh]
	 SCS Opposite-Spin Energy  =      -1.5016677370911895 [Eh]
	 SCS Correlation Energy    =      -1.6393043732004138 [Eh]
	 SCS Total Energy          =    -721.7051781983469709 [Eh]
	-----------------------------------------------------------

  Dipole Moment: [D]
     X:    -4.1709      Y:    -0.0009      Z:    -1.9777     Total:     4.6161

*** Psi4 exiting successfully. Buy a developer a beer!
