                               Psi4 1.3.2 release

  ==> Input File <==

--------------------------------------------------------------------------
#psi4
#
memory 32 gb

molecule  {
0 1
  S        1.5992360    -0.0004910    -0.9713300
  N        2.9928530     0.0007270     1.5561310
  C       -0.1176668    -0.0002177    -0.4464253
  C       -0.7602250     1.2164250    -0.1926110
  C       -0.7603600    -1.2165950    -0.1917730
  C       -2.0926340     1.2101350     0.2229910
  C       -2.0927710    -1.2098700     0.2238180
  C       -2.7593910     0.0002400     0.4292470
  C        2.3883410     0.0002320     0.5352820
  H       -0.2335390     2.1531730    -0.3546160
  H       -0.2337770    -2.1535140    -0.3531260
  H       -2.6102660     2.1527600     0.3813710
  H       -2.6105080    -2.1523280     0.3828450
  H       -3.7976120     0.0004090     0.7511150
units angstrom
no_reorient  #important for SAPT in psi4, default
symmetry c1  #important for SAPT in psi4, default
}

set PROPERTIES_ORIGIN ["COM"]
properties('MP2/aug-cc-pvtz', properties = ['dipole'])
--------------------------------------------------------------------------

    Molecular point group: c1
  Charge       = 0
  Multiplicity = 1
  Basis Set: AUG-CC-PVTZ
    Blend: AUG-CC-PVTZ
  Basis Set: (AUG-CC-PVTZ AUX)
    Blend: AUG-CC-PVTZ-JKFIT

    Orbital Energies [Eh]
    ---------------------

    Doubly Occupied:

       1A    -92.022550     2A    -15.587686     3A    -11.303589
       4A    -11.298556     5A    -11.271514     6A    -11.271473
       7A    -11.267446     8A    -11.262977     9A    -11.262807
      10A     -9.021586    11A     -6.703085    12A     -6.701567
      13A     -6.700748    14A     -1.213793    15A     -1.185784
      16A     -1.090768    17A     -1.044799    18A     -0.999663
      19A     -0.857245    20A     -0.840464    21A     -0.736003
      22A     -0.687401    23A     -0.657861    24A     -0.644541
      25A     -0.616635    26A     -0.585883    27A     -0.560093
      28A     -0.533316    29A     -0.529340    30A     -0.514703
      31A     -0.512134    32A     -0.447825    33A     -0.386688
      34A     -0.368794    35A     -0.363934

  @DF-RHF Final Energy:  -720.06523307988493

   => Energetics <=

    Nuclear Repulsion Energy =            440.1280406930316076
    One-Electron Energy =               -1858.2800377535595544
    Two-Electron Energy =                 698.0867639806430134
    Total Energy =                       -720.0652330798849334
  Basis Set: (AUG-CC-PVTZ AUX)
    Blend: AUG-CC-PVTZ-RI
    Molecular point group: c1

    Geometry (in Angstrom), charge = 0, multiplicity = 1:

       Center              X                  Y                   Z               Mass
    ------------   -----------------  -----------------  -----------------  -----------------
         S            1.531512642216    -0.000484907758    -0.960334410226    31.972071174400
         N            2.925129642216     0.000733092242     1.567126589774    14.003074004430
         C           -0.185390157784    -0.000211607758    -0.435429710226    12.000000000000
         C           -0.827948357784     1.216431092242    -0.181615410226    12.000000000000
         C           -0.828083357784    -1.216588907758    -0.180777410226    12.000000000000
         C           -2.160357357784     1.210141092242     0.233986589774    12.000000000000
         C           -2.160494357784    -1.209863907758     0.234813589774    12.000000000000
         C           -2.827114357784     0.000246092242     0.440242589774    12.000000000000
         C            2.320617642216     0.000238092242     0.546277589774    12.000000000000
         H           -0.301262357784     2.153179092242    -0.343620410226     1.007825032230
         H           -0.301500357784    -2.153507907758    -0.342130410226     1.007825032230
         H           -2.677989357784     2.152766092242     0.392366589774     1.007825032230
         H           -2.678231357784    -2.152321907758     0.393840589774     1.007825032230
         H           -3.865335357784     0.000415092242     0.762110589774     1.007825032230

  Basis Set: AUG-CC-PVTZ
    Blend: AUG-CC-PVTZ
  Basis Set: (AUG-CC-PVTZ AUX)
    Blend: AUG-CC-PVTZ-JKFIT
	 Reference Energy          =    -720.0652330798849334 [Eh]
	 Singles Energy            =      -0.0000000000000000 [Eh]
	 Same-Spin Energy          =      -0.4127787090342970 [Eh]
	 Opposite-Spin Energy      =      -1.2511725187191649 [Eh]
	 Correlation Energy        =      -1.6639512277534618 [Eh]
	 Total Energy              =    -721.7291843076384339 [Eh]

	 ================> DF-SCS-MP2 Energies <==================
	-----------------------------------------------------------
	 SCS Same-Spin Scale       =       0.3333333333333333 [-]
	 SCS Opposite-Spin Scale   =       1.2000000000000000 [-]
	 SCS Same-Spin Energy      =      -0.1375929030114323 [Eh]
	 SCS Opposite-Spin Energy  =      -1.5014070224629978 [Eh]
	 SCS Correlation Energy    =      -1.6389999254744301 [Eh]
	 SCS Total Energy          =    -721.7042330053593560 [Eh]
	-----------------------------------------------------------

  Dipole Moment: [D]
     X:    -4.2237      Y:    -0.0009      Z:    -1.9167     Total:     4.6382

*** Psi4 exiting successfully. Buy a developer a beer!
