                               Psi4 1.3.2 release

  ==> Input File <==

--------------------------------------------------------------------------
#psi4
#
memory 32 gb

molecule  {
0 1
  S        1.5992360    -0.0004910    -0.9713300
  N        2.9928530     0.0007270     1.5561310
  C       -0.0983020    -0.0001890    -0.3868260
  C       -0.7602250     1.2164250    -0.1926110
  C       -0.7603600    -1.2165950    -0.1917730
  C       -2.0926340     1.2101350     0.2229910
  C       -2.0927710    -1.2098700     0.2238180
  C       -2.7593910     0.0002400     0.4292470
  C        2.4347383     0.0002745     0.6238669
  H       -0.2335390     2.1531730    -0.3546160
  H       -0.2337770    -2.1535140    -0.3531260
  H       -2.6102660     2.1527600     0.3813710
  H       -2.6105080    -2.1523280     0.3828450
  H       -3.7976120     0.0004090     0.7511150
units angstrom
no_reorient  #important for SAPT in psi4, default
symmetry c1  #important for SAPT in psi4, default
}

set PROPERTIES_ORIGIN ["COM"]
properties('MP2/aug-cc-pvtz', properties = ['dipole'])
--------------------------------------------------------------------------

    Molecular point group: c1
  Charge       = 0
  Multiplicity = 1
  Basis Set: AUG-CC-PVTZ
    Blend: AUG-CC-PVTZ
  Basis Set: (AUG-CC-PVTZ AUX)
    Blend: AUG-CC-PVTZ-JKFIT

    Orbital Energies [Eh]
    ---------------------

    Doubly Occupied:

       1A    -92.025747     2A    -15.555415     3A    -11.296895
       4A    -11.273073     5A    -11.269948     6A    -11.269907
       7A    -11.266381     8A    -11.262009     9A    -11.261836
      10A     -9.022568    11A     -6.703744    12A     -6.702467
      13A     -6.701538    14A     -1.257381    15A     -1.185695
      16A     -1.083204    17A     -1.043681    18A     -0.985356
      19A     -0.856132    20A     -0.834103    21A     -0.728829
      22A     -0.675080    23A     -0.656638    24A     -0.639894
      25A     -0.615480    26A     -0.583375    27A     -0.557613
      28A     -0.532919    29A     -0.532163    30A     -0.522148
      31A     -0.518263    32A     -0.474058    33A     -0.397180
      34A     -0.367406    35A     -0.363041

  @DF-RHF Final Energy:  -720.06440917718146

   => Energetics <=

    Nuclear Repulsion Energy =            439.8253700729242723
    One-Electron Energy =               -1857.7372257338256532
    Two-Electron Energy =                 697.8474464837199776
    Total Energy =                       -720.0644091771814601
  Basis Set: (AUG-CC-PVTZ AUX)
    Blend: AUG-CC-PVTZ-RI
    Molecular point group: c1

    Geometry (in Angstrom), charge = 0, multiplicity = 1:

       Center              X                  Y                   Z               Mass
    ------------   -----------------  -----------------  -----------------  -----------------
         S            1.525667740059    -0.000491235978    -0.973504946907    31.972071174400
         N            2.919284740059     0.000726764022     1.553956053093    14.003074004430
         C           -0.171870259941    -0.000189235978    -0.389000946907    12.000000000000
         C           -0.833793259941     1.216424764022    -0.194785946907    12.000000000000
         C           -0.833928259941    -1.216595235978    -0.193947946907    12.000000000000
         C           -2.166202259941     1.210134764022     0.220816053093    12.000000000000
         C           -2.166339259941    -1.209870235978     0.221643053093    12.000000000000
         C           -2.832959259941     0.000239764022     0.427072053093    12.000000000000
         C            2.361170040059     0.000274264022     0.621691953093    12.000000000000
         H           -0.307107259941     2.153172764022    -0.356790946907     1.007825032230
         H           -0.307345259941    -2.153514235978    -0.355300946907     1.007825032230
         H           -2.683834259941     2.152759764022     0.379196053093     1.007825032230
         H           -2.684076259941    -2.152328235978     0.380670053093     1.007825032230
         H           -3.871180259941     0.000408764022     0.748940053093     1.007825032230

  Basis Set: AUG-CC-PVTZ
    Blend: AUG-CC-PVTZ
  Basis Set: (AUG-CC-PVTZ AUX)
    Blend: AUG-CC-PVTZ-JKFIT
	 Reference Energy          =    -720.0644091771814601 [Eh]
	 Singles Energy            =      -0.0000000000000000 [Eh]
	 Same-Spin Energy          =      -0.4054962232403174 [Eh]
	 Opposite-Spin Energy      =      -1.2385849994665006 [Eh]
	 Correlation Energy        =      -1.6440812227068180 [Eh]
	 Total Energy              =    -721.7084903998883192 [Eh]

	 ================> DF-SCS-MP2 Energies <==================
	-----------------------------------------------------------
	 SCS Same-Spin Scale       =       0.3333333333333333 [-]
	 SCS Opposite-Spin Scale   =       1.2000000000000000 [-]
	 SCS Same-Spin Energy      =      -0.1351654077467724 [Eh]
	 SCS Opposite-Spin Energy  =      -1.4863019993598006 [Eh]
	 SCS Correlation Energy    =      -1.6214674071065729 [Eh]
	 SCS Total Energy          =    -721.6858765842880530 [Eh]
	-----------------------------------------------------------

  Dipole Moment: [D]
     X:    -4.1570      Y:    -0.0009      Z:    -1.9569     Total:     4.5946

*** Psi4 exiting successfully. Buy a developer a beer!
