                               Psi4 1.3.2 release

  ==> Input File <==

--------------------------------------------------------------------------
#psi4
#
memory 32 gb

molecule  {
0 1
  S        1.5992360    -0.0004910    -0.9713300
  N        2.9928530     0.0007270     1.5561310
  C       -0.0983020    -0.0001890    -0.3868260
  C       -0.7602250     1.2164250    -0.1926110
  C       -0.7603600    -1.2165950    -0.1917730
  C       -2.0926340     1.2101350     0.2229910
  C       -2.0927710    -1.2098700     0.2238180
  C       -2.7593910     0.0002400     0.4292470
  C        2.2955463     0.0001470     0.3581122
  H       -0.2335390     2.1531730    -0.3546160
  H       -0.2337770    -2.1535140    -0.3531260
  H       -2.6102660     2.1527600     0.3813710
  H       -2.6105080    -2.1523280     0.3828450
  H       -3.7976120     0.0004090     0.7511150
units angstrom
no_reorient  #important for SAPT in psi4, default
symmetry c1  #important for SAPT in psi4, default
}

set PROPERTIES_ORIGIN ["COM"]
properties('MP2/aug-cc-pvtz', properties = ['dipole'])
--------------------------------------------------------------------------

    Molecular point group: c1
  Charge       = 0
  Multiplicity = 1
  Basis Set: AUG-CC-PVTZ
    Blend: AUG-CC-PVTZ
  Basis Set: (AUG-CC-PVTZ AUX)
    Blend: AUG-CC-PVTZ-JKFIT

    Orbital Energies [Eh]
    ---------------------

    Doubly Occupied:

       1A    -92.025180     2A    -15.623726     3A    -11.332191
       4A    -11.299766     5A    -11.272781     6A    -11.272739
       7A    -11.267454     8A    -11.264880     9A    -11.264591
      10A     -9.030728    11A     -6.712997    12A     -6.710134
      13A     -6.709880    14A     -1.205613    15A     -1.161870
      16A     -1.078922    17A     -1.046303    18A     -1.021614
      19A     -0.859355    20A     -0.850827    21A     -0.748158
      22A     -0.698650    23A     -0.660445    24A     -0.650859
      25A     -0.618256    26A     -0.598574    27A     -0.552282
      28A     -0.534477    29A     -0.533559    30A     -0.521576
      31A     -0.513365    32A     -0.390405    33A     -0.367877
      34A     -0.363727    35A     -0.363361

  @DF-RHF Final Energy:  -719.94469348714415

   => Energetics <=

    Nuclear Repulsion Energy =            442.7386989271601010
    One-Electron Energy =               -1863.1125414315733906
    Two-Electron Energy =                 700.4291490172690828
    Total Energy =                       -719.9446934871441499
  Basis Set: (AUG-CC-PVTZ AUX)
    Blend: AUG-CC-PVTZ-RI
    Molecular point group: c1

    Geometry (in Angstrom), charge = 0, multiplicity = 1:

       Center              X                  Y                   Z               Mass
    ------------   -----------------  -----------------  -----------------  -----------------
         S            1.538039054556    -0.000479903842    -0.949884803703    31.972071174400
         N            2.931656054556     0.000738096158     1.577576196297    14.003074004430
         C           -0.159498945444    -0.000177903842    -0.365380803703    12.000000000000
         C           -0.821421945444     1.216436096158    -0.171165803703    12.000000000000
         C           -0.821556945444    -1.216583903842    -0.170327803703    12.000000000000
         C           -2.153830945444     1.210146096158     0.244436196297    12.000000000000
         C           -2.153967945444    -1.209858903842     0.245263196297    12.000000000000
         C           -2.820587945444     0.000251096158     0.450692196297    12.000000000000
         C            2.234349354556     0.000158096158     0.379557396297    12.000000000000
         H           -0.294735945444     2.153184096158    -0.333170803703     1.007825032230
         H           -0.294973945444    -2.153502903842    -0.331680803703     1.007825032230
         H           -2.671462945444     2.152771096158     0.402816196297     1.007825032230
         H           -2.671704945444    -2.152316903842     0.404290196297     1.007825032230
         H           -3.858808945444     0.000420096158     0.772560196297     1.007825032230

  Basis Set: AUG-CC-PVTZ
    Blend: AUG-CC-PVTZ
  Basis Set: (AUG-CC-PVTZ AUX)
    Blend: AUG-CC-PVTZ-JKFIT
	 Reference Energy          =    -719.9446934871441499 [Eh]
	 Singles Energy            =      -0.0000000000000000 [Eh]
	 Same-Spin Energy          =      -0.4277135761866490 [Eh]
	 Opposite-Spin Energy      =      -1.2760174177157024 [Eh]
	 Correlation Energy        =      -1.7037309939023515 [Eh]
	 Total Energy              =    -721.6484244810465043 [Eh]

	 ================> DF-SCS-MP2 Energies <==================
	-----------------------------------------------------------
	 SCS Same-Spin Scale       =       0.3333333333333333 [-]
	 SCS Opposite-Spin Scale   =       1.2000000000000000 [-]
	 SCS Same-Spin Energy      =      -0.1425711920622163 [Eh]
	 SCS Opposite-Spin Energy  =      -1.5312209012588429 [Eh]
	 SCS Correlation Energy    =      -1.6737920933210593 [Eh]
	 SCS Total Energy          =    -721.6184855804651761 [Eh]
	-----------------------------------------------------------

  Dipole Moment: [D]
     X:    -5.0439      Y:    -0.0012      Z:    -2.5399     Total:     5.6473

*** Psi4 exiting successfully. Buy a developer a beer!
