                               Psi4 1.3.2 release

  ==> Input File <==

--------------------------------------------------------------------------
#psi4
#
memory 32 gb

molecule  {
0 1
  S        1.5940531     0.1247040    -0.9730137
  N        2.9928530     0.0007270     1.5561310
  C       -0.0983020    -0.0001890    -0.3868260
  C       -0.7602250     1.2164250    -0.1926110
  C       -0.7603600    -1.2165950    -0.1917730
  C       -2.0926340     1.2101350     0.2229910
  C       -2.0927710    -1.2098700     0.2238180
  C       -2.7593910     0.0002400     0.4292470
  C        2.3883410     0.0002320     0.5352820
  H       -0.2335390     2.1531730    -0.3546160
  H       -0.2337770    -2.1535140    -0.3531260
  H       -2.6102660     2.1527600     0.3813710
  H       -2.6105080    -2.1523280     0.3828450
  H       -3.7976120     0.0004090     0.7511150
units angstrom
no_reorient  #important for SAPT in psi4, default
symmetry c1  #important for SAPT in psi4, default
}

set PROPERTIES_ORIGIN ["COM"]
properties('MP2/aug-cc-pvtz', properties = ['dipole'])
--------------------------------------------------------------------------

    Molecular point group: c1
  Charge       = 0
  Multiplicity = 1
  Basis Set: AUG-CC-PVTZ
    Blend: AUG-CC-PVTZ
  Basis Set: (AUG-CC-PVTZ AUX)
    Blend: AUG-CC-PVTZ-JKFIT

    Orbital Energies [Eh]
    ---------------------

    Doubly Occupied:

       1A    -92.024282     2A    -15.587163     3A    -11.303547
       4A    -11.298305     5A    -11.271833     6A    -11.269325
       7A    -11.266567     8A    -11.263227     9A    -11.261933
      10A     -9.023066    11A     -6.704499    12A     -6.702997
      13A     -6.702161    14A     -1.213353    15A     -1.185453
      16A     -1.090772    17A     -1.044296    18A     -0.998547
      19A     -0.857092    20A     -0.839131    21A     -0.734445
      22A     -0.685356    23A     -0.657551    24A     -0.644883
      25A     -0.616162    26A     -0.586836    27A     -0.559858
      28A     -0.531712    29A     -0.528684    30A     -0.516835
      31A     -0.510440    32A     -0.448793    33A     -0.388206
      34A     -0.367014    35A     -0.363550

  @DF-RHF Final Energy:  -720.06462551859227

   => Energetics <=

    Nuclear Repulsion Energy =            440.2007454672157678
    One-Electron Energy =               -1858.4349925191881994
    Two-Electron Energy =                 698.1696215333802229
    Total Energy =                       -720.0646255185922655
  Basis Set: (AUG-CC-PVTZ AUX)
    Blend: AUG-CC-PVTZ-RI
    Molecular point group: c1

    Geometry (in Angstrom), charge = 0, multiplicity = 1:

       Center              X                  Y                   Z               Mass
    ------------   -----------------  -----------------  -----------------  -----------------
         S            1.525835945878     0.095060723767    -0.966916557050    31.972071174400
         N            2.924635845878    -0.028916276233     1.562228142950    14.003074004430
         C           -0.166519154122    -0.029832276233    -0.380728857050    12.000000000000
         C           -0.828442154122     1.186781723767    -0.186513857050    12.000000000000
         C           -0.828577154122    -1.246238276233    -0.185675857050    12.000000000000
         C           -2.160851154122     1.180491723767     0.229088142950    12.000000000000
         C           -2.160988154122    -1.239513276233     0.229915142950    12.000000000000
         C           -2.827608154122    -0.029403276233     0.435344142950    12.000000000000
         C            2.320123845878    -0.029411276233     0.541379142950    12.000000000000
         H           -0.301756154122     2.123529723767    -0.348518857050     1.007825032230
         H           -0.301994154122    -2.183157276233    -0.347028857050     1.007825032230
         H           -2.678483154122     2.123116723767     0.387468142950     1.007825032230
         H           -2.678725154122    -2.181971276233     0.388942142950     1.007825032230
         H           -3.865829154122    -0.029234276233     0.757212142950     1.007825032230

  Basis Set: AUG-CC-PVTZ
    Blend: AUG-CC-PVTZ
  Basis Set: (AUG-CC-PVTZ AUX)
    Blend: AUG-CC-PVTZ-JKFIT
	 Reference Energy          =    -720.0646255185922655 [Eh]
	 Singles Energy            =      -0.0000000000000000 [Eh]
	 Same-Spin Energy          =      -0.4128960172711167 [Eh]
	 Opposite-Spin Energy      =      -1.2515686204917396 [Eh]
	 Correlation Energy        =      -1.6644646377628562 [Eh]
	 Total Energy              =    -721.7290901563551415 [Eh]

	 ================> DF-SCS-MP2 Energies <==================
	-----------------------------------------------------------
	 SCS Same-Spin Scale       =       0.3333333333333333 [-]
	 SCS Opposite-Spin Scale   =       1.2000000000000000 [-]
	 SCS Same-Spin Energy      =      -0.1376320057570389 [Eh]
	 SCS Opposite-Spin Energy  =      -1.5018823445900875 [Eh]
	 SCS Correlation Energy    =      -1.6395143503471263 [Eh]
	 SCS Total Energy          =    -721.7041398689393645 [Eh]
	-----------------------------------------------------------

  Dipole Moment: [D]
     X:    -4.1604      Y:     0.0394      Z:    -1.9774     Total:     4.6066

*** Psi4 exiting successfully. Buy a developer a beer!
