                               Psi4 1.3.2 release

  ==> Input File <==

--------------------------------------------------------------------------
#psi4
#
memory 32 gb

molecule  {
0 1
  S        1.6522967    -0.0004989    -0.9979516
  N        2.9928530     0.0007270     1.5561310
  C       -0.0983020    -0.0001890    -0.3868260
  C       -0.7602250     1.2164250    -0.1926110
  C       -0.7603600    -1.2165950    -0.1917730
  C       -2.0926340     1.2101350     0.2229910
  C       -2.0927710    -1.2098700     0.2238180
  C       -2.7593910     0.0002400     0.4292470
  C        2.3883410     0.0002320     0.5352820
  H       -0.2335390     2.1531730    -0.3546160
  H       -0.2337770    -2.1535140    -0.3531260
  H       -2.6102660     2.1527600     0.3813710
  H       -2.6105080    -2.1523280     0.3828450
  H       -3.7976120     0.0004090     0.7511150
units angstrom
no_reorient  #important for SAPT in psi4, default
symmetry c1  #important for SAPT in psi4, default
}

set PROPERTIES_ORIGIN ["COM"]
properties('MP2/aug-cc-pvtz', properties = ['dipole'])
--------------------------------------------------------------------------

    Molecular point group: c1
  Charge       = 0
  Multiplicity = 1
  Basis Set: AUG-CC-PVTZ
    Blend: AUG-CC-PVTZ
  Basis Set: (AUG-CC-PVTZ AUX)
    Blend: AUG-CC-PVTZ-JKFIT

    Orbital Energies [Eh]
    ---------------------

    Doubly Occupied:

       1A    -92.026813     2A    -15.586433     3A    -11.303713
       4A    -11.303357     5A    -11.270692     6A    -11.270655
       7A    -11.265940     8A    -11.262878     9A    -11.262634
      10A     -9.024816    11A     -6.706228    12A     -6.704647
      13A     -6.703874    14A     -1.212679    15A     -1.183578
      16A     -1.084195    17A     -1.044132    18A     -1.001279
      19A     -0.856090    20A     -0.838028    21A     -0.731571
      22A     -0.681718    23A     -0.656091    24A     -0.645600
      25A     -0.616029    26A     -0.585706    27A     -0.558635
      28A     -0.531247    29A     -0.528285    30A     -0.516703
      31A     -0.512563    32A     -0.445654    33A     -0.388242
      34A     -0.367535    35A     -0.363551

  @DF-RHF Final Energy:  -720.06375169291721

   => Energetics <=

    Nuclear Repulsion Energy =            438.1356543492597098
    One-Electron Energy =               -1854.3152231215763095
    Two-Electron Energy =                 696.1158170793993349
    Total Energy =                       -720.0637516929172079
  Basis Set: (AUG-CC-PVTZ AUX)
    Blend: AUG-CC-PVTZ-RI
    Molecular point group: c1

    Geometry (in Angstrom), charge = 0, multiplicity = 1:

       Center              X                  Y                   Z               Mass
    ------------   -----------------  -----------------  -----------------  -----------------
         S            1.570287162895    -0.000493487839    -0.985949034522    31.972071174400
         N            2.910843462895     0.000732412161     1.568133565478    14.003074004430
         C           -0.180311537105    -0.000183587839    -0.374823434522    12.000000000000
         C           -0.842234537105     1.216430412161    -0.180608434522    12.000000000000
         C           -0.842369537105    -1.216589587839    -0.179770434522    12.000000000000
         C           -2.174643537105     1.210140412161     0.234993565478    12.000000000000
         C           -2.174780537105    -1.209864587839     0.235820565478    12.000000000000
         C           -2.841400537105     0.000245412161     0.441249565478    12.000000000000
         C            2.306331462895     0.000237412161     0.547284565478    12.000000000000
         H           -0.315548537105     2.153178412161    -0.342613434522     1.007825032230
         H           -0.315786537105    -2.153508587839    -0.341123434522     1.007825032230
         H           -2.692275537105     2.152765412161     0.393373565478     1.007825032230
         H           -2.692517537105    -2.152322587839     0.394847565478     1.007825032230
         H           -3.879621537105     0.000414412161     0.763117565478     1.007825032230

  Basis Set: AUG-CC-PVTZ
    Blend: AUG-CC-PVTZ
  Basis Set: (AUG-CC-PVTZ AUX)
    Blend: AUG-CC-PVTZ-JKFIT
	 Reference Energy          =    -720.0637516929172079 [Eh]
	 Singles Energy            =      -0.0000000000000000 [Eh]
	 Same-Spin Energy          =      -0.4126839645929898 [Eh]
	 Opposite-Spin Energy      =      -1.2517981283424122 [Eh]
	 Correlation Energy        =      -1.6644820929354021 [Eh]
	 Total Energy              =    -721.7282337858525807 [Eh]

	 ================> DF-SCS-MP2 Energies <==================
	-----------------------------------------------------------
	 SCS Same-Spin Scale       =       0.3333333333333333 [-]
	 SCS Opposite-Spin Scale   =       1.2000000000000000 [-]
	 SCS Same-Spin Energy      =      -0.1375613215309966 [Eh]
	 SCS Opposite-Spin Energy  =      -1.5021577540108946 [Eh]
	 SCS Correlation Energy    =      -1.6397190755418911 [Eh]
	 SCS Total Energy          =    -721.7034707684590558 [Eh]
	-----------------------------------------------------------

  Dipole Moment: [D]
     X:    -4.1018      Y:    -0.0009      Z:    -2.0440     Total:     4.5829

*** Psi4 exiting successfully. Buy a developer a beer!
