                               Psi4 1.3.2 release

  ==> Input File <==

--------------------------------------------------------------------------
#psi4
#
memory 32 gb

molecule  {
0 1
  S        1.5730622    -0.0004867    -0.9573288
  N        2.9928530     0.0007270     1.5561310
  C       -0.0983020    -0.0001890    -0.3868260
  C       -0.7602250     1.2164250    -0.1926110
  C       -0.7603600    -1.2165950    -0.1917730
  C       -2.0926340     1.2101350     0.2229910
  C       -2.0927710    -1.2098700     0.2238180
  C       -2.7593910     0.0002400     0.4292470
  C        2.3883410     0.0002320     0.5352820
  H       -0.2335390     2.1531730    -0.3546160
  H       -0.2337770    -2.1535140    -0.3531260
  H       -2.6102660     2.1527600     0.3813710
  H       -2.6105080    -2.1523280     0.3828450
  H       -3.7976120     0.0004090     0.7511150
units angstrom
no_reorient  #important for SAPT in psi4, default
symmetry c1  #important for SAPT in psi4, default
}

set PROPERTIES_ORIGIN ["COM"]
properties('MP2/aug-cc-pvtz', properties = ['dipole'])
--------------------------------------------------------------------------

    Molecular point group: c1
  Charge       = 0
  Multiplicity = 1
  Basis Set: AUG-CC-PVTZ
    Blend: AUG-CC-PVTZ
  Basis Set: (AUG-CC-PVTZ AUX)
    Blend: AUG-CC-PVTZ-JKFIT

    Orbital Energies [Eh]
    ---------------------

    Doubly Occupied:

       1A    -92.021616     2A    -15.587216     3A    -11.303049
       4A    -11.295567     5A    -11.270888     6A    -11.270844
       7A    -11.267229     8A    -11.262729     9A    -11.262561
      10A     -9.021213    11A     -6.702718    12A     -6.701226
      13A     -6.700363    14A     -1.214107    15A     -1.186613
      16A     -1.094942    17A     -1.044628    18A     -0.998980
      19A     -0.857604    20A     -0.840658    21A     -0.736792
      22A     -0.687930    23A     -0.658621    24A     -0.644813
      25A     -0.616371    26A     -0.587561    27A     -0.560647
      28A     -0.532620    29A     -0.529690    30A     -0.515931
      31A     -0.511292    32A     -0.449192    33A     -0.386470
      34A     -0.368117    35A     -0.363737

  @DF-RHF Final Energy:  -720.06577396945931

   => Energetics <=

    Nuclear Repulsion Energy =            441.4487275857740087
    One-Electron Energy =               -1860.9199264237906846
    Two-Electron Energy =                 699.4054248685574748
    Total Energy =                       -720.0657739694593147
  Basis Set: (AUG-CC-PVTZ AUX)
    Blend: AUG-CC-PVTZ-RI
    Molecular point group: c1

    Geometry (in Angstrom), charge = 0, multiplicity = 1:

       Center              X                  Y                   Z               Mass
    ------------   -----------------  -----------------  -----------------  -----------------
         S            1.509815798578    -0.000484176861    -0.954945921756    31.972071174400
         N            2.929606598578     0.000729523139     1.558513878244    14.003074004430
         C           -0.161548401422    -0.000186476861    -0.384443121756    12.000000000000
         C           -0.823471401422     1.216427523139    -0.190228121756    12.000000000000
         C           -0.823606401422    -1.216592476861    -0.189390121756    12.000000000000
         C           -2.155880401422     1.210137523139     0.225373878244    12.000000000000
         C           -2.156017401422    -1.209867476861     0.226200878244    12.000000000000
         C           -2.822637401422     0.000242523139     0.431629878244    12.000000000000
         C            2.325094598578     0.000234523139     0.537664878244    12.000000000000
         H           -0.296785401422     2.153175523139    -0.352233121756     1.007825032230
         H           -0.297023401422    -2.153511476861    -0.350743121756     1.007825032230
         H           -2.673512401422     2.152762523139     0.383753878244     1.007825032230
         H           -2.673754401422    -2.152325476861     0.385227878244     1.007825032230
         H           -3.860858401422     0.000411523139     0.753497878244     1.007825032230

  Basis Set: AUG-CC-PVTZ
    Blend: AUG-CC-PVTZ
  Basis Set: (AUG-CC-PVTZ AUX)
    Blend: AUG-CC-PVTZ-JKFIT
	 Reference Energy          =    -720.0657739694593147 [Eh]
	 Singles Energy            =      -0.0000000000000000 [Eh]
	 Same-Spin Energy          =      -0.4130742907117171 [Eh]
	 Opposite-Spin Energy      =      -1.2512696420766107 [Eh]
	 Correlation Energy        =      -1.6643439327883278 [Eh]
	 Total Energy              =    -721.7301179022476845 [Eh]

	 ================> DF-SCS-MP2 Energies <==================
	-----------------------------------------------------------
	 SCS Same-Spin Scale       =       0.3333333333333333 [-]
	 SCS Opposite-Spin Scale   =       1.2000000000000000 [-]
	 SCS Same-Spin Energy      =      -0.1376914302372390 [Eh]
	 SCS Opposite-Spin Energy  =      -1.5015235704919327 [Eh]
	 SCS Correlation Energy    =      -1.6392150007291717 [Eh]
	 SCS Total Energy          =    -721.7049889701885377 [Eh]
	-----------------------------------------------------------

  Dipole Moment: [D]
     X:    -4.2158      Y:    -0.0009      Z:    -1.9416     Total:     4.6414

*** Psi4 exiting successfully. Buy a developer a beer!
