                               Psi4 1.4a3.dev225

  ==> Input File <==

--------------------------------------------------------------------------
#psi4
#
memory 32 gb

molecule  {
0 1
  S        1.5760570    -0.7866040    -0.6163520
  N        3.0341730     1.0750000     1.0360560
  C       -0.1048350    -0.2840020    -0.2434360
  C       -0.5575540     0.9935740    -0.5890840
  C       -0.9686960    -1.2210780     0.3301710
  C       -1.8821680     1.3412840    -0.3245050
  C       -2.2987160    -0.8680880     0.5684580
  C       -2.7556360     0.4105630     0.2446000
  C        2.3801100     0.2836436     0.3472980
  H        0.1226330     1.7094560    -1.0436160
  H       -0.6002520    -2.2070840     0.6009630
  H       -2.2361210     2.3368740    -0.5796600
  H       -2.9743520    -1.5927660     1.0156100
  H       -3.7893020     0.6841560     0.4396570
units angstrom
no_reorient  #important for SAPT in psi4, default
symmetry c1  #important for SAPT in psi4, default
}

set PROPERTIES_ORIGIN ["COM"]
properties('MP2/aug-cc-pvtz', properties = ['dipole'])
--------------------------------------------------------------------------

    Molecular point group: c1
  Charge       = 0
  Multiplicity = 1
  Basis Set: AUG-CC-PVTZ
    Blend: AUG-CC-PVTZ
  Basis Set: (AUG-CC-PVTZ AUX)
    Blend: AUG-CC-PVTZ-JKFIT

    Orbital Energies [Eh]
    ---------------------

    Doubly Occupied:

       1A    -92.024443     2A    -15.601557     3A    -11.317047
       4A    -11.300261     5A    -11.270937     6A    -11.269644
       7A    -11.265417     8A    -11.263093     9A    -11.262699
      10A     -9.024863    11A     -6.706528    12A     -6.704777
      13A     -6.704018    14A     -1.201529    15A     -1.180354
      16A     -1.096062    17A     -1.044469    18A     -1.007150
      19A     -0.857875    20A     -0.842305    21A     -0.738153
      22A     -0.691688    23A     -0.657946    24A     -0.644456
      25A     -0.616270    26A     -0.589520    27A     -0.560811
      28A     -0.535263    29A     -0.527606    30A     -0.517941
      31A     -0.510467    32A     -0.435709    33A     -0.394425
      34A     -0.364117    35A     -0.354467

  @DF-RHF Final Energy:  -720.04754832953518

   => Energetics <=

    Nuclear Repulsion Energy =            441.1675578842004484
    One-Electron Energy =               -1860.2624736855111678
    Two-Electron Energy =                 699.0473674717754875
    Total Energy =                       -720.0475483295351751
  Basis Set: (AUG-CC-PVTZ AUX)
    Blend: AUG-CC-PVTZ-RI
    Molecular point group: c1

    Geometry (in Angstrom), charge = 0, multiplicity = 1:

       Center              X                  Y                   Z               Mass
    ------------   -----------------  -----------------  -----------------  -----------------
         S            1.508834026430    -0.777068881532    -0.610725074114    31.972071174400
         N            2.966950026430     1.084535118468     1.041682925886    14.003074004430
         C           -0.172057973570    -0.274466881532    -0.237809074114    12.000000000000
         C           -0.624776973570     1.003109118468    -0.583457074114    12.000000000000
         C           -1.035918973570    -1.211542881532     0.335797925886    12.000000000000
         C           -1.949390973570     1.350819118468    -0.318878074114    12.000000000000
         C           -2.365938973570    -0.858552881532     0.574084925886    12.000000000000
         C           -2.822858973570     0.420098118468     0.250226925886    12.000000000000
         C            2.312887026430     0.293178718468     0.352924925886    12.000000000000
         H            0.055410026430     1.718991118468    -1.037989074114     1.007825032230
         H           -0.667474973570    -2.197548881532     0.606589925886     1.007825032230
         H           -2.303343973570     2.346409118468    -0.574033074114     1.007825032230
         H           -3.041574973570    -1.583230881532     1.021236925886     1.007825032230
         H           -3.856524973570     0.693691118468     0.445283925886     1.007825032230

  Basis Set: AUG-CC-PVTZ
    Blend: AUG-CC-PVTZ
  Basis Set: (AUG-CC-PVTZ AUX)
    Blend: AUG-CC-PVTZ-JKFIT
	 Reference Energy          =    -720.0475483295351751 [Eh]
	 Singles Energy            =      -0.0000000000000000 [Eh]
	 Same-Spin Energy          =      -0.4174227964499231 [Eh]
	 Opposite-Spin Energy      =      -1.2587880235414231 [Eh]
	 Correlation Energy        =      -1.6762108199913461 [Eh]
	 Total Energy              =    -721.7237591495264724 [Eh]

	 ================> DF-SCS-MP2 Energies <==================
	-----------------------------------------------------------
	 SCS Same-Spin Scale       =       0.3333333333333333 [-]
	 SCS Opposite-Spin Scale   =       1.2000000000000000 [-]
	 SCS Same-Spin Energy      =      -0.1391409321499744 [Eh]
	 SCS Opposite-Spin Energy  =      -1.5105456282497076 [Eh]
	 SCS Correlation Energy    =      -1.6496865603996820 [Eh]
	 SCS Total Energy          =    -721.6972348899348617 [Eh]
	-----------------------------------------------------------

  Dipole Moment: [D]
     X:    -4.1454      Y:    -1.3614      Z:    -1.3656     Total:     4.5719

*** Psi4 exiting successfully. Buy a developer a beer!
