                               Psi4 1.3.2 release

  ==> Input File <==

--------------------------------------------------------------------------
#psi4
#
memory 32 gb

molecule  {
0 1
  S        1.5992360    -0.0004910    -0.9713300
  N        2.9928530     0.0007270     1.5561310
  C       -0.0983020    -0.0001890    -0.3868260
  C       -0.7602250     1.2164250    -0.1926110
  C       -0.7603600    -1.2165950    -0.1917730
  C       -2.0926340     1.2101350     0.2229910
  C       -2.0927710    -1.2098700     0.2238180
  C       -2.7593910     0.0002400     0.4292470
  C        2.3419437     0.0001895     0.4466971
  H       -0.2335390     2.1531730    -0.3546160
  H       -0.2337770    -2.1535140    -0.3531260
  H       -2.6102660     2.1527600     0.3813710
  H       -2.6105080    -2.1523280     0.3828450
  H       -3.7976120     0.0004090     0.7511150
units angstrom
no_reorient  #important for SAPT in psi4, default
symmetry c1  #important for SAPT in psi4, default
}

set PROPERTIES_ORIGIN ["COM"]
properties('MP2/aug-cc-pvtz', properties = ['dipole'])
--------------------------------------------------------------------------

    Molecular point group: c1
  Charge       = 0
  Multiplicity = 1
  Basis Set: AUG-CC-PVTZ
    Blend: AUG-CC-PVTZ
  Basis Set: (AUG-CC-PVTZ AUX)
    Blend: AUG-CC-PVTZ-JKFIT

    Orbital Energies [Eh]
    ---------------------

    Doubly Occupied:

       1A    -92.023094     2A    -15.610147     3A    -11.325064
       4A    -11.300031     5A    -11.272031     6A    -11.271990
       7A    -11.267373     8A    -11.263901     9A    -11.263685
      10A     -9.025010    11A     -6.706846    12A     -6.704849
      13A     -6.704209    14A     -1.198075    15A     -1.168463
      16A     -1.096305    17A     -1.045543    18A     -1.013356
      19A     -0.858362    20A     -0.845681    21A     -0.741956
      22A     -0.693845    23A     -0.659223    24A     -0.648345
      25A     -0.617380    26A     -0.591795    27A     -0.558288
      28A     -0.533381    29A     -0.530739    30A     -0.518446
      31A     -0.509041    32A     -0.418578    33A     -0.374572
      34A     -0.368016    35A     -0.364361

  @DF-RHF Final Energy:  -720.02060528059360

   => Energetics <=

    Nuclear Repulsion Energy =            441.2987905199496481
    One-Electron Energy =               -1860.4548256718555876
    Two-Electron Energy =                 699.1354298713124535
    Total Energy =                       -720.0206052805935997
  Basis Set: (AUG-CC-PVTZ AUX)
    Blend: AUG-CC-PVTZ-RI
    Molecular point group: c1

    Geometry (in Angstrom), charge = 0, multiplicity = 1:

       Center              X                  Y                   Z               Mass
    ------------   -----------------  -----------------  -----------------  -----------------
         S            1.533915277132    -0.000483681221    -0.957758184771    31.972071174400
         N            2.927532277132     0.000734318779     1.569702815229    14.003074004430
         C           -0.163622722868    -0.000181681221    -0.373254184771    12.000000000000
         C           -0.825545722868     1.216432318779    -0.179039184771    12.000000000000
         C           -0.825680722868    -1.216587681221    -0.178201184771    12.000000000000
         C           -2.157954722868     1.210142318779     0.236562815229    12.000000000000
         C           -2.158091722868    -1.209862681221     0.237389815229    12.000000000000
         C           -2.824711722868     0.000247318779     0.442818815229    12.000000000000
         C            2.276622977132     0.000196818779     0.460268915229    12.000000000000
         H           -0.298859722868     2.153180318779    -0.341044184771     1.007825032230
         H           -0.299097722868    -2.153506681221    -0.339554184771     1.007825032230
         H           -2.675586722868     2.152767318779     0.394942815229     1.007825032230
         H           -2.675828722868    -2.152320681221     0.396416815229     1.007825032230
         H           -3.862932722868     0.000416318779     0.764686815229     1.007825032230

  Basis Set: AUG-CC-PVTZ
    Blend: AUG-CC-PVTZ
  Basis Set: (AUG-CC-PVTZ AUX)
    Blend: AUG-CC-PVTZ-JKFIT
	 Reference Energy          =    -720.0206052805935997 [Eh]
	 Singles Energy            =      -0.0000000000000000 [Eh]
	 Same-Spin Energy          =      -0.4214768994127701 [Eh]
	 Opposite-Spin Energy      =      -1.2659235298631997 [Eh]
	 Correlation Energy        =      -1.6874004292759697 [Eh]
	 Total Energy              =    -721.7080057098695534 [Eh]

	 ================> DF-SCS-MP2 Energies <==================
	-----------------------------------------------------------
	 SCS Same-Spin Scale       =       0.3333333333333333 [-]
	 SCS Opposite-Spin Scale   =       1.2000000000000000 [-]
	 SCS Same-Spin Energy      =      -0.1404922998042567 [Eh]
	 SCS Opposite-Spin Energy  =      -1.5191082358358396 [Eh]
	 SCS Correlation Energy    =      -1.6596005356400965 [Eh]
	 SCS Total Energy          =    -721.6802058162337516 [Eh]
	-----------------------------------------------------------

  Dipole Moment: [D]
     X:    -4.3121      Y:    -0.0009      Z:    -2.0686     Total:     4.7826

*** Psi4 exiting successfully. Buy a developer a beer!
