                               Psi4 1.4a3.dev225

  ==> Input File <==

--------------------------------------------------------------------------
#psi4
#
memory 32 gb

molecule  {
0 1
  S        1.5760570    -0.7866040    -0.6163520
  N        3.0341730     1.0750000     1.0360560
  C       -0.1048350    -0.2840020    -0.2434360
  C       -0.5575540     0.9935740    -0.5890840
  C       -0.9686960    -1.2210780     0.3301710
  C       -1.8821680     1.3412840    -0.3245050
  C       -2.2987160    -0.8680880     0.5684580
  C       -2.7556360     0.4105630     0.2446000
  C        2.4150994     0.3288809     0.3876288
  H        0.1226330     1.7094560    -1.0436160
  H       -0.6002520    -2.2070840     0.6009630
  H       -2.2361210     2.3368740    -0.5796600
  H       -2.9743520    -1.5927660     1.0156100
  H       -3.7893020     0.6841560     0.4396570
units angstrom
no_reorient  #important for SAPT in psi4, default
symmetry c1  #important for SAPT in psi4, default
}

set PROPERTIES_ORIGIN ["COM"]
properties('MP2/aug-cc-pvtz', properties = ['dipole'])
--------------------------------------------------------------------------

    Molecular point group: c1
  Charge       = 0
  Multiplicity = 1
  Basis Set: AUG-CC-PVTZ
    Blend: AUG-CC-PVTZ
  Basis Set: (AUG-CC-PVTZ AUX)
    Blend: AUG-CC-PVTZ-JKFIT

    Orbital Energies [Eh]
    ---------------------

    Doubly Occupied:

       1A    -92.025366     2A    -15.583263     3A    -11.299552
       4A    -11.299256     5A    -11.270102     6A    -11.268796
       7A    -11.264862     8A    -11.262417     9A    -11.262061
      10A     -9.023936    11A     -6.705365    12A     -6.703878
      13A     -6.703017    14A     -1.223618    15A     -1.185837
      16A     -1.090352    17A     -1.043751    18A     -0.997203
      19A     -0.856936    20A     -0.838225    21A     -0.733238
      22A     -0.685784    23A     -0.656878    24A     -0.641874
      25A     -0.615553    26A     -0.586600    27A     -0.560903
      28A     -0.534628    29A     -0.526927    30A     -0.517445
      31A     -0.514554    32A     -0.455994    33A     -0.402154
      34A     -0.363484    35A     -0.355462

  @DF-RHF Final Energy:  -720.06972055855613

   => Energetics <=

    Nuclear Repulsion Energy =            440.5949759848916187
    One-Electron Energy =               -1859.2108558848551638
    Two-Electron Energy =                 698.5461593414074741
    Total Energy =                       -720.0697205585561278
  Basis Set: (AUG-CC-PVTZ AUX)
    Blend: AUG-CC-PVTZ-RI
    Molecular point group: c1

    Geometry (in Angstrom), charge = 0, multiplicity = 1:

       Center              X                  Y                   Z               Mass
    ------------   -----------------  -----------------  -----------------  -----------------
         S            1.505724186270    -0.781089549855    -0.614309655202    31.972071174400
         N            2.963840186270     1.080514450145     1.038098344798    14.003074004430
         C           -0.175167813730    -0.278487549855    -0.241393655202    12.000000000000
         C           -0.627886813730     0.999088450145    -0.587041655202    12.000000000000
         C           -1.039028813730    -1.215563549855     0.332213344798    12.000000000000
         C           -1.952500813730     1.346798450145    -0.322462655202    12.000000000000
         C           -2.369048813730    -0.862573549855     0.570500344798    12.000000000000
         C           -2.825968813730     0.416077450145     0.246642344798    12.000000000000
         C            2.344766586270     0.334395350145     0.389671144798    12.000000000000
         H            0.052300186270     1.714970450145    -1.041573655202     1.007825032230
         H           -0.670584813730    -2.201569549855     0.603005344798     1.007825032230
         H           -2.306453813730     2.342388450145    -0.577617655202     1.007825032230
         H           -3.044684813730    -1.587251549855     1.017652344798     1.007825032230
         H           -3.859634813730     0.689670450145     0.441699344798     1.007825032230

  Basis Set: AUG-CC-PVTZ
    Blend: AUG-CC-PVTZ
  Basis Set: (AUG-CC-PVTZ AUX)
    Blend: AUG-CC-PVTZ-JKFIT
	 Reference Energy          =    -720.0697205585561278 [Eh]
	 Singles Energy            =      -0.0000000000000000 [Eh]
	 Same-Spin Energy          =      -0.4115747393363244 [Eh]
	 Opposite-Spin Energy      =      -1.2488230863749801 [Eh]
	 Correlation Energy        =      -1.6603978257113046 [Eh]
	 Total Energy              =    -721.7301183842674845 [Eh]

	 ================> DF-SCS-MP2 Energies <==================
	-----------------------------------------------------------
	 SCS Same-Spin Scale       =       0.3333333333333333 [-]
	 SCS Opposite-Spin Scale   =       1.2000000000000000 [-]
	 SCS Same-Spin Energy      =      -0.1371915797787748 [Eh]
	 SCS Opposite-Spin Energy  =      -1.4985877036499760 [Eh]
	 SCS Correlation Energy    =      -1.6357792834287508 [Eh]
	 SCS Total Energy          =    -721.7054998419848744 [Eh]
	-----------------------------------------------------------

  Dipole Moment: [D]
     X:    -4.0815      Y:    -1.3360      Z:    -1.3329     Total:     4.4967

*** Psi4 exiting successfully. Buy a developer a beer!
