                               Psi4 1.4a3.dev225

  ==> Input File <==

--------------------------------------------------------------------------
#psi4
#
memory 32 gb

molecule  {
0 1
  S        1.5760570    -0.7866040    -0.6163520
  N        3.0341730     1.0750000     1.0360560
  C       -0.1048350    -0.2840020    -0.2434360
  C       -0.5575540     0.9935740    -0.5890840
  C       -0.9686960    -1.2210780     0.3301710
  C       -1.8821680     1.3412840    -0.3245050
  C       -2.2987160    -0.8680880     0.5684580
  C       -2.7556360     0.4105630     0.2446000
  C        2.4142336     0.3290643     0.3881948
  H        0.1226330     1.7094560    -1.0436160
  H       -0.6002520    -2.2070840     0.6009630
  H       -2.2361210     2.3368740    -0.5796600
  H       -2.9743520    -1.5927660     1.0156100
  H       -3.7893020     0.6841560     0.4396570
units angstrom
no_reorient  #important for SAPT in psi4, default
symmetry c1  #important for SAPT in psi4, default
}

set PROPERTIES_ORIGIN ["COM"]
properties('MP2/aug-cc-pvtz', properties = ['dipole'])
--------------------------------------------------------------------------

    Molecular point group: c1
  Charge       = 0
  Multiplicity = 1
  Basis Set: AUG-CC-PVTZ
    Blend: AUG-CC-PVTZ
  Basis Set: (AUG-CC-PVTZ AUX)
    Blend: AUG-CC-PVTZ-JKFIT

    Orbital Energies [Eh]
    ---------------------

    Doubly Occupied:

       1A    -92.025382     2A    -15.583263     3A    -11.299552
       4A    -11.299247     5A    -11.270093     6A    -11.268791
       7A    -11.264857     8A    -11.262413     9A    -11.262058
      10A     -9.023951    11A     -6.705379    12A     -6.703892
      13A     -6.703031    14A     -1.223601    15A     -1.185834
      16A     -1.090359    17A     -1.043747    18A     -0.997195
      19A     -0.856933    20A     -0.838210    21A     -0.733220
      22A     -0.685773    23A     -0.656875    24A     -0.641880
      25A     -0.615550    26A     -0.586616    27A     -0.560904
      28A     -0.534616    29A     -0.526922    30A     -0.517445
      31A     -0.514545    32A     -0.455994    33A     -0.402145
      34A     -0.363481    35A     -0.355465

  @DF-RHF Final Energy:  -720.06970771080455

   => Energetics <=

    Nuclear Repulsion Energy =            440.6005036276211513
    One-Electron Energy =               -1859.2219815426990408
    Two-Electron Energy =                 698.5517702042732253
    Total Energy =                       -720.0697077108045505
  Basis Set: (AUG-CC-PVTZ AUX)
    Blend: AUG-CC-PVTZ-RI
    Molecular point group: c1

    Geometry (in Angstrom), charge = 0, multiplicity = 1:

       Center              X                  Y                   Z               Mass
    ------------   -----------------  -----------------  -----------------  -----------------
         S            1.505801138136    -0.781105850354    -0.614359960995    31.972071174400
         N            2.963917138136     1.080498149646     1.038048039005    14.003074004430
         C           -0.175090861864    -0.278503850354    -0.241443960995    12.000000000000
         C           -0.627809861864     0.999072149646    -0.587091960995    12.000000000000
         C           -1.038951861864    -1.215579850354     0.332163039005    12.000000000000
         C           -1.952423861864     1.346782149646    -0.322512960995    12.000000000000
         C           -2.368971861864    -0.862589850354     0.570450039005    12.000000000000
         C           -2.825891861864     0.416061149646     0.246592039005    12.000000000000
         C            2.343977738136     0.334562449646     0.390186839005    12.000000000000
         H            0.052377138136     1.714954149646    -1.041623960995     1.007825032230
         H           -0.670507861864    -2.201585850354     0.602955039005     1.007825032230
         H           -2.306376861864     2.342372149646    -0.577667960995     1.007825032230
         H           -3.044607861864    -1.587267850354     1.017602039005     1.007825032230
         H           -3.859557861864     0.689654149646     0.441649039005     1.007825032230

  Basis Set: AUG-CC-PVTZ
    Blend: AUG-CC-PVTZ
  Basis Set: (AUG-CC-PVTZ AUX)
    Blend: AUG-CC-PVTZ-JKFIT
	 Reference Energy          =    -720.0697077108045505 [Eh]
	 Singles Energy            =      -0.0000000000000000 [Eh]
	 Same-Spin Energy          =      -0.4115794385608425 [Eh]
	 Opposite-Spin Energy      =      -1.2488331011707317 [Eh]
	 Correlation Energy        =      -1.6604125397315741 [Eh]
	 Total Energy              =    -721.7301202505361744 [Eh]

	 ================> DF-SCS-MP2 Energies <==================
	-----------------------------------------------------------
	 SCS Same-Spin Scale       =       0.3333333333333333 [-]
	 SCS Opposite-Spin Scale   =       1.2000000000000000 [-]
	 SCS Same-Spin Energy      =      -0.1371931461869475 [Eh]
	 SCS Opposite-Spin Energy  =      -1.4985997214048778 [Eh]
	 SCS Correlation Energy    =      -1.6357928675918254 [Eh]
	 SCS Total Energy          =    -721.7055005783963679 [Eh]
	-----------------------------------------------------------

  Dipole Moment: [D]
     X:    -4.0813      Y:    -1.3365      Z:    -1.3333     Total:     4.4968

*** Psi4 exiting successfully. Buy a developer a beer!
