                               Psi4 1.3.2 release

  ==> Input File <==

--------------------------------------------------------------------------
#psi4
#
memory 32 gb

molecule  {
0 1
  S        1.5992360    -0.0004910    -0.9713300
  N        2.9928530     0.0007270     1.5561310
  C       -0.0768690    -0.0001606    -0.3279388
  C       -0.7602250     1.2164250    -0.1926110
  C       -0.7603600    -1.2165950    -0.1917730
  C       -2.0926340     1.2101350     0.2229910
  C       -2.0927710    -1.2098700     0.2238180
  C       -2.7593910     0.0002400     0.4292470
  C        2.3883410     0.0002320     0.5352820
  H       -0.2335390     2.1531730    -0.3546160
  H       -0.2337770    -2.1535140    -0.3531260
  H       -2.6102660     2.1527600     0.3813710
  H       -2.6105080    -2.1523280     0.3828450
  H       -3.7976120     0.0004090     0.7511150
units angstrom
no_reorient  #important for SAPT in psi4, default
symmetry c1  #important for SAPT in psi4, default
}

set PROPERTIES_ORIGIN ["COM"]
properties('MP2/aug-cc-pvtz', properties = ['dipole'])
--------------------------------------------------------------------------

    Molecular point group: c1
  Charge       = 0
  Multiplicity = 1
  Basis Set: AUG-CC-PVTZ
    Blend: AUG-CC-PVTZ
  Basis Set: (AUG-CC-PVTZ AUX)
    Blend: AUG-CC-PVTZ-JKFIT

    Orbital Energies [Eh]
    ---------------------

    Doubly Occupied:

       1A    -92.024481     2A    -15.586167     3A    -11.302751
       4A    -11.298701     5A    -11.270772     6A    -11.270732
       7A    -11.266430     8A    -11.262452     9A    -11.262262
      10A     -9.023463    11A     -6.704908    12A     -6.703383
      13A     -6.702545    14A     -1.213271    15A     -1.184587
      16A     -1.091705    17A     -1.043800    18A     -0.999471
      19A     -0.856152    20A     -0.838938    21A     -0.733511
      22A     -0.684484    23A     -0.656814    24A     -0.645712
      25A     -0.615631    26A     -0.588010    27A     -0.559574
      28A     -0.530811    29A     -0.528817    30A     -0.517656
      31A     -0.511090    32A     -0.448214    33A     -0.387664
      34A     -0.366843    35A     -0.362909

  @DF-RHF Final Energy:  -720.06403044067258

   => Energetics <=

    Nuclear Repulsion Energy =            440.4126588598282979
    One-Electron Energy =               -1858.8639551066794411
    Two-Electron Energy =                 698.3872658061785614
    Total Energy =                       -720.0640304406725818
  Basis Set: (AUG-CC-PVTZ AUX)
    Blend: AUG-CC-PVTZ-RI
    Molecular point group: c1

    Geometry (in Angstrom), charge = 0, multiplicity = 1:

       Center              X                  Y                   Z               Mass
    ------------   -----------------  -----------------  -----------------  -----------------
         S            1.527886554405    -0.000489982777    -0.970865430365    31.972071174400
         N            2.921503554405     0.000728017223     1.556595569635    14.003074004430
         C           -0.148218445595    -0.000159582777    -0.327474230365    12.000000000000
         C           -0.831574445595     1.216426017223    -0.192146430365    12.000000000000
         C           -0.831709445595    -1.216593982777    -0.191308430365    12.000000000000
         C           -2.163983445595     1.210136017223     0.223455569635    12.000000000000
         C           -2.164120445595    -1.209868982777     0.224282569635    12.000000000000
         C           -2.830740445595     0.000241017223     0.429711569635    12.000000000000
         C            2.316991554405     0.000233017223     0.535746569635    12.000000000000
         H           -0.304888445595     2.153174017223    -0.354151430365     1.007825032230
         H           -0.305126445595    -2.153512982777    -0.352661430365     1.007825032230
         H           -2.681615445595     2.152761017223     0.381835569635     1.007825032230
         H           -2.681857445595    -2.152326982777     0.383309569635     1.007825032230
         H           -3.868961445595     0.000410017223     0.751579569635     1.007825032230

  Basis Set: AUG-CC-PVTZ
    Blend: AUG-CC-PVTZ
  Basis Set: (AUG-CC-PVTZ AUX)
    Blend: AUG-CC-PVTZ-JKFIT
	 Reference Energy          =    -720.0640304406725818 [Eh]
	 Singles Energy            =      -0.0000000000000000 [Eh]
	 Same-Spin Energy          =      -0.4131405898858574 [Eh]
	 Opposite-Spin Energy      =      -1.2519107799018112 [Eh]
	 Correlation Energy        =      -1.6650513697876685 [Eh]
	 Total Energy              =    -721.7290818104602295 [Eh]

	 ================> DF-SCS-MP2 Energies <==================
	-----------------------------------------------------------
	 SCS Same-Spin Scale       =       0.3333333333333333 [-]
	 SCS Opposite-Spin Scale   =       1.2000000000000000 [-]
	 SCS Same-Spin Energy      =      -0.1377135299619525 [Eh]
	 SCS Opposite-Spin Energy  =      -1.5022929358821735 [Eh]
	 SCS Correlation Energy    =      -1.6400064658441260 [Eh]
	 SCS Total Energy          =    -721.7040369065167624 [Eh]
	-----------------------------------------------------------

  Dipole Moment: [D]
     X:    -4.1358      Y:    -0.0009      Z:    -2.0354     Total:     4.6095

*** Psi4 exiting successfully. Buy a developer a beer!
