                               Psi4 1.3.2 release

  ==> Input File <==

--------------------------------------------------------------------------
#psi4
#
memory 32 gb

molecule  {
0 1
  S        1.5992360    -0.0004910    -0.9713300
  N        2.9928530     0.0007270     1.5561310
  C       -0.1501000    -0.0002761    -0.5674690
  C       -0.7602250     1.2164250    -0.1926110
  C       -0.7603600    -1.2165950    -0.1917730
  C       -2.0926340     1.2101350     0.2229910
  C       -2.0927710    -1.2098700     0.2238180
  C       -2.7593910     0.0002400     0.4292470
  C        2.3883410     0.0002320     0.5352820
  H       -0.2335390     2.1531730    -0.3546160
  H       -0.2337770    -2.1535140    -0.3531260
  H       -2.6102660     2.1527600     0.3813710
  H       -2.6105080    -2.1523280     0.3828450
  H       -3.7976120     0.0004090     0.7511150
units angstrom
no_reorient  #important for SAPT in psi4, default
symmetry c1  #important for SAPT in psi4, default
}

set PROPERTIES_ORIGIN ["COM"]
properties('MP2/aug-cc-pvtz', properties = ['dipole'])
--------------------------------------------------------------------------

    Molecular point group: c1
  Charge       = 0
  Multiplicity = 1
  Basis Set: AUG-CC-PVTZ
    Blend: AUG-CC-PVTZ
  Basis Set: (AUG-CC-PVTZ AUX)
    Blend: AUG-CC-PVTZ-JKFIT

    Orbital Energies [Eh]
    ---------------------

    Doubly Occupied:

       1A    -92.020139     2A    -15.588320     3A    -11.303840
       4A    -11.300734     5A    -11.275522     6A    -11.275482
       7A    -11.270475     8A    -11.263472     9A    -11.263360
      10A     -9.019226    11A     -6.700767    12A     -6.699263
      13A     -6.698454    14A     -1.213639    15A     -1.185060
      16A     -1.089714    17A     -1.045168    18A     -0.998302
      19A     -0.856039    20A     -0.842331    21A     -0.737372
      22A     -0.690681    23A     -0.656486    24A     -0.643871
      25A     -0.617138    26A     -0.583578    27A     -0.559404
      28A     -0.535690    29A     -0.529150    30A     -0.511872
      31A     -0.510982    32A     -0.445991    33A     -0.385415
      34A     -0.370376    35A     -0.363398

  @DF-RHF Final Energy:  -720.05658571357139

   => Energetics <=

    Nuclear Repulsion Energy =            439.4328854422565769
    One-Electron Energy =               -1856.8775176821673085
    Two-Electron Energy =                 697.3880465263393944
    Total Energy =                       -720.0565857135713941
  Basis Set: (AUG-CC-PVTZ AUX)
    Blend: AUG-CC-PVTZ-RI
    Molecular point group: c1

    Geometry (in Angstrom), charge = 0, multiplicity = 1:

       Center              X                  Y                   Z               Mass
    ------------   -----------------  -----------------  -----------------  -----------------
         S            1.534395288614    -0.000479717195    -0.949576107446    31.972071174400
         N            2.928012288614     0.000738282805     1.577884892554    14.003074004430
         C           -0.214940711386    -0.000264817195    -0.545715107446    12.000000000000
         C           -0.825065711386     1.216436282805    -0.170857107446    12.000000000000
         C           -0.825200711386    -1.216583717195    -0.170019107446    12.000000000000
         C           -2.157474711386     1.210146282805     0.244744892554    12.000000000000
         C           -2.157611711386    -1.209858717195     0.245571892554    12.000000000000
         C           -2.824231711386     0.000251282805     0.451000892554    12.000000000000
         C            2.323500288614     0.000243282805     0.557035892554    12.000000000000
         H           -0.298379711386     2.153184282805    -0.332862107446     1.007825032230
         H           -0.298617711386    -2.153502717195    -0.331372107446     1.007825032230
         H           -2.675106711386     2.152771282805     0.403124892554     1.007825032230
         H           -2.675348711386    -2.152316717195     0.404598892554     1.007825032230
         H           -3.862452711386     0.000420282805     0.772868892554     1.007825032230

  Basis Set: AUG-CC-PVTZ
    Blend: AUG-CC-PVTZ
  Basis Set: (AUG-CC-PVTZ AUX)
    Blend: AUG-CC-PVTZ-JKFIT
	 Reference Energy          =    -720.0565857135713941 [Eh]
	 Singles Energy            =      -0.0000000000000000 [Eh]
	 Same-Spin Energy          =      -0.4128105862145082 [Eh]
	 Opposite-Spin Energy      =      -1.2517491600723081 [Eh]
	 Correlation Energy        =      -1.6645597462868162 [Eh]
	 Total Energy              =    -721.7211454598582350 [Eh]

	 ================> DF-SCS-MP2 Energies <==================
	-----------------------------------------------------------
	 SCS Same-Spin Scale       =       0.3333333333333333 [-]
	 SCS Opposite-Spin Scale   =       1.2000000000000000 [-]
	 SCS Same-Spin Energy      =      -0.1376035287381694 [Eh]
	 SCS Opposite-Spin Energy  =      -1.5020989920867696 [Eh]
	 SCS Correlation Energy    =      -1.6397025208249389 [Eh]
	 SCS Total Energy          =    -721.6962882343963201 [Eh]
	-----------------------------------------------------------

  Dipole Moment: [D]
     X:    -4.3811      Y:    -0.0008      Z:    -1.7862     Total:     4.7312

*** Psi4 exiting successfully. Buy a developer a beer!
