                               Psi4 1.3.2 release

  ==> Input File <==

--------------------------------------------------------------------------
#psi4
#
memory 32 gb

molecule  {
0 1
  S        1.7610427    -0.0005119    -1.0455606
  N        2.9928530     0.0007270     1.5561310
  C       -0.0983020    -0.0001890    -0.3868260
  C       -0.7602250     1.2164250    -0.1926110
  C       -0.7603600    -1.2165950    -0.1917730
  C       -2.0926340     1.2101350     0.2229910
  C       -2.0927710    -1.2098700     0.2238180
  C       -2.7593910     0.0002400     0.4292470
  C        2.3883410     0.0002320     0.5352820
  H       -0.2335390     2.1531730    -0.3546160
  H       -0.2337770    -2.1535140    -0.3531260
  H       -2.6102660     2.1527600     0.3813710
  H       -2.6105080    -2.1523280     0.3828450
  H       -3.7976120     0.0004090     0.7511150
units angstrom
no_reorient  #important for SAPT in psi4, default
symmetry c1  #important for SAPT in psi4, default
}

set PROPERTIES_ORIGIN ["COM"]
properties('MP2/aug-cc-pvtz', properties = ['dipole'])
--------------------------------------------------------------------------

    Molecular point group: c1
  Charge       = 0
  Multiplicity = 1
  Basis Set: AUG-CC-PVTZ
    Blend: AUG-CC-PVTZ
  Basis Set: (AUG-CC-PVTZ AUX)
    Blend: AUG-CC-PVTZ-JKFIT

    Orbital Energies [Eh]
    ---------------------

    Doubly Occupied:

       1A    -92.030705     2A    -15.584419     3A    -11.314010
       4A    -11.302738     5A    -11.271617     6A    -11.271584
       7A    -11.265541     8A    -11.263819     9A    -11.263391
      10A     -9.027302    11A     -6.708576    12A     -6.706942
      13A     -6.706191    14A     -1.210725    15A     -1.181710
      16A     -1.071759    17A     -1.044475    18A     -1.003897
      19A     -0.855374    20A     -0.836158    21A     -0.727148
      22A     -0.673078    23A     -0.654408    24A     -0.646887
      25A     -0.616383    26A     -0.582845    27A     -0.555797
      28A     -0.531027    29A     -0.527362    30A     -0.516000
      31A     -0.513274    32A     -0.438485    33A     -0.388595
      34A     -0.367485    35A     -0.364102

  @DF-RHF Final Energy:  -720.05253971095397

   => Energetics <=

    Nuclear Repulsion Energy =            434.0263556454864329
    One-Electron Energy =               -1846.1101721237178026
    Two-Electron Energy =                 692.0312767672772907
    Total Energy =                       -720.0525397109539654
  Basis Set: (AUG-CC-PVTZ AUX)
    Blend: AUG-CC-PVTZ-RI
    Molecular point group: c1

    Geometry (in Angstrom), charge = 0, multiplicity = 1:

       Center              X                  Y                   Z               Mass
    ------------   -----------------  -----------------  -----------------  -----------------
         S            1.653281552764    -0.000503409372    -1.022283979322    31.972071174400
         N            2.885091852764     0.000735490628     1.579407620678    14.003074004430
         C           -0.206063147236    -0.000180509372    -0.363549379322    12.000000000000
         C           -0.867986147236     1.216433490628    -0.169334379322    12.000000000000
         C           -0.868121147236    -1.216586509372    -0.168496379322    12.000000000000
         C           -2.200395147236     1.210143490628     0.246267620678    12.000000000000
         C           -2.200532147236    -1.209861509372     0.247094620678    12.000000000000
         C           -2.867152147236     0.000248490628     0.452523620678    12.000000000000
         C            2.280579852764     0.000240490628     0.558558620678    12.000000000000
         H           -0.341300147236     2.153181490628    -0.331339379322     1.007825032230
         H           -0.341538147236    -2.153505509372    -0.329849379322     1.007825032230
         H           -2.718027147236     2.152768490628     0.404647620678     1.007825032230
         H           -2.718269147236    -2.152319509372     0.406121620678     1.007825032230
         H           -3.905373147236     0.000417490628     0.774391620678     1.007825032230

  Basis Set: AUG-CC-PVTZ
    Blend: AUG-CC-PVTZ
  Basis Set: (AUG-CC-PVTZ AUX)
    Blend: AUG-CC-PVTZ-JKFIT
	 Reference Energy          =    -720.0525397109539654 [Eh]
	 Singles Energy            =      -0.0000000000000000 [Eh]
	 Same-Spin Energy          =      -0.4125849564904569 [Eh]
	 Opposite-Spin Energy      =      -1.2531952624697822 [Eh]
	 Correlation Energy        =      -1.6657802189602391 [Eh]
	 Total Energy              =    -721.7183199299141734 [Eh]

	 ================> DF-SCS-MP2 Energies <==================
	-----------------------------------------------------------
	 SCS Same-Spin Scale       =       0.3333333333333333 [-]
	 SCS Opposite-Spin Scale   =       1.2000000000000000 [-]
	 SCS Same-Spin Energy      =      -0.1375283188301523 [Eh]
	 SCS Opposite-Spin Energy  =      -1.5038343149637385 [Eh]
	 SCS Correlation Energy    =      -1.6413626337938909 [Eh]
	 SCS Total Energy          =    -721.6939023447478121 [Eh]
	-----------------------------------------------------------

  Dipole Moment: [D]
     X:    -4.0366      Y:    -0.0010      Z:    -2.1503     Total:     4.5736

*** Psi4 exiting successfully. Buy a developer a beer!
