                               Psi4 1.3.2 release

  ==> Input File <==

--------------------------------------------------------------------------
#psi4
#
memory 32 gb

molecule  {
0 1
  S        1.5992360    -0.0004910    -0.9713300
  N        2.9928530     0.0007270     1.5561310
  C       -0.0983020    -0.0001890    -0.3868260
  C       -0.7602250     1.2164250    -0.1926110
  C       -0.7603600    -1.2165950    -0.1917730
  C       -2.0926340     1.2101350     0.2229910
  C       -2.0927710    -1.2098700     0.2238180
  C       -2.7593910     0.0002400     0.4292470
  C        2.2864349     0.0001486     0.3631915
  H       -0.2335390     2.1531730    -0.3546160
  H       -0.2337770    -2.1535140    -0.3531260
  H       -2.6102660     2.1527600     0.3813710
  H       -2.6105080    -2.1523280     0.3828450
  H       -3.7976120     0.0004090     0.7511150
units angstrom
no_reorient  #important for SAPT in psi4, default
symmetry c1  #important for SAPT in psi4, default
}

set PROPERTIES_ORIGIN ["COM"]
properties('MP2/aug-cc-pvtz', properties = ['dipole'])
--------------------------------------------------------------------------

    Molecular point group: c1
  Charge       = 0
  Multiplicity = 1
  Basis Set: AUG-CC-PVTZ
    Blend: AUG-CC-PVTZ
  Basis Set: (AUG-CC-PVTZ AUX)
    Blend: AUG-CC-PVTZ-JKFIT

    Orbital Energies [Eh]
    ---------------------

    Doubly Occupied:

       1A    -92.025326     2A    -15.623592     3A    -11.332307
       4A    -11.299800     5A    -11.272713     6A    -11.272671
       7A    -11.267393     8A    -11.264856     9A    -11.264563
      10A     -9.030871    11A     -6.713130    12A     -6.710278
      13A     -6.710014    14A     -1.205774    15A     -1.161829
      16A     -1.078835    17A     -1.046269    18A     -1.021455
      19A     -0.859337    20A     -0.850616    21A     -0.747936
      22A     -0.698630    23A     -0.660440    24A     -0.651027
      25A     -0.618223    26A     -0.598835    27A     -0.552199
      28A     -0.534310    29A     -0.533551    30A     -0.521675
      31A     -0.513298    32A     -0.390600    33A     -0.367812
      34A     -0.363385    35A     -0.363244

  @DF-RHF Final Energy:  -719.94443933358275

   => Energetics <=

    Nuclear Repulsion Energy =            442.8051747790259469
    One-Electron Energy =               -1863.2456387187387463
    Two-Electron Energy =                 700.4960246061300495
    Total Energy =                       -719.9444393335827499
  Basis Set: (AUG-CC-PVTZ AUX)
    Blend: AUG-CC-PVTZ-RI
    Molecular point group: c1

    Geometry (in Angstrom), charge = 0, multiplicity = 1:

       Center              X                  Y                   Z               Mass
    ------------   -----------------  -----------------  -----------------  -----------------
         S            1.538848871175    -0.000480046050    -0.950336249316    31.972071174400
         N            2.932465871175     0.000737953950     1.577124750684    14.003074004430
         C           -0.158689128825    -0.000178046050    -0.365832249316    12.000000000000
         C           -0.820612128825     1.216435953950    -0.171617249316    12.000000000000
         C           -0.820747128825    -1.216584046050    -0.170779249316    12.000000000000
         C           -2.153021128825     1.210145953950     0.243984750684    12.000000000000
         C           -2.153158128825    -1.209859046050     0.244811750684    12.000000000000
         C           -2.819778128825     0.000250953950     0.450240750684    12.000000000000
         C            2.226047771175     0.000159553950     0.384185250684    12.000000000000
         H           -0.293926128825     2.153183953950    -0.333622249316     1.007825032230
         H           -0.294164128825    -2.153503046050    -0.332132249316     1.007825032230
         H           -2.670653128825     2.152770953950     0.402364750684     1.007825032230
         H           -2.670895128825    -2.152317046050     0.403838750684     1.007825032230
         H           -3.857999128825     0.000419953950     0.772108750684     1.007825032230

  Basis Set: AUG-CC-PVTZ
    Blend: AUG-CC-PVTZ
  Basis Set: (AUG-CC-PVTZ AUX)
    Blend: AUG-CC-PVTZ-JKFIT
	 Reference Energy          =    -719.9444393335827499 [Eh]
	 Singles Energy            =      -0.0000000000000000 [Eh]
	 Same-Spin Energy          =      -0.4278335185410898 [Eh]
	 Opposite-Spin Energy      =      -1.2762415436208321 [Eh]
	 Correlation Energy        =      -1.7040750621619218 [Eh]
	 Total Energy              =    -721.6485143957446553 [Eh]

	 ================> DF-SCS-MP2 Energies <==================
	-----------------------------------------------------------
	 SCS Same-Spin Scale       =       0.3333333333333333 [-]
	 SCS Opposite-Spin Scale   =       1.2000000000000000 [-]
	 SCS Same-Spin Energy      =      -0.1426111728470299 [Eh]
	 SCS Opposite-Spin Energy  =      -1.5314898523449985 [Eh]
	 SCS Correlation Energy    =      -1.6741010251920283 [Eh]
	 SCS Total Energy          =    -721.6185403587747942 [Eh]
	-----------------------------------------------------------

  Dipole Moment: [D]
     X:    -5.0423      Y:    -0.0012      Z:    -2.5420     Total:     5.6468

*** Psi4 exiting successfully. Buy a developer a beer!
