                               Psi4 1.3.2 release

  ==> Input File <==

--------------------------------------------------------------------------
#psi4
#
memory 32 gb

molecule  {
0 1
  S        1.5992396    -0.0318134    -0.9704635
  N        2.9928530     0.0007270     1.5561310
  C       -0.0983020    -0.0001890    -0.3868260
  C       -0.7602250     1.2164250    -0.1926110
  C       -0.7603600    -1.2165950    -0.1917730
  C       -2.0926340     1.2101350     0.2229910
  C       -2.0927710    -1.2098700     0.2238180
  C       -2.7593910     0.0002400     0.4292470
  C        2.3883410     0.0002320     0.5352820
  H       -0.2335390     2.1531730    -0.3546160
  H       -0.2337770    -2.1535140    -0.3531260
  H       -2.6102660     2.1527600     0.3813710
  H       -2.6105080    -2.1523280     0.3828450
  H       -3.7976120     0.0004090     0.7511150
units angstrom
no_reorient  #important for SAPT in psi4, default
symmetry c1  #important for SAPT in psi4, default
}

set PROPERTIES_ORIGIN ["COM"]
properties('MP2/aug-cc-pvtz', properties = ['dipole'])
--------------------------------------------------------------------------

    Molecular point group: c1
  Charge       = 0
  Multiplicity = 1
  Basis Set: AUG-CC-PVTZ
    Blend: AUG-CC-PVTZ
  Basis Set: (AUG-CC-PVTZ AUX)
    Blend: AUG-CC-PVTZ-JKFIT

    Orbital Energies [Eh]
    ---------------------

    Doubly Occupied:

       1A    -92.023538     2A    -15.587038     3A    -11.303212
       4A    -11.298329     5A    -11.271024     6A    -11.270397
       7A    -11.266696     8A    -11.262817     9A    -11.262445
      10A     -9.022559    11A     -6.704034    12A     -6.702509
      13A     -6.701683    14A     -1.213645    15A     -1.185435
      16A     -1.091288    17A     -1.044386    18A     -0.999817
      19A     -0.857010    20A     -0.839683    21A     -0.734913
      22A     -0.685926    23A     -0.657649    24A     -0.645038
      25A     -0.616199    26A     -0.586987    27A     -0.559992
      28A     -0.532080    29A     -0.529154    30A     -0.516369
      31A     -0.511791    32A     -0.448169    33A     -0.387225
      34A     -0.367830    35A     -0.363617

  @DF-RHF Final Energy:  -720.06580200229291

   => Energetics <=

    Nuclear Repulsion Energy =            440.3384307413569445
    One-Electron Energy =               -1858.7075050549985917
    Two-Electron Energy =                 698.3032723113487918
    Total Energy =                       -720.0658020022929122
  Basis Set: (AUG-CC-PVTZ AUX)
    Blend: AUG-CC-PVTZ-RI
    Molecular point group: c1

    Geometry (in Angstrom), charge = 0, multiplicity = 1:

       Center              X                  Y                   Z               Mass
    ------------   -----------------  -----------------  -----------------  -----------------
         S            1.529794256097    -0.024392553750    -0.964970257480    31.972071174400
         N            2.923407656097     0.008147846250     1.561624242520    14.003074004430
         C           -0.167747343903     0.007231846250    -0.381332757480    12.000000000000
         C           -0.829670343903     1.223845846250    -0.187117757480    12.000000000000
         C           -0.829805343903    -1.209174153750    -0.186279757480    12.000000000000
         C           -2.162079343903     1.217555846250     0.228484242520    12.000000000000
         C           -2.162216343903    -1.202449153750     0.229311242520    12.000000000000
         C           -2.828836343903     0.007660846250     0.434740242520    12.000000000000
         C            2.318895656097     0.007652846250     0.540775242520    12.000000000000
         H           -0.302984343903     2.160593846250    -0.349122757480     1.007825032230
         H           -0.303222343903    -2.146093153750    -0.347632757480     1.007825032230
         H           -2.679711343903     2.160180846250     0.386864242520     1.007825032230
         H           -2.679953343903    -2.144907153750     0.388338242520     1.007825032230
         H           -3.867057343903     0.007829846250     0.756608242520     1.007825032230

  Basis Set: AUG-CC-PVTZ
    Blend: AUG-CC-PVTZ
  Basis Set: (AUG-CC-PVTZ AUX)
    Blend: AUG-CC-PVTZ-JKFIT
	 Reference Energy          =    -720.0658020022929122 [Eh]
	 Singles Energy            =      -0.0000000000000000 [Eh]
	 Same-Spin Energy          =      -0.4129196550627504 [Eh]
	 Opposite-Spin Energy      =      -1.2513970089117568 [Eh]
	 Correlation Energy        =      -1.6643166639745073 [Eh]
	 Total Energy              =    -721.7301186662674581 [Eh]

	 ================> DF-SCS-MP2 Energies <==================
	-----------------------------------------------------------
	 SCS Same-Spin Scale       =       0.3333333333333333 [-]
	 SCS Opposite-Spin Scale   =       1.2000000000000000 [-]
	 SCS Same-Spin Energy      =      -0.1376398850209168 [Eh]
	 SCS Opposite-Spin Energy  =      -1.5016764106941081 [Eh]
	 SCS Correlation Energy    =      -1.6393162957150249 [Eh]
	 SCS Total Energy          =    -721.7051182980079602 [Eh]
	-----------------------------------------------------------

  Dipole Moment: [D]
     X:    -4.1711      Y:    -0.0108      Z:    -1.9772     Total:     4.6161

*** Psi4 exiting successfully. Buy a developer a beer!
