                               Psi4 1.3.2 release

  ==> Input File <==

--------------------------------------------------------------------------
#psi4
#
memory 32 gb

molecule  {
0 1
  S        1.5992360    -0.0004910    -0.9713300
  N        2.9928530     0.0007270     1.5561310
  C        0.0908019    -0.0002226    -0.4519391
  C       -0.7602250     1.2164250    -0.1926110
  C       -0.7603600    -1.2165950    -0.1917730
  C       -2.0926340     1.2101350     0.2229910
  C       -2.0927710    -1.2098700     0.2238180
  C       -2.7593910     0.0002400     0.4292470
  C        2.3883410     0.0002320     0.5352820
  H       -0.2335390     2.1531730    -0.3546160
  H       -0.2337770    -2.1535140    -0.3531260
  H       -2.6102660     2.1527600     0.3813710
  H       -2.6105080    -2.1523280     0.3828450
  H       -3.7976120     0.0004090     0.7511150
units angstrom
no_reorient  #important for SAPT in psi4, default
symmetry c1  #important for SAPT in psi4, default
}

set PROPERTIES_ORIGIN ["COM"]
properties('MP2/aug-cc-pvtz', properties = ['dipole'])
--------------------------------------------------------------------------

    Molecular point group: c1
  Charge       = 0
  Multiplicity = 1
  Basis Set: AUG-CC-PVTZ
    Blend: AUG-CC-PVTZ
  Basis Set: (AUG-CC-PVTZ AUX)
    Blend: AUG-CC-PVTZ-JKFIT

    Orbital Energies [Eh]
    ---------------------

    Doubly Occupied:

       1A    -92.021308     2A    -15.588122     3A    -11.301740
       4A    -11.297791     5A    -11.284800     6A    -11.284765
       7A    -11.275249     8A    -11.261735     9A    -11.261670
      10A     -9.024246    11A     -6.705917    12A     -6.704541
      13A     -6.703242    14A     -1.217698    15A     -1.175435
      16A     -1.121440    17A     -1.036082    18A     -0.987069
      19A     -0.843776    20A     -0.843557    21A     -0.737932
      22A     -0.705609    23A     -0.652783    24A     -0.642614
      25A     -0.603563    26A     -0.593986    27A     -0.562554
      28A     -0.545305    29A     -0.528788    30A     -0.507924
      31A     -0.491418    32A     -0.458931    33A     -0.382682
      34A     -0.360842    35A     -0.354659

  @DF-RHF Final Energy:  -720.01583895750809

   => Energetics <=

    Nuclear Repulsion Energy =            440.8713801207179586
    One-Electron Energy =               -1859.6348911529692032
    Two-Electron Energy =                 698.7476720747431500
    Total Energy =                       -720.0158389575080946
  Basis Set: (AUG-CC-PVTZ AUX)
    Blend: AUG-CC-PVTZ-RI
    Molecular point group: c1

    Geometry (in Angstrom), charge = 0, multiplicity = 1:

       Center              X                  Y                   Z               Mass
    ------------   -----------------  -----------------  -----------------  -----------------
         S            1.512984049692    -0.000484472248    -0.959844346473    31.972071174400
         N            2.906601049692     0.000733527752     1.567616653527    14.003074004430
         C            0.004549949692    -0.000216072248    -0.440453446473    12.000000000000
         C           -0.846476950308     1.216431527752    -0.181125346473    12.000000000000
         C           -0.846611950308    -1.216588472248    -0.180287346473    12.000000000000
         C           -2.178885950308     1.210141527752     0.234476653527    12.000000000000
         C           -2.179022950308    -1.209863472248     0.235303653527    12.000000000000
         C           -2.845642950308     0.000246527752     0.440732653527    12.000000000000
         C            2.302089049692     0.000238527752     0.546767653527    12.000000000000
         H           -0.319790950308     2.153179527752    -0.343130346473     1.007825032230
         H           -0.320028950308    -2.153507472248    -0.341640346473     1.007825032230
         H           -2.696517950308     2.152766527752     0.392856653527     1.007825032230
         H           -2.696759950308    -2.152321472248     0.394330653527     1.007825032230
         H           -3.883863950308     0.000415527752     0.762600653527     1.007825032230

  Basis Set: AUG-CC-PVTZ
    Blend: AUG-CC-PVTZ
  Basis Set: (AUG-CC-PVTZ AUX)
    Blend: AUG-CC-PVTZ-JKFIT
	 Reference Energy          =    -720.0158389575080946 [Eh]
	 Singles Energy            =      -0.0000000000000000 [Eh]
	 Same-Spin Energy          =      -0.4159155437238414 [Eh]
	 Opposite-Spin Energy      =      -1.2567790980618745 [Eh]
	 Correlation Energy        =      -1.6726946417857158 [Eh]
	 Total Energy              =    -721.6885335992938053 [Eh]

	 ================> DF-SCS-MP2 Energies <==================
	-----------------------------------------------------------
	 SCS Same-Spin Scale       =       0.3333333333333333 [-]
	 SCS Opposite-Spin Scale   =       1.2000000000000000 [-]
	 SCS Same-Spin Energy      =      -0.1386385145746138 [Eh]
	 SCS Opposite-Spin Energy  =      -1.5081349176742493 [Eh]
	 SCS Correlation Energy    =      -1.6467734322488632 [Eh]
	 SCS Total Energy          =    -721.6626123897569869 [Eh]
	-----------------------------------------------------------

  Dipole Moment: [D]
     X:    -3.9796      Y:    -0.0009      Z:    -1.9071     Total:     4.4129

*** Psi4 exiting successfully. Buy a developer a beer!
