                               Psi4 1.3.2 release

  ==> Input File <==

--------------------------------------------------------------------------
#psi4
#
memory 32 gb

molecule  {
0 1
  S        1.5992360    -0.0004910    -0.9713300
  N        2.9928530     0.0007270     1.5561310
  C       -0.1082445    -0.0002033    -0.4165411
  C       -0.7602250     1.2164250    -0.1926110
  C       -0.7603600    -1.2165950    -0.1917730
  C       -2.0926340     1.2101350     0.2229910
  C       -2.0927710    -1.2098700     0.2238180
  C       -2.7593910     0.0002400     0.4292470
  C        2.3883410     0.0002320     0.5352820
  H       -0.2335390     2.1531730    -0.3546160
  H       -0.2337770    -2.1535140    -0.3531260
  H       -2.6102660     2.1527600     0.3813710
  H       -2.6105080    -2.1523280     0.3828450
  H       -3.7976120     0.0004090     0.7511150
units angstrom
no_reorient  #important for SAPT in psi4, default
symmetry c1  #important for SAPT in psi4, default
}

set PROPERTIES_ORIGIN ["COM"]
properties('MP2/aug-cc-pvtz', properties = ['dipole'])
--------------------------------------------------------------------------

    Molecular point group: c1
  Charge       = 0
  Multiplicity = 1
  Basis Set: AUG-CC-PVTZ
    Blend: AUG-CC-PVTZ
  Basis Set: (AUG-CC-PVTZ AUX)
    Blend: AUG-CC-PVTZ-JKFIT

    Orbital Energies [Eh]
    ---------------------

    Doubly Occupied:

       1A    -92.023081     2A    -15.587388     3A    -11.303429
       4A    -11.298364     5A    -11.271021     6A    -11.270980
       7A    -11.267014     8A    -11.262853     9A    -11.262671
      10A     -9.022101    11A     -6.703588    12A     -6.702066
      13A     -6.701245    14A     -1.213724    15A     -1.185670
      16A     -1.091010    17A     -1.044615    18A     -0.999765
      19A     -0.857198    20A     -0.840053    21A     -0.735478
      22A     -0.686646    23A     -0.657834    24A     -0.644779
      25A     -0.616432    26A     -0.586443    27A     -0.560075
      28A     -0.532688    29A     -0.529270    30A     -0.515532
      31A     -0.512000    32A     -0.448056    33A     -0.386965
      34A     -0.368351    35A     -0.363824

  @DF-RHF Final Energy:  -720.06586057848540

   => Energetics <=

    Nuclear Repulsion Energy =            440.2379048197658449
    One-Electron Energy =               -1858.5031139716347752
    Two-Electron Energy =                 698.1993485733835314
    Total Energy =                       -720.0658605784853989
  Basis Set: (AUG-CC-PVTZ AUX)
    Blend: AUG-CC-PVTZ-RI
    Molecular point group: c1

    Geometry (in Angstrom), charge = 0, multiplicity = 1:

       Center              X                  Y                   Z               Mass
    ------------   -----------------  -----------------  -----------------  -----------------
         S            1.530675192962    -0.000486187623    -0.962990502794    31.972071174400
         N            2.924292192962     0.000731812377     1.564470497206    14.003074004430
         C           -0.176805307038    -0.000198487623    -0.408201602794    12.000000000000
         C           -0.828785807038     1.216429812377    -0.184271502794    12.000000000000
         C           -0.828920807038    -1.216590187623    -0.183433502794    12.000000000000
         C           -2.161194807038     1.210139812377     0.231330497206    12.000000000000
         C           -2.161331807038    -1.209865187623     0.232157497206    12.000000000000
         C           -2.827951807038     0.000244812377     0.437586497206    12.000000000000
         C            2.319780192962     0.000236812377     0.543621497206    12.000000000000
         H           -0.302099807038     2.153177812377    -0.346276502794     1.007825032230
         H           -0.302337807038    -2.153509187623    -0.344786502794     1.007825032230
         H           -2.678826807038     2.152764812377     0.389710497206     1.007825032230
         H           -2.679068807038    -2.152323187623     0.391184497206     1.007825032230
         H           -3.866172807038     0.000413812377     0.759454497206     1.007825032230

  Basis Set: AUG-CC-PVTZ
    Blend: AUG-CC-PVTZ
  Basis Set: (AUG-CC-PVTZ AUX)
    Blend: AUG-CC-PVTZ-JKFIT
	 Reference Energy          =    -720.0658605784853989 [Eh]
	 Singles Energy            =      -0.0000000000000000 [Eh]
	 Same-Spin Energy          =      -0.4128323637539958 [Eh]
	 Opposite-Spin Energy      =      -1.2512432251960819 [Eh]
	 Correlation Energy        =      -1.6640755889500778 [Eh]
	 Total Energy              =    -721.7299361674354259 [Eh]

	 ================> DF-SCS-MP2 Energies <==================
	-----------------------------------------------------------
	 SCS Same-Spin Scale       =       0.3333333333333333 [-]
	 SCS Opposite-Spin Scale   =       1.2000000000000000 [-]
	 SCS Same-Spin Energy      =      -0.1376107879179986 [Eh]
	 SCS Opposite-Spin Energy  =      -1.5014918702352982 [Eh]
	 SCS Correlation Energy    =      -1.6391026581532968 [Eh]
	 SCS Total Energy          =    -721.7049632366387186 [Eh]
	-----------------------------------------------------------

  Dipole Moment: [D]
     X:    -4.1951      Y:    -0.0009      Z:    -1.9476     Total:     4.6252

*** Psi4 exiting successfully. Buy a developer a beer!
