                               Psi4 1.3.2 release

  ==> Input File <==

--------------------------------------------------------------------------
#psi4
#
memory 32 gb

molecule  {
0 1
  S        1.5987153     0.0308315    -0.9720185
  N        2.9928530     0.0007270     1.5561310
  C       -0.0983020    -0.0001890    -0.3868260
  C       -0.7602250     1.2164250    -0.1926110
  C       -0.7603600    -1.2165950    -0.1917730
  C       -2.0926340     1.2101350     0.2229910
  C       -2.0927710    -1.2098700     0.2238180
  C       -2.7593910     0.0002400     0.4292470
  C        2.3883410     0.0002320     0.5352820
  H       -0.2335390     2.1531730    -0.3546160
  H       -0.2337770    -2.1535140    -0.3531260
  H       -2.6102660     2.1527600     0.3813710
  H       -2.6105080    -2.1523280     0.3828450
  H       -3.7976120     0.0004090     0.7511150
units angstrom
no_reorient  #important for SAPT in psi4, default
symmetry c1  #important for SAPT in psi4, default
}

set PROPERTIES_ORIGIN ["COM"]
properties('MP2/aug-cc-pvtz', properties = ['dipole'])
--------------------------------------------------------------------------

    Molecular point group: c1
  Charge       = 0
  Multiplicity = 1
  Basis Set: AUG-CC-PVTZ
    Blend: AUG-CC-PVTZ
  Basis Set: (AUG-CC-PVTZ AUX)
    Blend: AUG-CC-PVTZ-JKFIT

    Orbital Energies [Eh]
    ---------------------

    Doubly Occupied:

       1A    -92.023676     2A    -15.587047     3A    -11.303281
       4A    -11.298319     5A    -11.271014     6A    -11.270386
       7A    -11.266690     8A    -11.262809     9A    -11.262437
      10A     -9.022651    11A     -6.704119    12A     -6.702599
      13A     -6.701772    14A     -1.213571    15A     -1.185431
      16A     -1.091173    17A     -1.044378    18A     -0.999616
      19A     -0.857002    20A     -0.839597    21A     -0.734821
      22A     -0.685847    23A     -0.657639    24A     -0.645042
      25A     -0.616191    26A     -0.586972    27A     -0.559963
      28A     -0.532004    29A     -0.529112    30A     -0.516337
      31A     -0.511631    32A     -0.448275    33A     -0.387326
      34A     -0.367816    35A     -0.363608

  @DF-RHF Final Energy:  -720.06579533468653

   => Energetics <=

    Nuclear Repulsion Energy =            440.2996974786170199
    One-Electron Energy =               -1858.6306877712459027
    Two-Electron Energy =                 698.2651949579424127
    Total Energy =                       -720.0657953346865270
  Basis Set: (AUG-CC-PVTZ AUX)
    Blend: AUG-CC-PVTZ-RI
    Molecular point group: c1

    Geometry (in Angstrom), charge = 0, multiplicity = 1:

       Center              X                  Y                   Z               Mass
    ------------   -----------------  -----------------  -----------------  -----------------
         S            1.529394113024     0.023417712871    -0.966157025511    31.972071174400
         N            2.923531813024    -0.006686787129     1.561992474489    14.003074004430
         C           -0.167623186976    -0.007602787129    -0.380964525511    12.000000000000
         C           -0.829546186976     1.209011212871    -0.186749525511    12.000000000000
         C           -0.829681186976    -1.224008787129    -0.185911525511    12.000000000000
         C           -2.161955186976     1.202721212871     0.228852474489    12.000000000000
         C           -2.162092186976    -1.217283787129     0.229679474489    12.000000000000
         C           -2.828712186976    -0.007173787129     0.435108474489    12.000000000000
         C            2.319019813024    -0.007181787129     0.541143474489    12.000000000000
         H           -0.302860186976     2.145759212871    -0.348754525511     1.007825032230
         H           -0.303098186976    -2.160927787129    -0.347264525511     1.007825032230
         H           -2.679587186976     2.145346212871     0.387232474489     1.007825032230
         H           -2.679829186976    -2.159741787129     0.388706474489     1.007825032230
         H           -3.866933186976    -0.007004787129     0.756976474489     1.007825032230

  Basis Set: AUG-CC-PVTZ
    Blend: AUG-CC-PVTZ
  Basis Set: (AUG-CC-PVTZ AUX)
    Blend: AUG-CC-PVTZ-JKFIT
	 Reference Energy          =    -720.0657953346865270 [Eh]
	 Singles Energy            =      -0.0000000000000000 [Eh]
	 Same-Spin Energy          =      -0.4129025581096386 [Eh]
	 Opposite-Spin Energy      =      -1.2514032574730605 [Eh]
	 Correlation Energy        =      -1.6643058155826991 [Eh]
	 Total Energy              =    -721.7301011502692063 [Eh]

	 ================> DF-SCS-MP2 Energies <==================
	-----------------------------------------------------------
	 SCS Same-Spin Scale       =       0.3333333333333333 [-]
	 SCS Opposite-Spin Scale   =       1.2000000000000000 [-]
	 SCS Same-Spin Energy      =      -0.1376341860365462 [Eh]
	 SCS Opposite-Spin Energy  =      -1.5016839089676726 [Eh]
	 SCS Correlation Energy    =      -1.6393180950042188 [Eh]
	 SCS Total Energy          =    -721.7051134296907549 [Eh]
	-----------------------------------------------------------

  Dipole Moment: [D]
     X:    -4.1697      Y:     0.0091      Z:    -1.9780     Total:     4.6151

*** Psi4 exiting successfully. Buy a developer a beer!
