                               Psi4 1.3.2 release

  ==> Input File <==

--------------------------------------------------------------------------
#psi4
#
memory 32 gb

molecule  {
0 1
  S        1.7062542    -0.0005059    -1.0227051
  N        2.9928530     0.0007270     1.5561310
  C       -0.0983020    -0.0001890    -0.3868260
  C       -0.7602250     1.2164250    -0.1926110
  C       -0.7603600    -1.2165950    -0.1917730
  C       -2.0926340     1.2101350     0.2229910
  C       -2.0927710    -1.2098700     0.2238180
  C       -2.7593910     0.0002400     0.4292470
  C        2.3883410     0.0002320     0.5352820
  H       -0.2335390     2.1531730    -0.3546160
  H       -0.2337770    -2.1535140    -0.3531260
  H       -2.6102660     2.1527600     0.3813710
  H       -2.6105080    -2.1523280     0.3828450
  H       -3.7976120     0.0004090     0.7511150
units angstrom
no_reorient  #important for SAPT in psi4, default
symmetry c1  #important for SAPT in psi4, default
}

set PROPERTIES_ORIGIN ["COM"]
properties('MP2/aug-cc-pvtz', properties = ['dipole'])
--------------------------------------------------------------------------

    Molecular point group: c1
  Charge       = 0
  Multiplicity = 1
  Basis Set: AUG-CC-PVTZ
    Blend: AUG-CC-PVTZ
  Basis Set: (AUG-CC-PVTZ AUX)
    Blend: AUG-CC-PVTZ-JKFIT

    Orbital Energies [Eh]
    ---------------------

    Doubly Occupied:

       1A    -92.029167     2A    -15.585546     3A    -11.308939
       4A    -11.303178     5A    -11.270995     6A    -11.270960
       7A    -11.265559     8A    -11.263246     9A    -11.262926
      10A     -9.026377    11A     -6.707722    12A     -6.706104
      13A     -6.705354    14A     -1.211729    15A     -1.182364
      16A     -1.077678    17A     -1.044168    18A     -1.002670
      19A     -0.855558    20A     -0.836867    21A     -0.728994
      22A     -0.677398    23A     -0.655023    24A     -0.646222
      25A     -0.616096    26A     -0.584298    27A     -0.557246
      28A     -0.530909    29A     -0.527679    30A     -0.516595
      31A     -0.513066    32A     -0.442401    33A     -0.388675
      34A     -0.367399    35A     -0.363718

  @DF-RHF Final Energy:  -720.05911238243277

   => Energetics <=

    Nuclear Repulsion Energy =            436.0378701361707954
    One-Electron Energy =               -1850.1283149197754483
    Two-Electron Energy =                 694.0313324011718805
    Total Energy =                       -720.0591123824327724
  Basis Set: (AUG-CC-PVTZ AUX)
    Blend: AUG-CC-PVTZ-RI
    Molecular point group: c1

    Geometry (in Angstrom), charge = 0, multiplicity = 1:

       Center              X                  Y                   Z               Mass
    ------------   -----------------  -----------------  -----------------  -----------------
         S            1.611467250359    -0.000498830203    -1.004840778858    31.972071174400
         N            2.898066050359     0.000734069797     1.573995321142    14.003074004430
         C           -0.193088949641    -0.000181930203    -0.368961678858    12.000000000000
         C           -0.855011949641     1.216432069797    -0.174746678858    12.000000000000
         C           -0.855146949641    -1.216587930203    -0.173908678858    12.000000000000
         C           -2.187420949641     1.210142069797     0.240855321142    12.000000000000
         C           -2.187557949641    -1.209862930203     0.241682321142    12.000000000000
         C           -2.854177949641     0.000247069797     0.447111321142    12.000000000000
         C            2.293554050359     0.000239069797     0.553146321142    12.000000000000
         H           -0.328325949641     2.153180069797    -0.336751678858     1.007825032230
         H           -0.328563949641    -2.153506930203    -0.335261678858     1.007825032230
         H           -2.705052949641     2.152767069797     0.399235321142     1.007825032230
         H           -2.705294949641    -2.152320930203     0.400709321142     1.007825032230
         H           -3.892398949641     0.000416069797     0.768979321142     1.007825032230

  Basis Set: AUG-CC-PVTZ
    Blend: AUG-CC-PVTZ
  Basis Set: (AUG-CC-PVTZ AUX)
    Blend: AUG-CC-PVTZ-JKFIT
	 Reference Energy          =    -720.0591123824327724 [Eh]
	 Singles Energy            =      -0.0000000000000000 [Eh]
	 Same-Spin Energy          =      -0.4125812851848988 [Eh]
	 Opposite-Spin Energy      =      -1.2524084680315291 [Eh]
	 Correlation Energy        =      -1.6649897532164277 [Eh]
	 Total Energy              =    -721.7241021356492183 [Eh]

	 ================> DF-SCS-MP2 Energies <==================
	-----------------------------------------------------------
	 SCS Same-Spin Scale       =       0.3333333333333333 [-]
	 SCS Opposite-Spin Scale   =       1.2000000000000000 [-]
	 SCS Same-Spin Energy      =      -0.1375270950616329 [Eh]
	 SCS Opposite-Spin Energy  =      -1.5028901616378347 [Eh]
	 SCS Correlation Energy    =      -1.6404172566994677 [Eh]
	 SCS Total Energy          =    -721.6995296391322654 [Eh]
	-----------------------------------------------------------

  Dipole Moment: [D]
     X:    -4.0581      Y:    -0.0010      Z:    -2.1017     Total:     4.5701

*** Psi4 exiting successfully. Buy a developer a beer!
