                               Psi4 1.3.2 release

  ==> Input File <==

--------------------------------------------------------------------------
#psi4
#
memory 32 gb

molecule  {
0 1
  S        1.5992360    -0.0004910    -0.9713300
  N        2.9928530     0.0007270     1.5561310
  C       -0.1928539    -0.0001722    -0.3542694
  C       -0.7602250     1.2164250    -0.1926110
  C       -0.7603600    -1.2165950    -0.1917730
  C       -2.0926340     1.2101350     0.2229910
  C       -2.0927710    -1.2098700     0.2238180
  C       -2.7593910     0.0002400     0.4292470
  C        2.3883410     0.0002320     0.5352820
  H       -0.2335390     2.1531730    -0.3546160
  H       -0.2337770    -2.1535140    -0.3531260
  H       -2.6102660     2.1527600     0.3813710
  H       -2.6105080    -2.1523280     0.3828450
  H       -3.7976120     0.0004090     0.7511150
units angstrom
no_reorient  #important for SAPT in psi4, default
symmetry c1  #important for SAPT in psi4, default
}

set PROPERTIES_ORIGIN ["COM"]
properties('MP2/aug-cc-pvtz', properties = ['dipole'])
--------------------------------------------------------------------------

    Molecular point group: c1
  Charge       = 0
  Multiplicity = 1
  Basis Set: AUG-CC-PVTZ
    Blend: AUG-CC-PVTZ
  Basis Set: (AUG-CC-PVTZ AUX)
    Blend: AUG-CC-PVTZ-JKFIT

    Orbital Energies [Eh]
    ---------------------

    Doubly Occupied:

       1A    -92.018047     2A    -15.583409     3A    -11.300956
       4A    -11.300345     5A    -11.267081     6A    -11.267074
       7A    -11.265877     8A    -11.265210     9A    -11.264270
      10A     -9.016390    11A     -6.697808    12A     -6.696159
      13A     -6.695472    14A     -1.211050    15A     -1.196250
      16A     -1.080132    17A     -1.053349    18A     -1.002253
      19A     -0.865589    20A     -0.839127    21A     -0.737278
      22A     -0.675713    23A     -0.665884    24A     -0.645970
      25A     -0.624548    26A     -0.583549    27A     -0.559072
      28A     -0.536544    29A     -0.534441    30A     -0.511459
      31A     -0.511270    32A     -0.435499    33A     -0.383681
      34A     -0.374710    35A     -0.367493

  @DF-RHF Final Energy:  -720.05869134436955

   => Energetics <=

    Nuclear Repulsion Energy =            440.3651638376947517
    One-Electron Energy =               -1858.7817906410539308
    Two-Electron Energy =                 698.3579354589895729
    Total Energy =                       -720.0586913443695494
  Basis Set: (AUG-CC-PVTZ AUX)
    Blend: AUG-CC-PVTZ-RI
    Molecular point group: c1

    Geometry (in Angstrom), charge = 0, multiplicity = 1:

       Center              X                  Y                   Z               Mass
    ------------   -----------------  -----------------  -----------------  -----------------
         S            1.538195233602    -0.000488951775    -0.968525179966    31.972071174400
         N            2.931812233602     0.000729048225     1.558935820034    14.003074004430
         C           -0.253894666398    -0.000170151775    -0.351464579966    12.000000000000
         C           -0.821265766398     1.216427048225    -0.189806179966    12.000000000000
         C           -0.821400766398    -1.216592951775    -0.188968179966    12.000000000000
         C           -2.153674766398     1.210137048225     0.225795820034    12.000000000000
         C           -2.153811766398    -1.209867951775     0.226622820034    12.000000000000
         C           -2.820431766398     0.000242048225     0.432051820034    12.000000000000
         C            2.327300233602     0.000234048225     0.538086820034    12.000000000000
         H           -0.294579766398     2.153175048225    -0.351811179966     1.007825032230
         H           -0.294817766398    -2.153511951775    -0.350321179966     1.007825032230
         H           -2.671306766398     2.152762048225     0.384175820034     1.007825032230
         H           -2.671548766398    -2.152325951775     0.385649820034     1.007825032230
         H           -3.858652766398     0.000411048225     0.753919820034     1.007825032230

  Basis Set: AUG-CC-PVTZ
    Blend: AUG-CC-PVTZ
  Basis Set: (AUG-CC-PVTZ AUX)
    Blend: AUG-CC-PVTZ-JKFIT
	 Reference Energy          =    -720.0586913443695494 [Eh]
	 Singles Energy            =      -0.0000000000000000 [Eh]
	 Same-Spin Energy          =      -0.4128493845876068 [Eh]
	 Opposite-Spin Energy      =      -1.2509304364474572 [Eh]
	 Correlation Energy        =      -1.6637798210350641 [Eh]
	 Total Energy              =    -721.7224711654046132 [Eh]

	 ================> DF-SCS-MP2 Energies <==================
	-----------------------------------------------------------
	 SCS Same-Spin Scale       =       0.3333333333333333 [-]
	 SCS Opposite-Spin Scale   =       1.2000000000000000 [-]
	 SCS Same-Spin Energy      =      -0.1376164615292023 [Eh]
	 SCS Opposite-Spin Energy  =      -1.5011165237369486 [Eh]
	 SCS Correlation Energy    =      -1.6387329852661510 [Eh]
	 SCS Total Energy          =    -721.6974243296357372 [Eh]
	-----------------------------------------------------------

  Dipole Moment: [D]
     X:    -4.4279      Y:    -0.0009      Z:    -1.9894     Total:     4.8543

*** Psi4 exiting successfully. Buy a developer a beer!
