                               Psi4 1.3.2 release

  ==> Input File <==

--------------------------------------------------------------------------
#psi4
#
memory 32 gb

molecule  {
0 1
  S        1.5961486    -0.1256846    -0.9667986
  N        2.9928530     0.0007270     1.5561310
  C       -0.0983020    -0.0001890    -0.3868260
  C       -0.7602250     1.2164250    -0.1926110
  C       -0.7603600    -1.2165950    -0.1917730
  C       -2.0926340     1.2101350     0.2229910
  C       -2.0927710    -1.2098700     0.2238180
  C       -2.7593910     0.0002400     0.4292470
  C        2.3883410     0.0002320     0.5352820
  H       -0.2335390     2.1531730    -0.3546160
  H       -0.2337770    -2.1535140    -0.3531260
  H       -2.6102660     2.1527600     0.3813710
  H       -2.6105080    -2.1523280     0.3828450
  H       -3.7976120     0.0004090     0.7511150
units angstrom
no_reorient  #important for SAPT in psi4, default
symmetry c1  #important for SAPT in psi4, default
}

set PROPERTIES_ORIGIN ["COM"]
properties('MP2/aug-cc-pvtz', properties = ['dipole'])
--------------------------------------------------------------------------

    Molecular point group: c1
  Charge       = 0
  Multiplicity = 1
  Basis Set: AUG-CC-PVTZ
    Blend: AUG-CC-PVTZ
  Basis Set: (AUG-CC-PVTZ AUX)
    Blend: AUG-CC-PVTZ-JKFIT

    Orbital Energies [Eh]
    ---------------------

    Doubly Occupied:

       1A    -92.023735     2A    -15.587133     3A    -11.303284
       4A    -11.298346     5A    -11.271870     6A    -11.269366
       7A    -11.266590     8A    -11.263253     9A    -11.261963
      10A     -9.022698    11A     -6.704157    12A     -6.702636
      13A     -6.701806    14A     -1.213648    15A     -1.185470
      16A     -1.091218    17A     -1.044325    18A     -0.999343
      19A     -0.857127    20A     -0.839468    21A     -0.734809
      22A     -0.685672    23A     -0.657588    24A     -0.644865
      25A     -0.616193    26A     -0.586894    27A     -0.559977
      28A     -0.532005    29A     -0.528857    30A     -0.517000
      31A     -0.511035    32A     -0.448381    33A     -0.387834
      34A     -0.367036    35A     -0.363584

  @DF-RHF Final Energy:  -720.06468480394926

   => Energetics <=

    Nuclear Repulsion Energy =            440.3544316259941525
    One-Electron Energy =               -1858.7398914470729778
    Two-Electron Energy =                 698.3207750171294492
    Total Energy =                       -720.0646848039492625
  Basis Set: (AUG-CC-PVTZ AUX)
    Blend: AUG-CC-PVTZ-RI
    Molecular point group: c1

    Geometry (in Angstrom), charge = 0, multiplicity = 1:

       Center              X                  Y                   Z               Mass
    ------------   -----------------  -----------------  -----------------  -----------------
         S            1.527435220738    -0.096034572493    -0.962173224583    31.972071174400
         N            2.924139620738     0.030377027507     1.560756375417    14.003074004430
         C           -0.167015379262     0.029461027507    -0.382200624583    12.000000000000
         C           -0.828938379262     1.246075027507    -0.187985624583    12.000000000000
         C           -0.829073379262    -1.186944972493    -0.187147624583    12.000000000000
         C           -2.161347379262     1.239785027507     0.227616375417    12.000000000000
         C           -2.161484379262    -1.180219972493     0.228443375417    12.000000000000
         C           -2.828104379262     0.029890027507     0.433872375417    12.000000000000
         C            2.319627620738     0.029882027507     0.539907375417    12.000000000000
         H           -0.302252379262     2.182823027507    -0.349990624583     1.007825032230
         H           -0.302490379262    -2.123863972493    -0.348500624583     1.007825032230
         H           -2.678979379262     2.182410027507     0.385996375417     1.007825032230
         H           -2.679221379262    -2.122677972493     0.387470375417     1.007825032230
         H           -3.866325379262     0.030059027507     0.755740375417     1.007825032230

  Basis Set: AUG-CC-PVTZ
    Blend: AUG-CC-PVTZ
  Basis Set: (AUG-CC-PVTZ AUX)
    Blend: AUG-CC-PVTZ-JKFIT
	 Reference Energy          =    -720.0646848039492625 [Eh]
	 Singles Energy            =      -0.0000000000000000 [Eh]
	 Same-Spin Energy          =      -0.4129634280189985 [Eh]
	 Opposite-Spin Energy      =      -1.2515427412402098 [Eh]
	 Correlation Energy        =      -1.6645061692592082 [Eh]
	 Total Energy              =    -721.7291909732084605 [Eh]

	 ================> DF-SCS-MP2 Energies <==================
	-----------------------------------------------------------
	 SCS Same-Spin Scale       =       0.3333333333333333 [-]
	 SCS Opposite-Spin Scale   =       1.2000000000000000 [-]
	 SCS Same-Spin Energy      =      -0.1376544760063328 [Eh]
	 SCS Opposite-Spin Energy  =      -1.5018512894882516 [Eh]
	 SCS Correlation Energy    =      -1.6395057654945844 [Eh]
	 SCS Total Energy          =    -721.7041905694438810 [Eh]
	-----------------------------------------------------------

  Dipole Moment: [D]
     X:    -4.1657      Y:    -0.0409      Z:    -1.9743     Total:     4.6101

*** Psi4 exiting successfully. Buy a developer a beer!
