                               Psi4 1.3.2 release

  ==> Input File <==

--------------------------------------------------------------------------
#psi4
#
memory 32 gb

molecule  {
0 1
  S        1.5992360    -0.0004910    -0.9713300
  N        2.9928530     0.0007270     1.5561310
  C       -0.0983020    -0.0001890    -0.3868260
  C       -0.7602250     1.2164250    -0.1926110
  C       -0.7603600    -1.2165950    -0.1917730
  C       -2.0926340     1.2101350     0.2229910
  C       -2.0927710    -1.2098700     0.2238180
  C       -2.7593910     0.0002400     0.4292470
  C        2.4902471     0.0003154     0.7073725
  H       -0.2335390     2.1531730    -0.3546160
  H       -0.2337770    -2.1535140    -0.3531260
  H       -2.6102660     2.1527600     0.3813710
  H       -2.6105080    -2.1523280     0.3828450
  H       -3.7976120     0.0004090     0.7511150
units angstrom
no_reorient  #important for SAPT in psi4, default
symmetry c1  #important for SAPT in psi4, default
}

set PROPERTIES_ORIGIN ["COM"]
properties('MP2/aug-cc-pvtz', properties = ['dipole'])
--------------------------------------------------------------------------

    Molecular point group: c1
  Charge       = 0
  Multiplicity = 1
  Basis Set: AUG-CC-PVTZ
    Blend: AUG-CC-PVTZ
  Basis Set: (AUG-CC-PVTZ AUX)
    Blend: AUG-CC-PVTZ-JKFIT

    Orbital Energies [Eh]
    ---------------------

    Doubly Occupied:

       1A    -92.028221     2A    -15.518416     3A    -11.296096
       4A    -11.269776     5A    -11.269734     6A    -11.266557
       7A    -11.261736     8A    -11.261578     9A    -11.239911
      10A     -9.023467    11A     -6.704403    12A     -6.703259
      13A     -6.702258    14A     -1.301084    15A     -1.185067
      16A     -1.077642    17A     -1.043463    18A     -0.972935
      19A     -0.855781    20A     -0.829640    21A     -0.724817
      22A     -0.664912    23A     -0.656215    24A     -0.629542
      25A     -0.615254    26A     -0.581566    27A     -0.555974
      28A     -0.553099    29A     -0.544246    30A     -0.525211
      31A     -0.522625    32A     -0.488499    33A     -0.402646
      34A     -0.367131    35A     -0.362856

  @DF-RHF Final Energy:  -719.98579021551643

   => Energetics <=

    Nuclear Repulsion Energy =            439.8081817371867146
    One-Electron Energy =               -1857.5767104120550357
    Two-Electron Energy =                 697.7827384593518900
    Total Energy =                       -719.9857902155164311
  Basis Set: (AUG-CC-PVTZ AUX)
    Blend: AUG-CC-PVTZ-RI
    Molecular point group: c1

    Geometry (in Angstrom), charge = 0, multiplicity = 1:

       Center              X                  Y                   Z               Mass
    ------------   -----------------  -----------------  -----------------  -----------------
         S            1.520734146015    -0.000494871149    -0.980926882362    31.972071174400
         N            2.914351146015     0.000723128851     1.546534117638    14.003074004430
         C           -0.176803853985    -0.000192871149    -0.396422882362    12.000000000000
         C           -0.838726853985     1.216421128851    -0.202207882362    12.000000000000
         C           -0.838861853985    -1.216598871149    -0.201369882362    12.000000000000
         C           -2.171135853985     1.210131128851     0.213394117638    12.000000000000
         C           -2.171272853985    -1.209873871149     0.214221117638    12.000000000000
         C           -2.837892853985     0.000236128851     0.419650117638    12.000000000000
         C            2.411745246015     0.000311528851     0.697775617638    12.000000000000
         H           -0.312040853985     2.153169128851    -0.364212882362     1.007825032230
         H           -0.312278853985    -2.153517871149    -0.362722882362     1.007825032230
         H           -2.688767853985     2.152756128851     0.371774117638     1.007825032230
         H           -2.689009853985    -2.152331871149     0.373248117638     1.007825032230
         H           -3.876113853985     0.000405128851     0.741518117638     1.007825032230

  Basis Set: AUG-CC-PVTZ
    Blend: AUG-CC-PVTZ
  Basis Set: (AUG-CC-PVTZ AUX)
    Blend: AUG-CC-PVTZ-JKFIT
	 Reference Energy          =    -719.9857902155164311 [Eh]
	 Singles Energy            =      -0.0000000000000000 [Eh]
	 Same-Spin Energy          =      -0.3997595870508824 [Eh]
	 Opposite-Spin Energy      =      -1.2283634744824878 [Eh]
	 Correlation Energy        =      -1.6281230615333704 [Eh]
	 Total Energy              =    -721.6139132770498463 [Eh]

	 ================> DF-SCS-MP2 Energies <==================
	-----------------------------------------------------------
	 SCS Same-Spin Scale       =       0.3333333333333333 [-]
	 SCS Opposite-Spin Scale   =       1.2000000000000000 [-]
	 SCS Same-Spin Energy      =      -0.1332531956836275 [Eh]
	 SCS Opposite-Spin Energy  =      -1.4740361693789854 [Eh]
	 SCS Correlation Energy    =      -1.6072893650626128 [Eh]
	 SCS Total Energy          =    -721.5930795805790012 [Eh]
	-----------------------------------------------------------

  Dipole Moment: [D]
     X:    -4.2073      Y:    -0.0009      Z:    -1.9758     Total:     4.6481

*** Psi4 exiting successfully. Buy a developer a beer!
