                               Psi4 1.4a3.dev225

  ==> Input File <==

--------------------------------------------------------------------------
#psi4
#
memory 32 gb

molecule  {
0 1
  S        1.5760570    -0.7866040    -0.6163520
  N        3.0341730     1.0750000     1.0360560
  C       -0.1048350    -0.2840020    -0.2434360
  C       -0.5575540     0.9935740    -0.5890840
  C       -0.9686960    -1.2210780     0.3301710
  C       -1.8821680     1.3412840    -0.3245050
  C       -2.2987160    -0.8680880     0.5684580
  C       -2.7556360     0.4105630     0.2446000
  C        2.4288580     0.3485304     0.4057220
  H        0.1226330     1.7094560    -1.0436160
  H       -0.6002520    -2.2070840     0.6009630
  H       -2.2361210     2.3368740    -0.5796600
  H       -2.9743520    -1.5927660     1.0156100
  H       -3.7893020     0.6841560     0.4396570
units angstrom
no_reorient  #important for SAPT in psi4, default
symmetry c1  #important for SAPT in psi4, default
}

set PROPERTIES_ORIGIN ["COM"]
properties('MP2/aug-cc-pvtz', properties = ['dipole'])
--------------------------------------------------------------------------

    Molecular point group: c1
  Charge       = 0
  Multiplicity = 1
  Basis Set: AUG-CC-PVTZ
    Blend: AUG-CC-PVTZ
  Basis Set: (AUG-CC-PVTZ AUX)
    Blend: AUG-CC-PVTZ-JKFIT

    Orbital Energies [Eh]
    ---------------------

    Doubly Occupied:

       1A    -92.026021     2A    -15.574142     3A    -11.298856
       4A    -11.290842     5A    -11.269827     6A    -11.268508
       7A    -11.264688     8A    -11.262193     9A    -11.261851
      10A     -9.023904    11A     -6.705240    12A     -6.703834
      13A     -6.702940    14A     -1.236687    15A     -1.185928
      16A     -1.087789    17A     -1.043511    18A     -0.992853
      19A     -0.856615    20A     -0.836525    21A     -0.731271
      22A     -0.682786    23A     -0.656512    24A     -0.640477
      25A     -0.615314    26A     -0.585504    27A     -0.560401
      28A     -0.534768    29A     -0.527011    30A     -0.518775
      31A     -0.516782    32A     -0.464080    33A     -0.405083
      34A     -0.363276    35A     -0.355714

  @DF-RHF Final Energy:  -720.07209972382520

   => Energetics <=

    Nuclear Repulsion Energy =            440.4295316390750941
    One-Electron Energy =               -1858.9022453919621967
    Two-Electron Energy =                 698.4006140290618987
    Total Energy =                       -720.0720997238252039
  Basis Set: (AUG-CC-PVTZ AUX)
    Blend: AUG-CC-PVTZ-RI
    Molecular point group: c1

    Geometry (in Angstrom), charge = 0, multiplicity = 1:

       Center              X                  Y                   Z               Mass
    ------------   -----------------  -----------------  -----------------  -----------------
         S            1.504501328867    -0.782835987468    -0.615917769658    31.972071174400
         N            2.962617328867     1.078768012532     1.036490230342    14.003074004430
         C           -0.176390671133    -0.280233987468    -0.243001769658    12.000000000000
         C           -0.629109671133     0.997342012532    -0.588649769658    12.000000000000
         C           -1.040251671133    -1.217309987468     0.330605230342    12.000000000000
         C           -1.953723671133     1.345052012532    -0.324070769658    12.000000000000
         C           -2.370271671133    -0.864319987468     0.568892230342    12.000000000000
         C           -2.827191671133     0.414331012532     0.245034230342    12.000000000000
         C            2.357302328867     0.352298412532     0.406156230342    12.000000000000
         H            0.051077328867     1.713224012532    -1.043181769658     1.007825032230
         H           -0.671807671133    -2.203315987468     0.601397230342     1.007825032230
         H           -2.307676671133     2.340642012532    -0.579225769658     1.007825032230
         H           -3.045907671133    -1.588997987468     1.016044230342     1.007825032230
         H           -3.860857671133     0.687924012532     0.440091230342     1.007825032230

  Basis Set: AUG-CC-PVTZ
    Blend: AUG-CC-PVTZ
  Basis Set: (AUG-CC-PVTZ AUX)
    Blend: AUG-CC-PVTZ-JKFIT
	 Reference Energy          =    -720.0720997238252039 [Eh]
	 Singles Energy            =      -0.0000000000000000 [Eh]
	 Same-Spin Energy          =      -0.4092753228821424 [Eh]
	 Opposite-Spin Energy      =      -1.2448729008596824 [Eh]
	 Correlation Energy        =      -1.6541482237418248 [Eh]
	 Total Energy              =    -721.7262479475670034 [Eh]

	 ================> DF-SCS-MP2 Energies <==================
	-----------------------------------------------------------
	 SCS Same-Spin Scale       =       0.3333333333333333 [-]
	 SCS Opposite-Spin Scale   =       1.2000000000000000 [-]
	 SCS Same-Spin Energy      =      -0.1364251076273808 [Eh]
	 SCS Opposite-Spin Energy  =      -1.4938474810316189 [Eh]
	 SCS Correlation Energy    =      -1.6302725886589997 [Eh]
	 SCS Total Energy          =    -721.7023723124841581 [Eh]
	-----------------------------------------------------------

  Dipole Moment: [D]
     X:    -4.0700      Y:    -1.3322      Z:    -1.3259     Total:     4.4831

*** Psi4 exiting successfully. Buy a developer a beer!
