                               Psi4 1.3.2 release

  ==> Input File <==

--------------------------------------------------------------------------
#psi4
#
memory 32 gb

molecule  {
0 1
  S        1.5883667     0.1871114    -0.9727846
  N        2.9928530     0.0007270     1.5561310
  C       -0.0983020    -0.0001890    -0.3868260
  C       -0.7602250     1.2164250    -0.1926110
  C       -0.7603600    -1.2165950    -0.1917730
  C       -2.0926340     1.2101350     0.2229910
  C       -2.0927710    -1.2098700     0.2238180
  C       -2.7593910     0.0002400     0.4292470
  C        2.3883410     0.0002320     0.5352820
  H       -0.2335390     2.1531730    -0.3546160
  H       -0.2337770    -2.1535140    -0.3531260
  H       -2.6102660     2.1527600     0.3813710
  H       -2.6105080    -2.1523280     0.3828450
  H       -3.7976120     0.0004090     0.7511150
units angstrom
no_reorient  #important for SAPT in psi4, default
symmetry c1  #important for SAPT in psi4, default
}

set PROPERTIES_ORIGIN ["COM"]
properties('MP2/aug-cc-pvtz', properties = ['dipole'])
--------------------------------------------------------------------------

    Molecular point group: c1
  Charge       = 0
  Multiplicity = 1
  Basis Set: AUG-CC-PVTZ
    Blend: AUG-CC-PVTZ
  Basis Set: (AUG-CC-PVTZ AUX)
    Blend: AUG-CC-PVTZ-JKFIT

    Orbital Energies [Eh]
    ---------------------

    Doubly Occupied:

       1A    -92.024949     2A    -15.587296     3A    -11.303810
       4A    -11.298301     5A    -11.272314     6A    -11.268554
       7A    -11.266417     8A    -11.263496     9A    -11.261571
      10A     -9.023530    11A     -6.704923    12A     -6.703438
      13A     -6.702593    14A     -1.213136    15A     -1.185492
      16A     -1.090386    17A     -1.044197    18A     -0.997333
      19A     -0.857207    20A     -0.838615    21A     -0.734045
      22A     -0.684787    23A     -0.657455    24A     -0.644665
      25A     -0.616137    26A     -0.586674    27A     -0.559740
      28A     -0.531412    29A     -0.528157    30A     -0.517342
      31A     -0.509207    32A     -0.449349    33A     -0.389169
      34A     -0.366079    35A     -0.363474

  @DF-RHF Final Energy:  -720.06300837243998

   => Energetics <=

    Nuclear Repulsion Energy =            440.1098223233920521
    One-Electron Energy =               -1858.2551597914011836
    Two-Electron Energy =                 698.0823290955690936
    Total Energy =                       -720.0630083724399810
  Basis Set: (AUG-CC-PVTZ AUX)
    Blend: AUG-CC-PVTZ-RI
    Molecular point group: c1

    Geometry (in Angstrom), charge = 0, multiplicity = 1:

       Center              X                  Y                   Z               Mass
    ------------   -----------------  -----------------  -----------------  -----------------
         S            1.521496114541     0.142689731605    -0.966741709104    31.972071174400
         N            2.925982414541    -0.043694668395     1.562173890896    14.003074004430
         C           -0.165172585459    -0.044610668395    -0.380783109104    12.000000000000
         C           -0.827095585459     1.172003331605    -0.186568109104    12.000000000000
         C           -0.827230585459    -1.261016668395    -0.185730109104    12.000000000000
         C           -2.159504585459     1.165713331605     0.229033890896    12.000000000000
         C           -2.159641585459    -1.254291668395     0.229860890896    12.000000000000
         C           -2.826261585459    -0.044181668395     0.435289890896    12.000000000000
         C            2.321470414541    -0.044189668395     0.541324890896    12.000000000000
         H           -0.300409585459     2.108751331605    -0.348573109104     1.007825032230
         H           -0.300647585459    -2.197935668395    -0.347083109104     1.007825032230
         H           -2.677136585459     2.108338331605     0.387413890896     1.007825032230
         H           -2.677378585459    -2.196749668395     0.388887890896     1.007825032230
         H           -3.864482585459    -0.044012668395     0.757157890896     1.007825032230

  Basis Set: AUG-CC-PVTZ
    Blend: AUG-CC-PVTZ
  Basis Set: (AUG-CC-PVTZ AUX)
    Blend: AUG-CC-PVTZ-JKFIT
	 Reference Energy          =    -720.0630083724399810 [Eh]
	 Singles Energy            =      -0.0000000000000000 [Eh]
	 Same-Spin Energy          =      -0.4129068291335349 [Eh]
	 Opposite-Spin Energy      =      -1.2517842491596398 [Eh]
	 Correlation Energy        =      -1.6646910782931748 [Eh]
	 Total Energy              =    -721.7276994507332120 [Eh]

	 ================> DF-SCS-MP2 Energies <==================
	-----------------------------------------------------------
	 SCS Same-Spin Scale       =       0.3333333333333333 [-]
	 SCS Opposite-Spin Scale   =       1.2000000000000000 [-]
	 SCS Same-Spin Energy      =      -0.1376356097111783 [Eh]
	 SCS Opposite-Spin Energy  =      -1.5021410989915678 [Eh]
	 SCS Correlation Energy    =      -1.6397767087027462 [Eh]
	 SCS Total Energy          =    -721.7027850811426788 [Eh]
	-----------------------------------------------------------

  Dipole Moment: [D]
     X:    -4.1501      Y:     0.0604      Z:    -1.9760     Total:     4.5969

*** Psi4 exiting successfully. Buy a developer a beer!
