                               Psi4 1.3.2 release

  ==> Input File <==

--------------------------------------------------------------------------
#psi4
#
memory 32 gb

molecule  {
0 1
  S        1.5992360    -0.0004910    -0.9713300
  N        2.9928530     0.0007270     1.5561310
  C       -0.2874059    -0.0001554    -0.3217129
  C       -0.7602250     1.2164250    -0.1926110
  C       -0.7603600    -1.2165950    -0.1917730
  C       -2.0926340     1.2101350     0.2229910
  C       -2.0927710    -1.2098700     0.2238180
  C       -2.7593910     0.0002400     0.4292470
  C        2.3883410     0.0002320     0.5352820
  H       -0.2335390     2.1531730    -0.3546160
  H       -0.2337770    -2.1535140    -0.3531260
  H       -2.6102660     2.1527600     0.3813710
  H       -2.6105080    -2.1523280     0.3828450
  H       -3.7976120     0.0004090     0.7511150
units angstrom
no_reorient  #important for SAPT in psi4, default
symmetry c1  #important for SAPT in psi4, default
}

set PROPERTIES_ORIGIN ["COM"]
properties('MP2/aug-cc-pvtz', properties = ['dipole'])
--------------------------------------------------------------------------

    Molecular point group: c1
  Charge       = 0
  Multiplicity = 1
  Basis Set: AUG-CC-PVTZ
    Blend: AUG-CC-PVTZ
  Basis Set: (AUG-CC-PVTZ AUX)
    Blend: AUG-CC-PVTZ-JKFIT

    Orbital Energies [Eh]
    ---------------------

    Doubly Occupied:

       1A    -92.007506     2A    -15.577409     3A    -11.305689
       4A    -11.296603     5A    -11.270405     6A    -11.270274
       7A    -11.266096     8A    -11.266068     9A    -11.265386
      10A     -9.005874    11A     -6.687239    12A     -6.685516
      13A     -6.684904    14A     -1.216677    15A     -1.201128
      16A     -1.072820    17A     -1.066535    18A     -1.000855
      19A     -0.875177    20A     -0.840446    21A     -0.742196
      22A     -0.679808    23A     -0.668203    24A     -0.645154
      25A     -0.631659    26A     -0.582107    27A     -0.562983
      28A     -0.545554    29A     -0.537087    30A     -0.506415
      31A     -0.501708    32A     -0.417064    33A     -0.382100
      34A     -0.377718    35A     -0.372885

  @DF-RHF Final Energy:  -720.03459656433085

   => Energetics <=

    Nuclear Repulsion Energy =            440.5523352927673386
    One-Electron Energy =               -1859.1433596136803317
    Two-Electron Energy =                 698.5564277565821385
    Total Energy =                       -720.0345965643308546
  Basis Set: (AUG-CC-PVTZ AUX)
    Blend: AUG-CC-PVTZ-RI
    Molecular point group: c1

    Geometry (in Angstrom), charge = 0, multiplicity = 1:

       Center              X                  Y                   Z               Mass
    ------------   -----------------  -----------------  -----------------  -----------------
         S            1.546598967498    -0.000490444950    -0.971418785205    31.972071174400
         N            2.940215967498     0.000727555050     1.556042214795    14.003074004430
         C           -0.340042932502    -0.000154844950    -0.321801685205    12.000000000000
         C           -0.812862032502     1.216425555050    -0.192699785205    12.000000000000
         C           -0.812997032502    -1.216594444950    -0.191861785205    12.000000000000
         C           -2.145271032502     1.210135555050     0.222902214795    12.000000000000
         C           -2.145408032502    -1.209869444950     0.223729214795    12.000000000000
         C           -2.812028032502     0.000240555050     0.429158214795    12.000000000000
         C            2.335703967498     0.000232555050     0.535193214795    12.000000000000
         H           -0.286176032502     2.153173555050    -0.354704785205     1.007825032230
         H           -0.286414032502    -2.153513444950    -0.353214785205     1.007825032230
         H           -2.662903032502     2.152760555050     0.381282214795     1.007825032230
         H           -2.663145032502    -2.152327444950     0.382756214795     1.007825032230
         H           -3.850249032502     0.000409555050     0.751026214795     1.007825032230

  Basis Set: AUG-CC-PVTZ
    Blend: AUG-CC-PVTZ
  Basis Set: (AUG-CC-PVTZ AUX)
    Blend: AUG-CC-PVTZ-JKFIT
	 Reference Energy          =    -720.0345965643308546 [Eh]
	 Singles Energy            =      -0.0000000000000000 [Eh]
	 Same-Spin Energy          =      -0.4135986413901326 [Eh]
	 Opposite-Spin Energy      =      -1.2515712378373474 [Eh]
	 Correlation Energy        =      -1.6651698792274798 [Eh]
	 Total Energy              =    -721.6997664435583602 [Eh]

	 ================> DF-SCS-MP2 Energies <==================
	-----------------------------------------------------------
	 SCS Same-Spin Scale       =       0.3333333333333333 [-]
	 SCS Opposite-Spin Scale   =       1.2000000000000000 [-]
	 SCS Same-Spin Energy      =      -0.1378662137967109 [Eh]
	 SCS Opposite-Spin Energy  =      -1.5018854854048167 [Eh]
	 SCS Correlation Energy    =      -1.6397516992015275 [Eh]
	 SCS Total Energy          =    -721.6743482635323517 [Eh]
	-----------------------------------------------------------

  Dipole Moment: [D]
     X:    -4.8474      Y:    -0.0009      Z:    -1.9767     Total:     5.2349

*** Psi4 exiting successfully. Buy a developer a beer!
