                               Psi4 1.3.2 release

  ==> Input File <==

--------------------------------------------------------------------------
#psi4
#
memory 32 gb

molecule  {
0 1
  S        1.5992360    -0.0004910    -0.9713300
  N        2.9928530     0.0007270     1.5561310
  C       -0.0533939    -0.0001327    -0.2698356
  C       -0.7602250     1.2164250    -0.1926110
  C       -0.7603600    -1.2165950    -0.1917730
  C       -2.0926340     1.2101350     0.2229910
  C       -2.0927710    -1.2098700     0.2238180
  C       -2.7593910     0.0002400     0.4292470
  C        2.3883410     0.0002320     0.5352820
  H       -0.2335390     2.1531730    -0.3546160
  H       -0.2337770    -2.1535140    -0.3531260
  H       -2.6102660     2.1527600     0.3813710
  H       -2.6105080    -2.1523280     0.3828450
  H       -3.7976120     0.0004090     0.7511150
units angstrom
no_reorient  #important for SAPT in psi4, default
symmetry c1  #important for SAPT in psi4, default
}

set PROPERTIES_ORIGIN ["COM"]
properties('MP2/aug-cc-pvtz', properties = ['dipole'])
--------------------------------------------------------------------------

    Molecular point group: c1
  Charge       = 0
  Multiplicity = 1
  Basis Set: AUG-CC-PVTZ
    Blend: AUG-CC-PVTZ
  Basis Set: (AUG-CC-PVTZ AUX)
    Blend: AUG-CC-PVTZ-JKFIT

    Orbital Energies [Eh]
    ---------------------

    Doubly Occupied:

       1A    -92.025240     2A    -15.585077     3A    -11.302148
       4A    -11.299681     5A    -11.271623     6A    -11.271585
       7A    -11.266645     8A    -11.262174     9A    -11.262004
      10A     -9.024199    11A     -6.705609    12A     -6.704091
      13A     -6.703235    14A     -1.212761    15A     -1.183280
      16A     -1.092154    17A     -1.043071    18A     -0.998765
      19A     -0.854746    20A     -0.838279    21A     -0.731956
      22A     -0.683090    23A     -0.655410    24A     -0.646560
      25A     -0.614938    26A     -0.588922    27A     -0.558886
      28A     -0.529743    29A     -0.528346    30A     -0.518601
      31A     -0.510009    32A     -0.447872    33A     -0.387976
      34A     -0.365694    35A     -0.361863

  @DF-RHF Final Energy:  -720.05961656914133

   => Energetics <=

    Nuclear Repulsion Energy =            440.4031102894380751
    One-Electron Energy =               -1858.8529834606929398
    Two-Electron Energy =                 698.3902566021135954
    Total Energy =                       -720.0596165691413262
  Basis Set: (AUG-CC-PVTZ AUX)
    Blend: AUG-CC-PVTZ-RI
    Molecular point group: c1

    Geometry (in Angstrom), charge = 0, multiplicity = 1:

       Center              X                  Y                   Z               Mass
    ------------   -----------------  -----------------  -----------------  -----------------
         S            1.525800099401    -0.000492462515    -0.976029613368    31.972071174400
         N            2.919417099401     0.000725537485     1.551431386632    14.003074004430
         C           -0.126829800599    -0.000134162515    -0.274535213368    12.000000000000
         C           -0.833660900599     1.216423537485    -0.197310613368    12.000000000000
         C           -0.833795900599    -1.216596462515    -0.196472613368    12.000000000000
         C           -2.166069900599     1.210133537485     0.218291386632    12.000000000000
         C           -2.166206900599    -1.209871462515     0.219118386632    12.000000000000
         C           -2.832826900599     0.000238537485     0.424547386632    12.000000000000
         C            2.314905099401     0.000230537485     0.530582386632    12.000000000000
         H           -0.306974900599     2.153171537485    -0.359315613368     1.007825032230
         H           -0.307212900599    -2.153515462515    -0.357825613368     1.007825032230
         H           -2.683701900599     2.152758537485     0.376671386632     1.007825032230
         H           -2.683943900599    -2.152329462515     0.378145386632     1.007825032230
         H           -3.871047900599     0.000407537485     0.746415386632     1.007825032230

  Basis Set: AUG-CC-PVTZ
    Blend: AUG-CC-PVTZ
  Basis Set: (AUG-CC-PVTZ AUX)
    Blend: AUG-CC-PVTZ-JKFIT
	 Reference Energy          =    -720.0596165691413262 [Eh]
	 Singles Energy            =      -0.0000000000000000 [Eh]
	 Same-Spin Energy          =      -0.4134861042993909 [Eh]
	 Opposite-Spin Energy      =      -1.2527737732108264 [Eh]
	 Correlation Energy        =      -1.6662598775102173 [Eh]
	 Total Energy              =    -721.7258764466515686 [Eh]

	 ================> DF-SCS-MP2 Energies <==================
	-----------------------------------------------------------
	 SCS Same-Spin Scale       =       0.3333333333333333 [-]
	 SCS Opposite-Spin Scale   =       1.2000000000000000 [-]
	 SCS Same-Spin Energy      =      -0.1378287014331303 [Eh]
	 SCS Opposite-Spin Energy  =      -1.5033285278529915 [Eh]
	 SCS Correlation Energy    =      -1.6411572292861218 [Eh]
	 SCS Total Energy          =    -721.7007737984274627 [Eh]
	-----------------------------------------------------------

  Dipole Moment: [D]
     X:    -4.1183      Y:    -0.0010      Z:    -2.0895     Total:     4.6181

*** Psi4 exiting successfully. Buy a developer a beer!
