                               Psi4 1.3.2 release

  ==> Input File <==

--------------------------------------------------------------------------
#psi4
#
memory 32 gb

molecule  {
0 1
  S        1.4960623    -0.0004726    -0.9126148
  N        2.9928530     0.0007270     1.5561310
  C       -0.0983020    -0.0001890    -0.3868260
  C       -0.7602250     1.2164250    -0.1926110
  C       -0.7603600    -1.2165950    -0.1917730
  C       -2.0926340     1.2101350     0.2229910
  C       -2.0927710    -1.2098700     0.2238180
  C       -2.7593910     0.0002400     0.4292470
  C        2.3883410     0.0002320     0.5352820
  H       -0.2335390     2.1531730    -0.3546160
  H       -0.2337770    -2.1535140    -0.3531260
  H       -2.6102660     2.1527600     0.3813710
  H       -2.6105080    -2.1523280     0.3828450
  H       -3.7976120     0.0004090     0.7511150
units angstrom
no_reorient  #important for SAPT in psi4, default
symmetry c1  #important for SAPT in psi4, default
}

set PROPERTIES_ORIGIN ["COM"]
properties('MP2/aug-cc-pvtz', properties = ['dipole'])
--------------------------------------------------------------------------

    Molecular point group: c1
  Charge       = 0
  Multiplicity = 1
  Basis Set: AUG-CC-PVTZ
    Blend: AUG-CC-PVTZ
  Basis Set: (AUG-CC-PVTZ AUX)
    Blend: AUG-CC-PVTZ-JKFIT

    Orbital Energies [Eh]
    ---------------------

    Doubly Occupied:

       1A    -92.014273     2A    -15.587213     3A    -11.301934
       4A    -11.287058     5A    -11.271914     6A    -11.271852
       7A    -11.269420     8A    -11.263080     9A    -11.262958
      10A     -9.016052    11A     -6.697671    12A     -6.696244
      13A     -6.695234    14A     -1.216026    15A     -1.191118
      16A     -1.106478    17A     -1.045826    18A     -0.996542
      19A     -0.860063    20A     -0.844298    21A     -0.743288
      22A     -0.693633    23A     -0.662350    24A     -0.644303
      25A     -0.617270    26A     -0.589014    27A     -0.562653
      28A     -0.534862    29A     -0.531686    30A     -0.514169
      31A     -0.509398    32A     -0.451041    33A     -0.383138
      34A     -0.368992    35A     -0.364474

  @DF-RHF Final Energy:  -720.05956845387152

   => Energetics <=

    Nuclear Repulsion Energy =            444.9666199183357662
    One-Electron Energy =               -1867.9213269667779969
    Two-Electron Energy =                 702.8951385945707671
    Total Energy =                       -720.0595684538715204
  Basis Set: (AUG-CC-PVTZ AUX)
    Blend: AUG-CC-PVTZ-RI
    Molecular point group: c1

    Geometry (in Angstrom), charge = 0, multiplicity = 1:

       Center              X                  Y                   Z               Mass
    ------------   -----------------  -----------------  -----------------  -----------------
         S            1.451049869528    -0.000473415814    -0.920820426119    31.972071174400
         N            2.947840569528     0.000726184186     1.547925373881    14.003074004430
         C           -0.143314430472    -0.000189815814    -0.395031626119    12.000000000000
         C           -0.805237430472     1.216424184186    -0.200816626119    12.000000000000
         C           -0.805372430472    -1.216595815814    -0.199978626119    12.000000000000
         C           -2.137646430472     1.210134184186     0.214785373881    12.000000000000
         C           -2.137783430472    -1.209870815814     0.215612373881    12.000000000000
         C           -2.804403430472     0.000239184186     0.421041373881    12.000000000000
         C            2.343328569528     0.000231184186     0.527076373881    12.000000000000
         H           -0.278551430472     2.153172184186    -0.362821626119     1.007825032230
         H           -0.278789430472    -2.153514815814    -0.361331626119     1.007825032230
         H           -2.655278430472     2.152759184186     0.373165373881     1.007825032230
         H           -2.655520430472    -2.152328815814     0.374639373881     1.007825032230
         H           -3.842624430472     0.000408184186     0.742909373881     1.007825032230

  Basis Set: AUG-CC-PVTZ
    Blend: AUG-CC-PVTZ
  Basis Set: (AUG-CC-PVTZ AUX)
    Blend: AUG-CC-PVTZ-JKFIT
	 Reference Energy          =    -720.0595684538715204 [Eh]
	 Singles Energy            =      -0.0000000000000000 [Eh]
	 Same-Spin Energy          =      -0.4137961306755180 [Eh]
	 Opposite-Spin Energy      =      -1.2512844828521865 [Eh]
	 Correlation Energy        =      -1.6650806135277045 [Eh]
	 Total Energy              =    -721.7246490673992412 [Eh]

	 ================> DF-SCS-MP2 Energies <==================
	-----------------------------------------------------------
	 SCS Same-Spin Scale       =       0.3333333333333333 [-]
	 SCS Opposite-Spin Scale   =       1.2000000000000000 [-]
	 SCS Same-Spin Energy      =      -0.1379320435585060 [Eh]
	 SCS Opposite-Spin Energy  =      -1.5015413794226238 [Eh]
	 SCS Correlation Energy    =      -1.6394734229811299 [Eh]
	 SCS Total Energy          =    -721.6990418768526752 [Eh]
	-----------------------------------------------------------

  Dipole Moment: [D]
     X:    -4.3929      Y:    -0.0008      Z:    -1.8239     Total:     4.7565

*** Psi4 exiting successfully. Buy a developer a beer!
