                               Psi4 1.4a3.dev225

  ==> Input File <==

--------------------------------------------------------------------------
#psi4
#
memory 32 gb

molecule  {
0 1
  S        1.5760570    -0.7866040    -0.6163520
  N        3.0341730     1.0750000     1.0360560
  C       -0.0579775    -0.2980128    -0.2538316
  C       -0.5575540     0.9935740    -0.5890840
  C       -0.9686960    -1.2210780     0.3301710
  C       -1.8821680     1.3412840    -0.3245050
  C       -2.2987160    -0.8680880     0.5684580
  C       -2.7556360     0.4105630     0.2446000
  C        2.4044840     0.3160870     0.3765100
  H        0.1226330     1.7094560    -1.0436160
  H       -0.6002520    -2.2070840     0.6009630
  H       -2.2361210     2.3368740    -0.5796600
  H       -2.9743520    -1.5927660     1.0156100
  H       -3.7893020     0.6841560     0.4396570
units angstrom
no_reorient  #important for SAPT in psi4, default
symmetry c1  #important for SAPT in psi4, default
}

set PROPERTIES_ORIGIN ["COM"]
properties('MP2/aug-cc-pvtz', properties = ['dipole'])
--------------------------------------------------------------------------

    Molecular point group: c1
  Charge       = 0
  Multiplicity = 1
  Basis Set: AUG-CC-PVTZ
    Blend: AUG-CC-PVTZ
  Basis Set: (AUG-CC-PVTZ AUX)
    Blend: AUG-CC-PVTZ-JKFIT

    Orbital Energies [Eh]
    ---------------------

    Doubly Occupied:

       1A    -92.026397     2A    -15.590168     3A    -11.305657
       4A    -11.299551     5A    -11.272930     6A    -11.271688
       7A    -11.265947     8A    -11.261832     9A    -11.261557
      10A     -9.026093    11A     -6.707609    12A     -6.706141
      13A     -6.705201    14A     -1.216981    15A     -1.181146
      16A     -1.099031    17A     -1.040627    18A     -0.997626
      19A     -0.853476    20A     -0.839928    21A     -0.734443
      22A     -0.692566    23A     -0.655289    24A     -0.641546
      25A     -0.611583    26A     -0.589443    27A     -0.562097
      28A     -0.535638    29A     -0.526718    30A     -0.515541
      31A     -0.510583    32A     -0.454816    33A     -0.401502
      34A     -0.362251    35A     -0.351255

  @DF-RHF Final Energy:  -720.06169294749463

   => Energetics <=

    Nuclear Repulsion Energy =            440.7887694036907646
    One-Electron Energy =               -1859.5512177405057628
    Two-Electron Energy =                 698.7007553893203067
    Total Energy =                       -720.0616929474946346
  Basis Set: (AUG-CC-PVTZ AUX)
    Blend: AUG-CC-PVTZ-RI
    Molecular point group: c1

    Geometry (in Angstrom), charge = 0, multiplicity = 1:

       Center              X                  Y                   Z               Mass
    ------------   -----------------  -----------------  -----------------  -----------------
         S            1.502503006769    -0.778707161689    -0.612397466221    31.972071174400
         N            2.960619006769     1.082896838311     1.040010533779    14.003074004430
         C           -0.131531493231    -0.290115961689    -0.249877066221    12.000000000000
         C           -0.631107993231     1.001470838311    -0.585129466221    12.000000000000
         C           -1.042249993231    -1.213181161689     0.334125533779    12.000000000000
         C           -1.955721993231     1.349180838311    -0.320550466221    12.000000000000
         C           -2.372269993231    -0.860191161689     0.572412533779    12.000000000000
         C           -2.829189993231     0.418459838311     0.248554533779    12.000000000000
         C            2.330930006769     0.323983838311     0.380464533779    12.000000000000
         H            0.049079006769     1.717352838311    -1.039661466221     1.007825032230
         H           -0.673805993231    -2.199187161689     0.604917533779     1.007825032230
         H           -2.309674993231     2.344770838311    -0.575705466221     1.007825032230
         H           -3.047905993231    -1.584869161689     1.019564533779     1.007825032230
         H           -3.862855993231     0.692052838311     0.443611533779     1.007825032230

  Basis Set: AUG-CC-PVTZ
    Blend: AUG-CC-PVTZ
  Basis Set: (AUG-CC-PVTZ AUX)
    Blend: AUG-CC-PVTZ-JKFIT
	 Reference Energy          =    -720.0616929474946346 [Eh]
	 Singles Energy            =      -0.0000000000000000 [Eh]
	 Same-Spin Energy          =      -0.4136071349058595 [Eh]
	 Opposite-Spin Energy      =      -1.2524040951937461 [Eh]
	 Correlation Energy        =      -1.6660112300996057 [Eh]
	 Total Energy              =    -721.7277041775942052 [Eh]

	 ================> DF-SCS-MP2 Energies <==================
	-----------------------------------------------------------
	 SCS Same-Spin Scale       =       0.3333333333333333 [-]
	 SCS Opposite-Spin Scale   =       1.2000000000000000 [-]
	 SCS Same-Spin Energy      =      -0.1378690449686198 [Eh]
	 SCS Opposite-Spin Energy  =      -1.5028849142324952 [Eh]
	 SCS Correlation Energy    =      -1.6407539592011149 [Eh]
	 SCS Total Energy          =    -721.7024469066957408 [Eh]
	-----------------------------------------------------------

  Dipole Moment: [D]
     X:    -3.9901      Y:    -1.3386      Z:    -1.3365     Total:     4.4158

*** Psi4 exiting successfully. Buy a developer a beer!
