                               Psi4 1.4a3.dev225

  ==> Input File <==

--------------------------------------------------------------------------
#psi4
#
memory 32 gb

molecule  {
0 1
  S        1.5760570    -0.7866040    -0.6163520
  N        3.0341730     1.0750000     1.0360560
  C       -0.1048350    -0.2840020    -0.2434360
  C       -0.5575540     0.9935740    -0.5890840
  C       -0.9686960    -1.2210780     0.3301710
  C       -1.8821680     1.3412840    -0.3245050
  C       -2.2987160    -0.8680880     0.5684580
  C       -2.7556360     0.4105630     0.2446000
  C        2.3947344     0.3031097     0.3648252
  H        0.1226330     1.7094560    -1.0436160
  H       -0.6002520    -2.2070840     0.6009630
  H       -2.2361210     2.3368740    -0.5796600
  H       -2.9743520    -1.5927660     1.0156100
  H       -3.7893020     0.6841560     0.4396570
units angstrom
no_reorient  #important for SAPT in psi4, default
symmetry c1  #important for SAPT in psi4, default
}

set PROPERTIES_ORIGIN ["COM"]
properties('MP2/aug-cc-pvtz', properties = ['dipole'])
--------------------------------------------------------------------------

    Molecular point group: c1
  Charge       = 0
  Multiplicity = 1
  Basis Set: AUG-CC-PVTZ
    Blend: AUG-CC-PVTZ
  Basis Set: (AUG-CC-PVTZ AUX)
    Blend: AUG-CC-PVTZ-JKFIT

    Orbital Energies [Eh]
    ---------------------

    Doubly Occupied:

       1A    -92.024734     2A    -15.594262     3A    -11.310104
       4A    -11.299820     5A    -11.270539     6A    -11.269249
       7A    -11.265151     8A    -11.262774     9A    -11.262399
      10A     -9.024316    11A     -6.705875    12A     -6.704252
      13A     -6.703444    14A     -1.208597    15A     -1.184313
      16A     -1.093829    17A     -1.044132    18A     -1.002966
      19A     -0.857439    20A     -0.840533    21A     -0.735996
      22A     -0.689341    23A     -0.657450    24A     -0.643443
      25A     -0.615934    26A     -0.588211    27A     -0.561084
      28A     -0.534874    29A     -0.527216    30A     -0.517427
      31A     -0.511711    32A     -0.444578    33A     -0.397827
      34A     -0.363820    35A     -0.354979

  @DF-RHF Final Energy:  -720.05958922174409

   => Energetics <=

    Nuclear Repulsion Energy =            440.8961546194837524
    One-Electron Energy =               -1859.7662522619441461
    Two-Electron Energy =                 698.8105084207163600
    Total Energy =                       -720.0595892217440905
  Basis Set: (AUG-CC-PVTZ AUX)
    Blend: AUG-CC-PVTZ-RI
    Molecular point group: c1

    Geometry (in Angstrom), charge = 0, multiplicity = 1:

       Center              X                  Y                   Z               Mass
    ------------   -----------------  -----------------  -----------------  -----------------
         S            1.507534217161    -0.778799018645    -0.612282882777    31.972071174400
         N            2.965650217161     1.082804981355     1.040125117223    14.003074004430
         C           -0.173357782839    -0.276197018645    -0.239366882777    12.000000000000
         C           -0.626076782839     1.001378981355    -0.585014882777    12.000000000000
         C           -1.037218782839    -1.213273018645     0.334240117223    12.000000000000
         C           -1.950690782839     1.349088981355    -0.320435882777    12.000000000000
         C           -2.367238782839    -0.860283018645     0.572527117223    12.000000000000
         C           -2.824158782839     0.418367981355     0.248669117223    12.000000000000
         C            2.326211617161     0.310914681355     0.368894317223    12.000000000000
         H            0.054110217161     1.717260981355    -1.039546882777     1.007825032230
         H           -0.668774782839    -2.199279018645     0.605032117223     1.007825032230
         H           -2.304643782839     2.344678981355    -0.575590882777     1.007825032230
         H           -3.042874782839    -1.584961018645     1.019679117223     1.007825032230
         H           -3.857824782839     0.691960981355     0.443726117223     1.007825032230

  Basis Set: AUG-CC-PVTZ
    Blend: AUG-CC-PVTZ
  Basis Set: (AUG-CC-PVTZ AUX)
    Blend: AUG-CC-PVTZ-JKFIT
	 Reference Energy          =    -720.0595892217440905 [Eh]
	 Singles Energy            =      -0.0000000000000000 [Eh]
	 Same-Spin Energy          =      -0.4148548404582507 [Eh]
	 Opposite-Spin Energy      =      -1.2544270765216587 [Eh]
	 Correlation Energy        =      -1.6692819169799094 [Eh]
	 Total Energy              =    -721.7288711387240028 [Eh]

	 ================> DF-SCS-MP2 Energies <==================
	-----------------------------------------------------------
	 SCS Same-Spin Scale       =       0.3333333333333333 [-]
	 SCS Opposite-Spin Scale   =       1.2000000000000000 [-]
	 SCS Same-Spin Energy      =      -0.1382849468194169 [Eh]
	 SCS Opposite-Spin Energy  =      -1.5053124918259904 [Eh]
	 SCS Correlation Energy    =      -1.6435974386454073 [Eh]
	 SCS Total Energy          =    -721.7031866603895196 [Eh]
	-----------------------------------------------------------

  Dipole Moment: [D]
     X:    -4.1101      Y:    -1.3479      Z:    -1.3489     Total:     4.5309

*** Psi4 exiting successfully. Buy a developer a beer!
