                               Psi4 1.3.2 release

  ==> Input File <==

--------------------------------------------------------------------------
#psi4
#
memory 32 gb

molecule  {
0 1
  S        1.5987261    -0.0631261    -0.9694192
  N        2.9928530     0.0007270     1.5561310
  C       -0.0983020    -0.0001890    -0.3868260
  C       -0.7602250     1.2164250    -0.1926110
  C       -0.7603600    -1.2165950    -0.1917730
  C       -2.0926340     1.2101350     0.2229910
  C       -2.0927710    -1.2098700     0.2238180
  C       -2.7593910     0.0002400     0.4292470
  C        2.3883410     0.0002320     0.5352820
  H       -0.2335390     2.1531730    -0.3546160
  H       -0.2337770    -2.1535140    -0.3531260
  H       -2.6102660     2.1527600     0.3813710
  H       -2.6105080    -2.1523280     0.3828450
  H       -3.7976120     0.0004090     0.7511150
units angstrom
no_reorient  #important for SAPT in psi4, default
symmetry c1  #important for SAPT in psi4, default
}

set PROPERTIES_ORIGIN ["COM"]
properties('MP2/aug-cc-pvtz', properties = ['dipole'])
--------------------------------------------------------------------------

    Molecular point group: c1
  Charge       = 0
  Multiplicity = 1
  Basis Set: AUG-CC-PVTZ
    Blend: AUG-CC-PVTZ
  Basis Set: (AUG-CC-PVTZ AUX)
    Blend: AUG-CC-PVTZ-JKFIT

    Orbital Energies [Eh]
    ---------------------

    Doubly Occupied:

       1A    -92.023550     2A    -15.587055     3A    -11.303213
       4A    -11.298335     5A    -11.271320     6A    -11.270068
       7A    -11.266676     8A    -11.262961     9A    -11.262294
      10A     -9.022568    11A     -6.704042    12A     -6.702516
      13A     -6.701690    14A     -1.213660    15A     -1.185443
      16A     -1.091296    17A     -1.044375    18A     -0.999762
      19A     -0.857035    20A     -0.839657    21A     -0.734910
      22A     -0.685891    23A     -0.657638    24A     -0.645002
      25A     -0.616200    26A     -0.586971    27A     -0.559995
      28A     -0.532080    29A     -0.529103    30A     -0.516517
      31A     -0.511656    32A     -0.448191    33A     -0.387331
      34A     -0.367669    35A     -0.363612

  @DF-RHF Final Energy:  -720.06558071198401

   => Energetics <=

    Nuclear Repulsion Energy =            440.3493576253455899
    One-Electron Energy =               -1858.7293107609323215
    Two-Electron Energy =                 698.3143724236026628
    Total Energy =                       -720.0655807119840119
  Basis Set: (AUG-CC-PVTZ AUX)
    Blend: AUG-CC-PVTZ-RI
    Molecular point group: c1

    Geometry (in Angstrom), charge = 0, multiplicity = 1:

       Center              X                  Y                   Z               Mass
    ------------   -----------------  -----------------  -----------------  -----------------
         S            1.529402355528    -0.048290245910    -0.964173253072    31.972071174400
         N            2.923529255528     0.015562854090     1.561376946928    14.003074004430
         C           -0.167625744472     0.014646854090    -0.381580053072    12.000000000000
         C           -0.829548744472     1.231260854090    -0.187365053072    12.000000000000
         C           -0.829683744472    -1.201759145910    -0.186527053072    12.000000000000
         C           -2.161957744472     1.224970854090     0.228236946928    12.000000000000
         C           -2.162094744472    -1.195034145910     0.229063946928    12.000000000000
         C           -2.828714744472     0.015075854090     0.434492946928    12.000000000000
         C            2.319017255528     0.015067854090     0.540527946928    12.000000000000
         H           -0.302862744472     2.168008854090    -0.349370053072     1.007825032230
         H           -0.303100744472    -2.138678145910    -0.347880053072     1.007825032230
         H           -2.679589744472     2.167595854090     0.386616946928     1.007825032230
         H           -2.679831744472    -2.137492145910     0.388090946928     1.007825032230
         H           -3.866935744472     0.015244854090     0.756360946928     1.007825032230

  Basis Set: AUG-CC-PVTZ
    Blend: AUG-CC-PVTZ
  Basis Set: (AUG-CC-PVTZ AUX)
    Blend: AUG-CC-PVTZ-JKFIT
	 Reference Energy          =    -720.0655807119840119 [Eh]
	 Singles Energy            =      -0.0000000000000000 [Eh]
	 Same-Spin Energy          =      -0.4129317823516947 [Eh]
	 Opposite-Spin Energy      =      -1.2514249095874130 [Eh]
	 Correlation Energy        =      -1.6643566919391077 [Eh]
	 Total Energy              =    -721.7299374039231452 [Eh]

	 ================> DF-SCS-MP2 Energies <==================
	-----------------------------------------------------------
	 SCS Same-Spin Scale       =       0.3333333333333333 [-]
	 SCS Opposite-Spin Scale   =       1.2000000000000000 [-]
	 SCS Same-Spin Energy      =      -0.1376439274505649 [Eh]
	 SCS Opposite-Spin Energy  =      -1.5017098915048956 [Eh]
	 SCS Correlation Energy    =      -1.6393538189554606 [Eh]
	 SCS Total Energy          =    -721.7049345309394539 [Eh]
	-----------------------------------------------------------

  Dipole Moment: [D]
     X:    -4.1703      Y:    -0.0208      Z:    -1.9765     Total:     4.6150

*** Psi4 exiting successfully. Buy a developer a beer!
