                               Psi4 1.3.2 release

  ==> Input File <==

--------------------------------------------------------------------------
#psi4
#
memory 32 gb

molecule  {
0 1
  S        1.5976777     0.0621445    -0.9725287
  N        2.9928530     0.0007270     1.5561310
  C       -0.0983020    -0.0001890    -0.3868260
  C       -0.7602250     1.2164250    -0.1926110
  C       -0.7603600    -1.2165950    -0.1917730
  C       -2.0926340     1.2101350     0.2229910
  C       -2.0927710    -1.2098700     0.2238180
  C       -2.7593910     0.0002400     0.4292470
  C        2.3883410     0.0002320     0.5352820
  H       -0.2335390     2.1531730    -0.3546160
  H       -0.2337770    -2.1535140    -0.3531260
  H       -2.6102660     2.1527600     0.3813710
  H       -2.6105080    -2.1523280     0.3828450
  H       -3.7976120     0.0004090     0.7511150
units angstrom
no_reorient  #important for SAPT in psi4, default
symmetry c1  #important for SAPT in psi4, default
}

set PROPERTIES_ORIGIN ["COM"]
properties('MP2/aug-cc-pvtz', properties = ['dipole'])
--------------------------------------------------------------------------

    Molecular point group: c1
  Charge       = 0
  Multiplicity = 1
  Basis Set: AUG-CC-PVTZ
    Blend: AUG-CC-PVTZ
  Basis Set: (AUG-CC-PVTZ AUX)
    Blend: AUG-CC-PVTZ-JKFIT

    Orbital Energies [Eh]
    ---------------------

    Doubly Occupied:

       1A    -92.023825     2A    -15.587073     3A    -11.303349
       4A    -11.298314     5A    -11.271301     6A    -11.270046
       7A    -11.266664     8A    -11.262947     9A    -11.262279
      10A     -9.022752    11A     -6.704212    12A     -6.702697
      13A     -6.701867    14A     -1.213512    15A     -1.185434
      16A     -1.091068    17A     -1.044360    18A     -0.999361
      19A     -0.857019    20A     -0.839485    21A     -0.734727
      22A     -0.685733    23A     -0.657619    24A     -0.645011
      25A     -0.616184    26A     -0.586941    27A     -0.559936
      28A     -0.531929    29A     -0.529017    30A     -0.516447
      31A     -0.511344    32A     -0.448402    33A     -0.387529
      34A     -0.367645    35A     -0.363595

  @DF-RHF Final Energy:  -720.06556406875359

   => Energetics <=

    Nuclear Repulsion Energy =            440.2720160230634860
    One-Electron Energy =               -1858.5759135862881521
    Two-Electron Energy =                 698.2383334944710214
    Total Energy =                       -720.0655640687535879
  Basis Set: (AUG-CC-PVTZ AUX)
    Blend: AUG-CC-PVTZ-RI
    Molecular point group: c1

    Geometry (in Angstrom), charge = 0, multiplicity = 1:

       Center              X                  Y                   Z               Mass
    ------------   -----------------  -----------------  -----------------  -----------------
         S            1.528602222021     0.047315633989    -0.966546407536    31.972071174400
         N            2.923777522021    -0.014101866011     1.562113292464    14.003074004430
         C           -0.167377477979    -0.015017866011    -0.380843707536    12.000000000000
         C           -0.829300477979     1.201596133989    -0.186628707536    12.000000000000
         C           -0.829435477979    -1.231423866011    -0.185790707536    12.000000000000
         C           -2.161709477979     1.195306133989     0.228973292464    12.000000000000
         C           -2.161846477979    -1.224698866011     0.229800292464    12.000000000000
         C           -2.828466477979    -0.014588866011     0.435229292464    12.000000000000
         C            2.319265522021    -0.014596866011     0.541264292464    12.000000000000
         H           -0.302614477979     2.138344133989    -0.348633707536     1.007825032230
         H           -0.302852477979    -2.168342866011    -0.347143707536     1.007825032230
         H           -2.679341477979     2.137931133989     0.387353292464     1.007825032230
         H           -2.679583477979    -2.167156866011     0.388827292464     1.007825032230
         H           -3.866687477979    -0.014419866011     0.757097292464     1.007825032230

  Basis Set: AUG-CC-PVTZ
    Blend: AUG-CC-PVTZ
  Basis Set: (AUG-CC-PVTZ AUX)
    Blend: AUG-CC-PVTZ-JKFIT
	 Reference Energy          =    -720.0655640687535879 [Eh]
	 Singles Energy            =      -0.0000000000000000 [Eh]
	 Same-Spin Energy          =      -0.4128976857799033 [Eh]
	 Opposite-Spin Energy      =      -1.2514374941041684 [Eh]
	 Correlation Energy        =      -1.6643351798840718 [Eh]
	 Total Energy              =    -721.7298992486377074 [Eh]

	 ================> DF-SCS-MP2 Energies <==================
	-----------------------------------------------------------
	 SCS Same-Spin Scale       =       0.3333333333333333 [-]
	 SCS Opposite-Spin Scale   =       1.2000000000000000 [-]
	 SCS Same-Spin Energy      =      -0.1376325619266344 [Eh]
	 SCS Opposite-Spin Energy  =      -1.5017249929250021 [Eh]
	 SCS Correlation Energy    =      -1.6393575548516366 [Eh]
	 SCS Total Energy          =    -721.7049216236051734 [Eh]
	-----------------------------------------------------------

  Dipole Moment: [D]
     X:    -4.1675      Y:     0.0191      Z:    -1.9780     Total:     4.6132

*** Psi4 exiting successfully. Buy a developer a beer!
