                               Psi4 1.4a3.dev225

  ==> Input File <==

--------------------------------------------------------------------------
#psi4
#
memory 32 gb

molecule  {
0 1
  S        1.5760570    -0.7866040    -0.6163520
  N        3.0341730     1.0750000     1.0360560
  C       -0.1048350    -0.2840020    -0.2434360
  C       -0.5575540     0.9935740    -0.5890840
  C       -0.9686960    -1.2210780     0.3301710
  C       -1.8821680     1.3412840    -0.3245050
  C       -2.2987160    -0.8680880     0.5684580
  C       -2.7556360     0.4105630     0.2446000
  C        2.3938686     0.3032931     0.3653912
  H        0.1226330     1.7094560    -1.0436160
  H       -0.6002520    -2.2070840     0.6009630
  H       -2.2361210     2.3368740    -0.5796600
  H       -2.9743520    -1.5927660     1.0156100
  H       -3.7893020     0.6841560     0.4396570
units angstrom
no_reorient  #important for SAPT in psi4, default
symmetry c1  #important for SAPT in psi4, default
}

set PROPERTIES_ORIGIN ["COM"]
properties('MP2/aug-cc-pvtz', properties = ['dipole'])
--------------------------------------------------------------------------

    Molecular point group: c1
  Charge       = 0
  Multiplicity = 1
  Basis Set: AUG-CC-PVTZ
    Blend: AUG-CC-PVTZ
  Basis Set: (AUG-CC-PVTZ AUX)
    Blend: AUG-CC-PVTZ-JKFIT

    Orbital Energies [Eh]
    ---------------------

    Doubly Occupied:

       1A    -92.024749     2A    -15.594260     3A    -11.310104
       4A    -11.299811     5A    -11.270530     6A    -11.269244
       7A    -11.265146     8A    -11.262771     9A    -11.262396
      10A     -9.024330    11A     -6.705889    12A     -6.704266
      13A     -6.703457    14A     -1.208586    15A     -1.184306
      16A     -1.093836    17A     -1.044128    18A     -1.002956
      19A     -0.857436    20A     -0.840516    21A     -0.735976
      22A     -0.689333    23A     -0.657448    24A     -0.643450
      25A     -0.615930    26A     -0.588228    27A     -0.561086
      28A     -0.534861    29A     -0.527211    30A     -0.517432
      31A     -0.511700    32A     -0.444577    33A     -0.397816
      34A     -0.363817    35A     -0.354982

  @DF-RHF Final Energy:  -720.05957283365399

   => Energetics <=

    Nuclear Repulsion Energy =            440.9018330844814386
    One-Electron Energy =               -1859.7776832649749394
    Two-Electron Energy =                 698.8162773468394562
    Total Energy =                       -720.0595728336539878
  Basis Set: (AUG-CC-PVTZ AUX)
    Blend: AUG-CC-PVTZ-RI
    Molecular point group: c1

    Geometry (in Angstrom), charge = 0, multiplicity = 1:

       Center              X                  Y                   Z               Mass
    ------------   -----------------  -----------------  -----------------  -----------------
         S            1.507611169027    -0.778815319145    -0.612333188571    31.972071174400
         N            2.965727169027     1.082788680855     1.040074811429    14.003074004430
         C           -0.173280830973    -0.276213319145    -0.239417188571    12.000000000000
         C           -0.625999830973     1.001362680855    -0.585065188571    12.000000000000
         C           -1.037141830973    -1.213289319145     0.334189811429    12.000000000000
         C           -1.950613830973     1.349072680855    -0.320486188571    12.000000000000
         C           -2.367161830973    -0.860299319145     0.572476811429    12.000000000000
         C           -2.824081830973     0.418351680855     0.248618811429    12.000000000000
         C            2.325422769027     0.311081780855     0.369410011429    12.000000000000
         H            0.054187169027     1.717244680855    -1.039597188571     1.007825032230
         H           -0.668697830973    -2.199295319145     0.604981811429     1.007825032230
         H           -2.304566830973     2.344662680855    -0.575641188571     1.007825032230
         H           -3.042797830973    -1.584977319145     1.019628811429     1.007825032230
         H           -3.857747830973     0.691944680855     0.443675811429     1.007825032230

  Basis Set: AUG-CC-PVTZ
    Blend: AUG-CC-PVTZ
  Basis Set: (AUG-CC-PVTZ AUX)
    Blend: AUG-CC-PVTZ-JKFIT
	 Reference Energy          =    -720.0595728336539878 [Eh]
	 Singles Energy            =      -0.0000000000000000 [Eh]
	 Same-Spin Energy          =      -0.4148598448138905 [Eh]
	 Opposite-Spin Energy      =      -1.2544374881206042 [Eh]
	 Correlation Energy        =      -1.6692973329344947 [Eh]
	 Total Energy              =    -721.7288701665885355 [Eh]

	 ================> DF-SCS-MP2 Energies <==================
	-----------------------------------------------------------
	 SCS Same-Spin Scale       =       0.3333333333333333 [-]
	 SCS Opposite-Spin Scale   =       1.2000000000000000 [-]
	 SCS Same-Spin Energy      =      -0.1382866149379635 [Eh]
	 SCS Opposite-Spin Energy  =      -1.5053249857447251 [Eh]
	 SCS Correlation Energy    =      -1.6436116006826886 [Eh]
	 SCS Total Energy          =    -721.7031844343366629 [Eh]
	-----------------------------------------------------------

  Dipole Moment: [D]
     X:    -4.1099      Y:    -1.3484      Z:    -1.3493     Total:     4.5310

*** Psi4 exiting successfully. Buy a developer a beer!
