                               Psi4 1.4a3.dev225

  ==> Input File <==

--------------------------------------------------------------------------
#psi4
#
memory 32 gb

molecule  {
0 1
  S        1.5760570    -0.7866040    -0.6163520
  N        3.0341730     1.0750000     1.0360560
  C       -0.0860920    -0.2896063    -0.2475942
  C       -0.5575540     0.9935740    -0.5890840
  C       -0.9686960    -1.2210780     0.3301710
  C       -1.8821680     1.3412840    -0.3245050
  C       -2.2987160    -0.8680880     0.5684580
  C       -2.7556360     0.4105630     0.2446000
  C        2.4044840     0.3160870     0.3765100
  H        0.1226330     1.7094560    -1.0436160
  H       -0.6002520    -2.2070840     0.6009630
  H       -2.2361210     2.3368740    -0.5796600
  H       -2.9743520    -1.5927660     1.0156100
  H       -3.7893020     0.6841560     0.4396570
units angstrom
no_reorient  #important for SAPT in psi4, default
symmetry c1  #important for SAPT in psi4, default
}

set PROPERTIES_ORIGIN ["COM"]
properties('MP2/aug-cc-pvtz', properties = ['dipole'])
--------------------------------------------------------------------------

    Molecular point group: c1
  Charge       = 0
  Multiplicity = 1
  Basis Set: AUG-CC-PVTZ
    Blend: AUG-CC-PVTZ
  Basis Set: (AUG-CC-PVTZ AUX)
    Blend: AUG-CC-PVTZ-JKFIT

    Orbital Energies [Eh]
    ---------------------

    Doubly Occupied:

       1A    -92.025697     2A    -15.589483     3A    -11.305312
       4A    -11.299490     5A    -11.271287     6A    -11.270018
       7A    -11.265316     8A    -11.262243     9A    -11.261927
      10A     -9.024987    11A     -6.706489    12A     -6.704971
      13A     -6.704096    14A     -1.216152    15A     -1.183576
      16A     -1.094795    17A     -1.042515    18A     -0.999189
      19A     -0.855641    20A     -0.839572    21A     -0.734441
      22A     -0.689607    23A     -0.656289    24A     -0.642236
      25A     -0.614043    26A     -0.588209    27A     -0.561469
      28A     -0.534869    29A     -0.526492    30A     -0.517055
      31A     -0.512272    32A     -0.452288    33A     -0.400669
      34A     -0.363035    35A     -0.353695

  @DF-RHF Final Energy:  -720.06464744295567

   => Energetics <=

    Nuclear Repulsion Energy =            440.7525732384288517
    One-Electron Energy =               -1859.4955941832963617
    Two-Electron Energy =                 698.6783735019118922
    Total Energy =                       -720.0646474429556747
  Basis Set: (AUG-CC-PVTZ AUX)
    Blend: AUG-CC-PVTZ-RI
    Molecular point group: c1

    Geometry (in Angstrom), charge = 0, multiplicity = 1:

       Center              X                  Y                   Z               Mass
    ------------   -----------------  -----------------  -----------------  -----------------
         S            1.505001809297    -0.779454327153    -0.612951843175    31.972071174400
         N            2.963117809297     1.082149672847     1.039456156825    14.003074004430
         C           -0.157147190703    -0.282456627153    -0.244194043175    12.000000000000
         C           -0.628609190703     1.000723672847    -0.585683843175    12.000000000000
         C           -1.039751190703    -1.213928327153     0.333571156825    12.000000000000
         C           -1.953223190703     1.348433672847    -0.321104843175    12.000000000000
         C           -2.369771190703    -0.860938327153     0.571858156825    12.000000000000
         C           -2.826691190703     0.417712672847     0.248000156825    12.000000000000
         C            2.333428809297     0.323236672847     0.379910156825    12.000000000000
         H            0.051577809297     1.716605672847    -1.040215843175     1.007825032230
         H           -0.671307190703    -2.199934327153     0.604363156825     1.007825032230
         H           -2.307176190703     2.344023672847    -0.576259843175     1.007825032230
         H           -3.045407190703    -1.585616327153     1.019010156825     1.007825032230
         H           -3.860357190703     0.691305672847     0.443057156825     1.007825032230

  Basis Set: AUG-CC-PVTZ
    Blend: AUG-CC-PVTZ
  Basis Set: (AUG-CC-PVTZ AUX)
    Blend: AUG-CC-PVTZ-JKFIT
	 Reference Energy          =    -720.0646474429556747 [Eh]
	 Singles Energy            =      -0.0000000000000000 [Eh]
	 Same-Spin Energy          =      -0.4133268331755766 [Eh]
	 Opposite-Spin Energy      =      -1.2518684806265421 [Eh]
	 Correlation Energy        =      -1.6651953138021187 [Eh]
	 Total Energy              =    -721.7298427567577619 [Eh]

	 ================> DF-SCS-MP2 Energies <==================
	-----------------------------------------------------------
	 SCS Same-Spin Scale       =       0.3333333333333333 [-]
	 SCS Opposite-Spin Scale   =       1.2000000000000000 [-]
	 SCS Same-Spin Energy      =      -0.1377756110585255 [Eh]
	 SCS Opposite-Spin Energy  =      -1.5022421767518506 [Eh]
	 SCS Correlation Energy    =      -1.6400177878103761 [Eh]
	 SCS Total Energy          =    -721.7046652307660679 [Eh]
	-----------------------------------------------------------

  Dipole Moment: [D]
     X:    -4.0492      Y:    -1.3407      Z:    -1.3389     Total:     4.4706

*** Psi4 exiting successfully. Buy a developer a beer!
