                               Psi4 1.4a3.dev225

  ==> Input File <==

--------------------------------------------------------------------------
#psi4
#
memory 32 gb

molecule  {
0 1
  S        1.5760570    -0.7866040    -0.6163520
  N        3.0341730     1.0750000     1.0360560
  C       -0.1235780    -0.2783977    -0.2392778
  C       -0.5575540     0.9935740    -0.5890840
  C       -0.9686960    -1.2210780     0.3301710
  C       -1.8821680     1.3412840    -0.3245050
  C       -2.2987160    -0.8680880     0.5684580
  C       -2.7556360     0.4105630     0.2446000
  C        2.4044840     0.3160870     0.3765100
  H        0.1226330     1.7094560    -1.0436160
  H       -0.6002520    -2.2070840     0.6009630
  H       -2.2361210     2.3368740    -0.5796600
  H       -2.9743520    -1.5927660     1.0156100
  H       -3.7893020     0.6841560     0.4396570
units angstrom
no_reorient  #important for SAPT in psi4, default
symmetry c1  #important for SAPT in psi4, default
}

set PROPERTIES_ORIGIN ["COM"]
properties('MP2/aug-cc-pvtz', properties = ['dipole'])
--------------------------------------------------------------------------

    Molecular point group: c1
  Charge       = 0
  Multiplicity = 1
  Basis Set: AUG-CC-PVTZ
    Blend: AUG-CC-PVTZ
  Basis Set: (AUG-CC-PVTZ AUX)
    Blend: AUG-CC-PVTZ-JKFIT

    Orbital Energies [Eh]
    ---------------------

    Doubly Occupied:

       1A    -92.024182     2A    -15.588316     3A    -11.304610
       4A    -11.299644     5A    -11.269417     6A    -11.268094
       7A    -11.264774     8A    -11.262981     9A    -11.262533
      10A     -9.023046    11A     -6.704529    12A     -6.702948
      13A     -6.702146    14A     -1.214971    15A     -1.187383
      16A     -1.089564    17A     -1.045478    18A     -1.000884
      19A     -0.858771    20A     -0.839190    21A     -0.734850
      22A     -0.685643    23A     -0.658187    24A     -0.643154
      25A     -0.617434    26A     -0.586604    27A     -0.560696
      28A     -0.534806    29A     -0.528177    30A     -0.516821
      31A     -0.513398    32A     -0.448219    33A     -0.399339
      34A     -0.364318    35A     -0.356738

  @DF-RHF Final Energy:  -720.06566234738807

   => Energetics <=

    Nuclear Repulsion Energy =            440.7327652747526372
    One-Electron Energy =               -1859.4731647127694032
    Two-Electron Energy =                 698.6747370906286960
    Total Energy =                       -720.0656623473880700
  Basis Set: (AUG-CC-PVTZ AUX)
    Blend: AUG-CC-PVTZ-RI
    Molecular point group: c1

    Geometry (in Angstrom), charge = 0, multiplicity = 1:

       Center              X                  Y                   Z               Mass
    ------------   -----------------  -----------------  -----------------  -----------------
         S            1.508333546000    -0.780450541847    -0.613691000597    31.972071174400
         N            2.966449546000     1.081153458153     1.038716999403    14.003074004430
         C           -0.191301454000    -0.272244241847    -0.236616800597    12.000000000000
         C           -0.625277454000     0.999727458153    -0.586423000597    12.000000000000
         C           -1.036419454000    -1.214924541847     0.332831999403    12.000000000000
         C           -1.949891454000     1.347437458153    -0.321844000597    12.000000000000
         C           -2.366439454000    -0.861934541847     0.571118999403    12.000000000000
         C           -2.823359454000     0.416716458153     0.247260999403    12.000000000000
         C            2.336760546000     0.322240458153     0.379170999403    12.000000000000
         H            0.054909546000     1.715609458153    -1.040955000597     1.007825032230
         H           -0.667975454000    -2.200930541847     0.603623999403     1.007825032230
         H           -2.303844454000     2.343027458153    -0.576999000597     1.007825032230
         H           -3.042075454000    -1.586612541847     1.018270999403     1.007825032230
         H           -3.857025454000     0.690309458153     0.442317999403     1.007825032230

  Basis Set: AUG-CC-PVTZ
    Blend: AUG-CC-PVTZ
  Basis Set: (AUG-CC-PVTZ AUX)
    Blend: AUG-CC-PVTZ-JKFIT
	 Reference Energy          =    -720.0656623473880700 [Eh]
	 Singles Energy            =      -0.0000000000000000 [Eh]
	 Same-Spin Energy          =      -0.4130951780661780 [Eh]
	 Opposite-Spin Energy      =      -1.2513726135140857 [Eh]
	 Correlation Energy        =      -1.6644677915802637 [Eh]
	 Total Energy              =    -721.7301301389683204 [Eh]

	 ================> DF-SCS-MP2 Energies <==================
	-----------------------------------------------------------
	 SCS Same-Spin Scale       =       0.3333333333333333 [-]
	 SCS Opposite-Spin Scale   =       1.2000000000000000 [-]
	 SCS Same-Spin Energy      =      -0.1376983926887260 [Eh]
	 SCS Opposite-Spin Energy  =      -1.5016471362169028 [Eh]
	 SCS Correlation Energy    =      -1.6393455289056289 [Eh]
	 SCS Total Energy          =    -721.7050078762937346 [Eh]
	-----------------------------------------------------------

  Dipole Moment: [D]
     X:    -4.1423      Y:    -1.3413      Z:    -1.3412     Total:     4.5559

*** Psi4 exiting successfully. Buy a developer a beer!
