                               Psi4 1.3.2 release

  ==> Input File <==

--------------------------------------------------------------------------
#psi4
#
memory 32 gb

molecule  {
0 1
  S        1.4460749    -0.0004621    -0.8805927
  N        2.9928530     0.0007270     1.5561310
  C       -0.0983020    -0.0001890    -0.3868260
  C       -0.7602250     1.2164250    -0.1926110
  C       -0.7603600    -1.2165950    -0.1917730
  C       -2.0926340     1.2101350     0.2229910
  C       -2.0927710    -1.2098700     0.2238180
  C       -2.7593910     0.0002400     0.4292470
  C        2.3883410     0.0002320     0.5352820
  H       -0.2335390     2.1531730    -0.3546160
  H       -0.2337770    -2.1535140    -0.3531260
  H       -2.6102660     2.1527600     0.3813710
  H       -2.6105080    -2.1523280     0.3828450
  H       -3.7976120     0.0004090     0.7511150
units angstrom
no_reorient  #important for SAPT in psi4, default
symmetry c1  #important for SAPT in psi4, default
}

set PROPERTIES_ORIGIN ["COM"]
properties('MP2/aug-cc-pvtz', properties = ['dipole'])
--------------------------------------------------------------------------

    Molecular point group: c1
  Charge       = 0
  Multiplicity = 1
  Basis Set: AUG-CC-PVTZ
    Blend: AUG-CC-PVTZ
  Basis Set: (AUG-CC-PVTZ AUX)
    Blend: AUG-CC-PVTZ-JKFIT

    Orbital Energies [Eh]
    ---------------------

    Doubly Occupied:

       1A    -92.008136     2A    -15.586713     3A    -11.300688
       4A    -11.281240     5A    -11.273069     6A    -11.272967
       7A    -11.271387     8A    -11.263593     9A    -11.263492
      10A     -9.011767    11A     -6.693515    12A     -6.692024
      13A     -6.690916    14A     -1.218301    15A     -1.194553
      16A     -1.114276    17A     -1.047028    18A     -0.994902
      19A     -0.862268    20A     -0.847160    21A     -0.747981
      22A     -0.697170    23A     -0.665530    24A     -0.644185
      25A     -0.618185    26A     -0.589842    27A     -0.564007
      28A     -0.536722    29A     -0.533373    30A     -0.512533
      31A     -0.507765    32A     -0.451338    33A     -0.379948
      34A     -0.369560    35A     -0.365281

  @DF-RHF Final Energy:  -720.04924853191710

   => Energetics <=

    Nuclear Repulsion Energy =            447.4274882632726644
    One-Electron Energy =               -1872.8106464686723029
    Two-Electron Energy =                 705.3339096734825944
    Total Energy =                       -720.0492485319171010
  Basis Set: (AUG-CC-PVTZ AUX)
    Blend: AUG-CC-PVTZ-RI
    Molecular point group: c1

    Geometry (in Angstrom), charge = 0, multiplicity = 1:

       Center              X                  Y                   Z               Mass
    ------------   -----------------  -----------------  -----------------  -----------------
         S            1.412899742037    -0.000465402267    -0.896381323515    31.972071174400
         N            2.959677842037     0.000723697733     1.540342376485    14.003074004430
         C           -0.131477157963    -0.000192302267    -0.402614623515    12.000000000000
         C           -0.793400157963     1.216421697733    -0.208399623515    12.000000000000
         C           -0.793535157963    -1.216598302267    -0.207561623515    12.000000000000
         C           -2.125809157963     1.210131697733     0.207202376485    12.000000000000
         C           -2.125946157963    -1.209873302267     0.208029376485    12.000000000000
         C           -2.792566157963     0.000236697733     0.413458376485    12.000000000000
         C            2.355165842037     0.000228697733     0.519493376485    12.000000000000
         H           -0.266714157963     2.153169697733    -0.370404623515     1.007825032230
         H           -0.266952157963    -2.153517302267    -0.368914623515     1.007825032230
         H           -2.643441157963     2.152756697733     0.365582376485     1.007825032230
         H           -2.643683157963    -2.152331302267     0.367056376485     1.007825032230
         H           -3.830787157963     0.000405697733     0.735326376485     1.007825032230

  Basis Set: AUG-CC-PVTZ
    Blend: AUG-CC-PVTZ
  Basis Set: (AUG-CC-PVTZ AUX)
    Blend: AUG-CC-PVTZ-JKFIT
	 Reference Energy          =    -720.0492485319171010 [Eh]
	 Singles Energy            =      -0.0000000000000000 [Eh]
	 Same-Spin Energy          =      -0.4144841266459547 [Eh]
	 Opposite-Spin Energy      =      -1.2516374046925089 [Eh]
	 Correlation Energy        =      -1.6661215313384636 [Eh]
	 Total Energy              =    -721.7153700632555910 [Eh]

	 ================> DF-SCS-MP2 Energies <==================
	-----------------------------------------------------------
	 SCS Same-Spin Scale       =       0.3333333333333333 [-]
	 SCS Opposite-Spin Scale   =       1.2000000000000000 [-]
	 SCS Same-Spin Energy      =      -0.1381613755486515 [Eh]
	 SCS Opposite-Spin Energy  =      -1.5019648856310106 [Eh]
	 SCS Correlation Energy    =      -1.6401262611796621 [Eh]
	 SCS Total Energy          =    -721.6893747930968175 [Eh]
	-----------------------------------------------------------

  Dipole Moment: [D]
     X:    -4.5456      Y:    -0.0008      Z:    -1.7397     Total:     4.8672

*** Psi4 exiting successfully. Buy a developer a beer!
