                               Psi4 1.4a3.dev225

  ==> Input File <==

--------------------------------------------------------------------------
#psi4
#
memory 32 gb

molecule  {
0 1
  S        1.5760570    -0.7866040    -0.6163520
  N        3.0341730     1.0750000     1.0360560
  C       -0.1048350    -0.2840020    -0.2434360
  C       -0.5575540     0.9935740    -0.5890840
  C       -0.9686960    -1.2210780     0.3301710
  C       -1.8821680     1.3412840    -0.3245050
  C       -2.2987160    -0.8680880     0.5684580
  C       -2.7556360     0.4105630     0.2446000
  C        2.3779454     0.2841022     0.3487130
  H        0.1226330     1.7094560    -1.0436160
  H       -0.6002520    -2.2070840     0.6009630
  H       -2.2361210     2.3368740    -0.5796600
  H       -2.9743520    -1.5927660     1.0156100
  H       -3.7893020     0.6841560     0.4396570
units angstrom
no_reorient  #important for SAPT in psi4, default
symmetry c1  #important for SAPT in psi4, default
}

set PROPERTIES_ORIGIN ["COM"]
properties('MP2/aug-cc-pvtz', properties = ['dipole'])
--------------------------------------------------------------------------

    Molecular point group: c1
  Charge       = 0
  Multiplicity = 1
  Basis Set: AUG-CC-PVTZ
    Blend: AUG-CC-PVTZ
  Basis Set: (AUG-CC-PVTZ AUX)
    Blend: AUG-CC-PVTZ-JKFIT

    Orbital Energies [Eh]
    ---------------------

    Doubly Occupied:

       1A    -92.024481     2A    -15.601548     3A    -11.317050
       4A    -11.300240     5A    -11.270914     6A    -11.269632
       7A    -11.265405     8A    -11.263083     9A    -11.262692
      10A     -9.024897    11A     -6.706560    12A     -6.704810
      13A     -6.704050    14A     -1.201519    15A     -1.180326
      16A     -1.096078    17A     -1.044459    18A     -1.007121
      19A     -0.857867    20A     -0.842261    21A     -0.738101
      22A     -0.691672    23A     -0.657941    24A     -0.644475
      25A     -0.616261    26A     -0.589564    27A     -0.560813
      28A     -0.535231    29A     -0.527593    30A     -0.517958
      31A     -0.510441    32A     -0.435707    33A     -0.394391
      34A     -0.364109    35A     -0.354474

  @DF-RHF Final Energy:  -720.04750237489009

   => Energetics <=

    Nuclear Repulsion Energy =            441.1820281553640939
    One-Electron Energy =               -1860.2916096973197000
    Two-Electron Energy =                 699.0620791670654626
    Total Energy =                       -720.0475023748900867
  Basis Set: (AUG-CC-PVTZ AUX)
    Blend: AUG-CC-PVTZ-RI
    Molecular point group: c1

    Geometry (in Angstrom), charge = 0, multiplicity = 1:

       Center              X                  Y                   Z               Mass
    ------------   -----------------  -----------------  -----------------  -----------------
         S            1.509026414982    -0.777109641667    -0.610850838598    31.972071174400
         N            2.967142414982     1.084494358333     1.041557161402    14.003074004430
         C           -0.171865585018    -0.274507641667    -0.237934838598    12.000000000000
         C           -0.624584585018     1.003068358333    -0.583582838598    12.000000000000
         C           -1.035726585018    -1.211583641667     0.335672161402    12.000000000000
         C           -1.949198585018     1.350778358333    -0.319003838598    12.000000000000
         C           -2.365746585018    -0.858593641667     0.573959161402    12.000000000000
         C           -2.822666585018     0.420057358333     0.250101161402    12.000000000000
         C            2.310914814982     0.293596558333     0.354214161402    12.000000000000
         H            0.055602414982     1.718950358333    -1.038114838598     1.007825032230
         H           -0.667282585018    -2.197589641667     0.606464161402     1.007825032230
         H           -2.303151585018     2.346368358333    -0.574158838598     1.007825032230
         H           -3.041382585018    -1.583271641667     1.021111161402     1.007825032230
         H           -3.856332585018     0.693650358333     0.445158161402     1.007825032230

  Basis Set: AUG-CC-PVTZ
    Blend: AUG-CC-PVTZ
  Basis Set: (AUG-CC-PVTZ AUX)
    Blend: AUG-CC-PVTZ-JKFIT
	 Reference Energy          =    -720.0475023748900867 [Eh]
	 Singles Energy            =      -0.0000000000000000 [Eh]
	 Same-Spin Energy          =      -0.4174360858056956 [Eh]
	 Opposite-Spin Energy      =      -1.2588152138049016 [Eh]
	 Correlation Energy        =      -1.6762512996105972 [Eh]
	 Total Energy              =    -721.7237536745006992 [Eh]

	 ================> DF-SCS-MP2 Energies <==================
	-----------------------------------------------------------
	 SCS Same-Spin Scale       =       0.3333333333333333 [-]
	 SCS Opposite-Spin Scale   =       1.2000000000000000 [-]
	 SCS Same-Spin Energy      =      -0.1391453619352319 [Eh]
	 SCS Opposite-Spin Energy  =      -1.5105782565658818 [Eh]
	 SCS Correlation Energy    =      -1.6497236185011137 [Eh]
	 SCS Total Energy          =    -721.6972259933911573 [Eh]
	-----------------------------------------------------------

  Dipole Moment: [D]
     X:    -4.1449      Y:    -1.3626      Z:    -1.3668     Total:     4.5722

*** Psi4 exiting successfully. Buy a developer a beer!
