                               Psi4 1.3.2 release

  ==> Input File <==

--------------------------------------------------------------------------
#psi4
#
memory 32 gb

molecule  {
0 1
  S        1.5471367    -0.0004822    -0.9428728
  N        2.9928530     0.0007270     1.5561310
  C       -0.0983020    -0.0001890    -0.3868260
  C       -0.7602250     1.2164250    -0.1926110
  C       -0.7603600    -1.2165950    -0.1917730
  C       -2.0926340     1.2101350     0.2229910
  C       -2.0927710    -1.2098700     0.2238180
  C       -2.7593910     0.0002400     0.4292470
  C        2.3883410     0.0002320     0.5352820
  H       -0.2335390     2.1531730    -0.3546160
  H       -0.2337770    -2.1535140    -0.3531260
  H       -2.6102660     2.1527600     0.3813710
  H       -2.6105080    -2.1523280     0.3828450
  H       -3.7976120     0.0004090     0.7511150
units angstrom
no_reorient  #important for SAPT in psi4, default
symmetry c1  #important for SAPT in psi4, default
}

set PROPERTIES_ORIGIN ["COM"]
properties('MP2/aug-cc-pvtz', properties = ['dipole'])
--------------------------------------------------------------------------

    Molecular point group: c1
  Charge       = 0
  Multiplicity = 1
  Basis Set: AUG-CC-PVTZ
    Blend: AUG-CC-PVTZ
  Basis Set: (AUG-CC-PVTZ AUX)
    Blend: AUG-CC-PVTZ-JKFIT

    Orbital Energies [Eh]
    ---------------------

    Doubly Occupied:

       1A    -92.019413     2A    -15.587309     3A    -11.302773
       4A    -11.292768     5A    -11.271136     6A    -11.271088
       7A    -11.267858     8A    -11.262790     9A    -11.262640
      10A     -9.019666    11A     -6.701204    12A     -6.699742
      13A     -6.698835    14A     -1.214646    15A     -1.187966
      16A     -1.098728    17A     -1.044947    18A     -0.998177
      19A     -0.858315    20A     -0.841768    21A     -0.738846
      22A     -0.689890    23A     -0.659727    24A     -0.644606
      25A     -0.616608    26A     -0.588089    27A     -0.561312
      28A     -0.533282    29A     -0.530288    30A     -0.515445
      31A     -0.510732    32A     -0.449999    33A     -0.385544
      34A     -0.368390    35A     -0.363920

  @DF-RHF Final Energy:  -720.06476655966605

   => Energetics <=

    Nuclear Repulsion Energy =            442.5983722206608491
    One-Electron Energy =               -1863.2093870031335427
    Two-Electron Energy =                 700.5462482228066392
    Total Energy =                       -720.0647665596660545
  Basis Set: (AUG-CC-PVTZ AUX)
    Blend: AUG-CC-PVTZ-RI
    Molecular point group: c1

    Geometry (in Angstrom), charge = 0, multiplicity = 1:

       Center              X                  Y                   Z               Mass
    ------------   -----------------  -----------------  -----------------  -----------------
         S            1.490029589848    -0.000480742484    -0.943913176644    31.972071174400
         N            2.935745889848     0.000728457516     1.555090623356    14.003074004430
         C           -0.155409110152    -0.000187542484    -0.387866376644    12.000000000000
         C           -0.817332110152     1.216426457516    -0.193651376644    12.000000000000
         C           -0.817467110152    -1.216593542484    -0.192813376644    12.000000000000
         C           -2.149741110152     1.210136457516     0.221950623356    12.000000000000
         C           -2.149878110152    -1.209868542484     0.222777623356    12.000000000000
         C           -2.816498110152     0.000241457516     0.428206623356    12.000000000000
         C            2.331233889848     0.000233457516     0.534241623356    12.000000000000
         H           -0.290646110152     2.153174457516    -0.355656376644     1.007825032230
         H           -0.290884110152    -2.153512542484    -0.354166376644     1.007825032230
         H           -2.667373110152     2.152761457516     0.380330623356     1.007825032230
         H           -2.667615110152    -2.152326542484     0.381804623356     1.007825032230
         H           -3.854719110152     0.000410457516     0.750074623356     1.007825032230

  Basis Set: AUG-CC-PVTZ
    Blend: AUG-CC-PVTZ
  Basis Set: (AUG-CC-PVTZ AUX)
    Blend: AUG-CC-PVTZ-JKFIT
	 Reference Energy          =    -720.0647665596660545 [Eh]
	 Singles Energy            =      -0.0000000000000000 [Eh]
	 Same-Spin Energy          =      -0.4132755901478377 [Eh]
	 Opposite-Spin Energy      =      -1.2512099250751914 [Eh]
	 Correlation Energy        =      -1.6644855152230291 [Eh]
	 Total Energy              =    -721.7292520748891320 [Eh]

	 ================> DF-SCS-MP2 Energies <==================
	-----------------------------------------------------------
	 SCS Same-Spin Scale       =       0.3333333333333333 [-]
	 SCS Opposite-Spin Scale   =       1.2000000000000000 [-]
	 SCS Same-Spin Energy      =      -0.1377585300492792 [Eh]
	 SCS Opposite-Spin Energy  =      -1.5014519100902295 [Eh]
	 SCS Correlation Energy    =      -1.6392104401395087 [Eh]
	 SCS Total Energy          =    -721.7039769998056045 [Eh]
	-----------------------------------------------------------

  Dipole Moment: [D]
     X:    -4.2677      Y:    -0.0009      Z:    -1.9038     Total:     4.6731

*** Psi4 exiting successfully. Buy a developer a beer!
