                               Psi4 1.3.2 release

  ==> Input File <==

--------------------------------------------------------------------------
#psi4
#
memory 32 gb

molecule  {
0 1
  S        1.5992360    -0.0004910    -0.9713300
  N        2.9928530     0.0007270     1.5561310
  C       -0.0878425    -0.0001748    -0.3572889
  C       -0.7602250     1.2164250    -0.1926110
  C       -0.7603600    -1.2165950    -0.1917730
  C       -2.0926340     1.2101350     0.2229910
  C       -2.0927710    -1.2098700     0.2238180
  C       -2.7593910     0.0002400     0.4292470
  C        2.3883410     0.0002320     0.5352820
  H       -0.2335390     2.1531730    -0.3546160
  H       -0.2337770    -2.1535140    -0.3531260
  H       -2.6102660     2.1527600     0.3813710
  H       -2.6105080    -2.1523280     0.3828450
  H       -3.7976120     0.0004090     0.7511150
units angstrom
no_reorient  #important for SAPT in psi4, default
symmetry c1  #important for SAPT in psi4, default
}

set PROPERTIES_ORIGIN ["COM"]
properties('MP2/aug-cc-pvtz', properties = ['dipole'])
--------------------------------------------------------------------------

    Molecular point group: c1
  Charge       = 0
  Multiplicity = 1
  Basis Set: AUG-CC-PVTZ
    Blend: AUG-CC-PVTZ
  Basis Set: (AUG-CC-PVTZ AUX)
    Blend: AUG-CC-PVTZ-JKFIT

    Orbital Energies [Eh]
    ---------------------

    Doubly Occupied:

       1A    -92.024047     2A    -15.586628     3A    -11.303008
       4A    -11.298436     5A    -11.270650     6A    -11.270609
       7A    -11.266506     8A    -11.262590     9A    -11.262397
      10A     -9.023041    11A     -6.704500    12A     -6.702976
      13A     -6.702144    14A     -1.213464    15A     -1.185069
      16A     -1.091478    17A     -1.044114    18A     -0.999670
      19A     -0.856649    20A     -0.839291    21A     -0.734225
      22A     -0.685192    23A     -0.657307    24A     -0.645360
      25A     -0.615930    26A     -0.587510    27A     -0.559813
      28A     -0.531423    29A     -0.529005    30A     -0.517021
      31A     -0.511482    32A     -0.448250    33A     -0.387457
      34A     -0.367376    35A     -0.363308

  @DF-RHF Final Energy:  -720.06526695786738

   => Energetics <=

    Nuclear Repulsion Energy =            440.3800307140747350
    One-Electron Energy =               -1858.7947382450722671
    Two-Electron Energy =                 698.3494405731300958
    Total Energy =                       -720.0652669578673795
  Basis Set: (AUG-CC-PVTZ AUX)
    Blend: AUG-CC-PVTZ-RI
    Molecular point group: c1

    Geometry (in Angstrom), charge = 0, multiplicity = 1:

       Center              X                  Y                   Z               Mass
    ------------   -----------------  -----------------  -----------------  -----------------
         S            1.528861873530    -0.000488720688    -0.968256808335    31.972071174400
         N            2.922478873530     0.000729279312     1.559204191665    14.003074004430
         C           -0.158216626470    -0.000172520688    -0.354215708335    12.000000000000
         C           -0.830599126470     1.216427279312    -0.189537808335    12.000000000000
         C           -0.830734126470    -1.216592720688    -0.188699808335    12.000000000000
         C           -2.163008126470     1.210137279312     0.226064191665    12.000000000000
         C           -2.163145126470    -1.209867720688     0.226891191665    12.000000000000
         C           -2.829765126470     0.000242279312     0.432320191665    12.000000000000
         C            2.317966873530     0.000234279312     0.538355191665    12.000000000000
         H           -0.303913126470     2.153175279312    -0.351542808335     1.007825032230
         H           -0.304151126470    -2.153511720688    -0.350052808335     1.007825032230
         H           -2.680640126470     2.152762279312     0.384444191665     1.007825032230
         H           -2.680882126470    -2.152325720688     0.385918191665     1.007825032230
         H           -3.867986126470     0.000411279312     0.754188191665     1.007825032230

  Basis Set: AUG-CC-PVTZ
    Blend: AUG-CC-PVTZ
  Basis Set: (AUG-CC-PVTZ AUX)
    Blend: AUG-CC-PVTZ-JKFIT
	 Reference Energy          =    -720.0652669578673795 [Eh]
	 Singles Energy            =      -0.0000000000000000 [Eh]
	 Same-Spin Energy          =      -0.4130117780874891 [Eh]
	 Opposite-Spin Energy      =      -1.2516108796179970 [Eh]
	 Correlation Energy        =      -1.6646226577054861 [Eh]
	 Total Energy              =    -721.7298896155729153 [Eh]

	 ================> DF-SCS-MP2 Energies <==================
	-----------------------------------------------------------
	 SCS Same-Spin Scale       =       0.3333333333333333 [-]
	 SCS Opposite-Spin Scale   =       1.2000000000000000 [-]
	 SCS Same-Spin Energy      =      -0.1376705926958297 [Eh]
	 SCS Opposite-Spin Energy  =      -1.5019330555415964 [Eh]
	 SCS Correlation Energy    =      -1.6396036482374261 [Eh]
	 SCS Total Energy          =    -721.7048706061048051 [Eh]
	-----------------------------------------------------------

  Dipole Moment: [D]
     X:    -4.1512      Y:    -0.0009      Z:    -2.0070     Total:     4.6109

*** Psi4 exiting successfully. Buy a developer a beer!
