                               Psi4 1.3.2 release

  ==> Input File <==

--------------------------------------------------------------------------
#psi4
#
memory 32 gb

molecule  {
0 1
  S        1.5992360    -0.0004910    -0.9713300
  N        2.9928530     0.0007270     1.5561310
  C       -0.0983020    -0.0001890    -0.3868260
  C       -0.7602250     1.2164250    -0.1926110
  C       -0.7603600    -1.2165950    -0.1917730
  C       -2.0926340     1.2101350     0.2229910
  C       -2.0927710    -1.2098700     0.2238180
  C       -2.7593910     0.0002400     0.4292470
  C        2.4811357     0.0003170     0.7124518
  H       -0.2335390     2.1531730    -0.3546160
  H       -0.2337770    -2.1535140    -0.3531260
  H       -2.6102660     2.1527600     0.3813710
  H       -2.6105080    -2.1523280     0.3828450
  H       -3.7976120     0.0004090     0.7511150
units angstrom
no_reorient  #important for SAPT in psi4, default
symmetry c1  #important for SAPT in psi4, default
}

set PROPERTIES_ORIGIN ["COM"]
properties('MP2/aug-cc-pvtz', properties = ['dipole'])
--------------------------------------------------------------------------

    Molecular point group: c1
  Charge       = 0
  Multiplicity = 1
  Basis Set: AUG-CC-PVTZ
    Blend: AUG-CC-PVTZ
  Basis Set: (AUG-CC-PVTZ AUX)
    Blend: AUG-CC-PVTZ-JKFIT

    Orbital Energies [Eh]
    ---------------------

    Doubly Occupied:

       1A    -92.028435     2A    -15.518504     3A    -11.296034
       4A    -11.269675     5A    -11.269632     6A    -11.266454
       7A    -11.261705     8A    -11.261545     9A    -11.239960
      10A     -9.023673    11A     -6.704606    12A     -6.703459
      13A     -6.702457    14A     -1.300928    15A     -1.185026
      16A     -1.077685    17A     -1.043408    18A     -0.972951
      19A     -0.855734    20A     -0.829538    21A     -0.724702
      22A     -0.664751    23A     -0.656165    24A     -0.629528
      25A     -0.615202    26A     -0.581746    27A     -0.555812
      28A     -0.552988    29A     -0.544271    30A     -0.525158
      31A     -0.522402    32A     -0.488779    33A     -0.402770
      34A     -0.367019    35A     -0.362820

  @DF-RHF Final Energy:  -719.98606870750211

   => Energetics <=

    Nuclear Repulsion Energy =            439.8584247294772922
    One-Electron Energy =               -1857.6779411875531878
    Two-Electron Energy =                 697.8334477505737823
    Total Energy =                       -719.9860687075021133
  Basis Set: (AUG-CC-PVTZ AUX)
    Blend: AUG-CC-PVTZ-RI
    Molecular point group: c1

    Geometry (in Angstrom), charge = 0, multiplicity = 1:

       Center              X                  Y                   Z               Mass
    ------------   -----------------  -----------------  -----------------  -----------------
         S            1.521543962634    -0.000495013356    -0.981378327975    31.972071174400
         N            2.915160962634     0.000722986644     1.546082672025    14.003074004430
         C           -0.175994037366    -0.000193013356    -0.396874327975    12.000000000000
         C           -0.837917037366     1.216420986644    -0.202659327975    12.000000000000
         C           -0.838052037366    -1.216599013356    -0.201821327975    12.000000000000
         C           -2.170326037366     1.210130986644     0.212942672025    12.000000000000
         C           -2.170463037366    -1.209874013356     0.213769672025    12.000000000000
         C           -2.837083037366     0.000235986644     0.419198672025    12.000000000000
         C            2.403443662634     0.000312986644     0.702403472025    12.000000000000
         H           -0.311231037366     2.153168986644    -0.364664327975     1.007825032230
         H           -0.311469037366    -2.153518013356    -0.363174327975     1.007825032230
         H           -2.687958037366     2.152755986644     0.371322672025     1.007825032230
         H           -2.688200037366    -2.152332013356     0.372796672025     1.007825032230
         H           -3.875304037366     0.000404986644     0.741066672025     1.007825032230

  Basis Set: AUG-CC-PVTZ
    Blend: AUG-CC-PVTZ
  Basis Set: (AUG-CC-PVTZ AUX)
    Blend: AUG-CC-PVTZ-JKFIT
	 Reference Energy          =    -719.9860687075021133 [Eh]
	 Singles Energy            =      -0.0000000000000000 [Eh]
	 Same-Spin Energy          =      -0.3997981777257176 [Eh]
	 Opposite-Spin Energy      =      -1.2284578378117414 [Eh]
	 Correlation Energy        =      -1.6282560155374590 [Eh]
	 Total Energy              =    -721.6143247230395446 [Eh]

	 ================> DF-SCS-MP2 Energies <==================
	-----------------------------------------------------------
	 SCS Same-Spin Scale       =       0.3333333333333333 [-]
	 SCS Opposite-Spin Scale   =       1.2000000000000000 [-]
	 SCS Same-Spin Energy      =      -0.1332660592419058 [Eh]
	 SCS Opposite-Spin Energy  =      -1.4741494053740898 [Eh]
	 SCS Correlation Energy    =      -1.6074154646159957 [Eh]
	 SCS Total Energy          =    -721.5934841721181101 [Eh]
	-----------------------------------------------------------

  Dipole Moment: [D]
     X:    -4.2065      Y:    -0.0009      Z:    -1.9792     Total:     4.6489

*** Psi4 exiting successfully. Buy a developer a beer!
