                               Psi4 1.3.2 release

  ==> Input File <==

--------------------------------------------------------------------------
#psi4
#
memory 32 gb

molecule  {
0 1
  S        1.6256502    -0.0004950    -0.9848723
  N        2.9928530     0.0007270     1.5561310
  C       -0.0983020    -0.0001890    -0.3868260
  C       -0.7602250     1.2164250    -0.1926110
  C       -0.7603600    -1.2165950    -0.1917730
  C       -2.0926340     1.2101350     0.2229910
  C       -2.0927710    -1.2098700     0.2238180
  C       -2.7593910     0.0002400     0.4292470
  C        2.3883410     0.0002320     0.5352820
  H       -0.2335390     2.1531730    -0.3546160
  H       -0.2337770    -2.1535140    -0.3531260
  H       -2.6102660     2.1527600     0.3813710
  H       -2.6105080    -2.1523280     0.3828450
  H       -3.7976120     0.0004090     0.7511150
units angstrom
no_reorient  #important for SAPT in psi4, default
symmetry c1  #important for SAPT in psi4, default
}

set PROPERTIES_ORIGIN ["COM"]
properties('MP2/aug-cc-pvtz', properties = ['dipole'])
--------------------------------------------------------------------------

    Molecular point group: c1
  Charge       = 0
  Multiplicity = 1
  Basis Set: AUG-CC-PVTZ
    Blend: AUG-CC-PVTZ
  Basis Set: (AUG-CC-PVTZ AUX)
    Blend: AUG-CC-PVTZ-JKFIT

    Orbital Energies [Eh]
    ---------------------

    Doubly Occupied:

       1A    -92.025310     2A    -15.586773     3A    -11.303336
       4A    -11.301039     5A    -11.270669     6A    -11.270630
       7A    -11.266272     8A    -11.262774     9A    -11.262559
      10A     -9.023787    11A     -6.705230    12A     -6.703676
      13A     -6.702879    14A     -1.213144    15A     -1.184421
      16A     -1.087659    17A     -1.044222    18A     -1.000536
      19A     -0.856496    20A     -0.838786    21A     -0.733139
      22A     -0.683838    23A     -0.656807    24A     -0.645315
      25A     -0.616083    26A     -0.586366    27A     -0.559312
      28A     -0.531594    29A     -0.528689    30A     -0.516567
      31A     -0.512207    32A     -0.447017    33A     -0.387810
      34A     -0.367683    35A     -0.363554

  @DF-RHF Final Energy:  -720.06516866172558

   => Energetics <=

    Nuclear Repulsion Energy =            439.2175831002745099
    One-Electron Energy =               -1856.4731541712851595
    Two-Electron Energy =                 697.1904024092851841
    Total Energy =                       -720.0651686617255791
  Basis Set: (AUG-CC-PVTZ AUX)
    Blend: AUG-CC-PVTZ-RI
    Molecular point group: c1

    Geometry (in Angstrom), charge = 0, multiplicity = 1:

       Center              X                  Y                   Z               Mass
    ------------   -----------------  -----------------  -----------------  -----------------
         S            1.549950690660    -0.000490511379    -0.975966979794    31.972071174400
         N            2.917153490660     0.000731488621     1.565036320206    14.003074004430
         C           -0.174001509340    -0.000184511379    -0.377920679794    12.000000000000
         C           -0.835924509340     1.216429488621    -0.183705679794    12.000000000000
         C           -0.836059509340    -1.216590511379    -0.182867679794    12.000000000000
         C           -2.168333509340     1.210139488621     0.231896320206    12.000000000000
         C           -2.168470509340    -1.209865511379     0.232723320206    12.000000000000
         C           -2.835090509340     0.000244488621     0.438152320206    12.000000000000
         C            2.312641490660     0.000236488621     0.544187320206    12.000000000000
         H           -0.309238509340     2.153177488621    -0.345710679794     1.007825032230
         H           -0.309476509340    -2.153509511379    -0.344220679794     1.007825032230
         H           -2.685965509340     2.152764488621     0.390276320206     1.007825032230
         H           -2.686207509340    -2.152323511379     0.391750320206     1.007825032230
         H           -3.873311509340     0.000413488621     0.760020320206     1.007825032230

  Basis Set: AUG-CC-PVTZ
    Blend: AUG-CC-PVTZ
  Basis Set: (AUG-CC-PVTZ AUX)
    Blend: AUG-CC-PVTZ-JKFIT
	 Reference Energy          =    -720.0651686617255791 [Eh]
	 Singles Energy            =      -0.0000000000000000 [Eh]
	 Same-Spin Energy          =      -0.4127804808184558 [Eh]
	 Opposite-Spin Energy      =      -1.2515670517267965 [Eh]
	 Correlation Energy        =      -1.6643475325452521 [Eh]
	 Total Energy              =    -721.7295161942707864 [Eh]

	 ================> DF-SCS-MP2 Energies <==================
	-----------------------------------------------------------
	 SCS Same-Spin Scale       =       0.3333333333333333 [-]
	 SCS Opposite-Spin Scale   =       1.2000000000000000 [-]
	 SCS Same-Spin Energy      =      -0.1375934936061519 [Eh]
	 SCS Opposite-Spin Energy  =      -1.5018804620721558 [Eh]
	 SCS Correlation Energy    =      -1.6394739556783078 [Eh]
	 SCS Total Energy          =    -721.7046426174039198 [Eh]
	-----------------------------------------------------------

  Dipole Moment: [D]
     X:    -4.1330      Y:    -0.0009      Z:    -2.0119     Total:     4.5967

*** Psi4 exiting successfully. Buy a developer a beer!
