                               Psi4 1.3.2 release

  ==> Input File <==

--------------------------------------------------------------------------
#psi4
#
memory 32 gb

molecule  {
0 1
  S        1.5992360    -0.0004910    -0.9713300
  N        2.9928530     0.0007270     1.5561310
  C       -0.0037501    -0.0002058    -0.4193826
  C       -0.7602250     1.2164250    -0.1926110
  C       -0.7603600    -1.2165950    -0.1917730
  C       -2.0926340     1.2101350     0.2229910
  C       -2.0927710    -1.2098700     0.2238180
  C       -2.7593910     0.0002400     0.4292470
  C        2.3883410     0.0002320     0.5352820
  H       -0.2335390     2.1531730    -0.3546160
  H       -0.2337770    -2.1535140    -0.3531260
  H       -2.6102660     2.1527600     0.3813710
  H       -2.6105080    -2.1523280     0.3828450
  H       -3.7976120     0.0004090     0.7511150
units angstrom
no_reorient  #important for SAPT in psi4, default
symmetry c1  #important for SAPT in psi4, default
}

set PROPERTIES_ORIGIN ["COM"]
properties('MP2/aug-cc-pvtz', properties = ['dipole'])
--------------------------------------------------------------------------

    Molecular point group: c1
  Charge       = 0
  Multiplicity = 1
  Basis Set: AUG-CC-PVTZ
    Blend: AUG-CC-PVTZ
  Basis Set: (AUG-CC-PVTZ AUX)
    Blend: AUG-CC-PVTZ-JKFIT

    Orbital Energies [Eh]
    ---------------------

    Doubly Occupied:

       1A    -92.024554     2A    -15.588560     3A    -11.303532
       4A    -11.298061     5A    -11.276963     6A    -11.276928
       7A    -11.270027     8A    -11.261650     9A    -11.261554
      10A     -9.025034    11A     -6.706565    12A     -6.705196
      13A     -6.704150    14A     -1.215829    15A     -1.177998
      16A     -1.105486    17A     -1.038872    18A     -0.994376
      19A     -0.849664    20A     -0.841419    21A     -0.735148
      22A     -0.696442    23A     -0.653853    24A     -0.643826
      25A     -0.608645    26A     -0.590914    27A     -0.561568
      28A     -0.537692    29A     -0.527266    30A     -0.512882
      31A     -0.503830    32A     -0.455624    33A     -0.387264
      34A     -0.361503    35A     -0.361276

  @DF-RHF Final Energy:  -720.05275092962108

   => Energetics <=

    Nuclear Repulsion Energy =            440.4729905235191154
    One-Electron Energy =               -1858.9231774826882884
    Two-Electron Energy =                 698.3974360295479755
    Total Energy =                       -720.0527509296210837
  Basis Set: (AUG-CC-PVTZ AUX)
    Blend: AUG-CC-PVTZ-RI
    Molecular point group: c1

    Geometry (in Angstrom), charge = 0, multiplicity = 1:

       Center              X                  Y                   Z               Mass
    ------------   -----------------  -----------------  -----------------  -----------------
         S            1.521387783588    -0.000485965424    -0.962737951712    31.972071174400
         N            2.915004783588     0.000732034576     1.564723048288    14.003074004430
         C           -0.081598316412    -0.000200765424    -0.410790551712    12.000000000000
         C           -0.838073216412     1.216430034576    -0.184018951712    12.000000000000
         C           -0.838208216412    -1.216589965424    -0.183180951712    12.000000000000
         C           -2.170482216412     1.210140034576     0.231583048288    12.000000000000
         C           -2.170619216412    -1.209864965424     0.232410048288    12.000000000000
         C           -2.837239216412     0.000245034576     0.437839048288    12.000000000000
         C            2.310492783588     0.000237034576     0.543874048288    12.000000000000
         H           -0.311387216412     2.153178034576    -0.346023951712     1.007825032230
         H           -0.311625216412    -2.153508965424    -0.344533951712     1.007825032230
         H           -2.688114216412     2.152765034576     0.389963048288     1.007825032230
         H           -2.688356216412    -2.152322965424     0.391437048288     1.007825032230
         H           -3.875460216412     0.000414034576     0.759707048288     1.007825032230

  Basis Set: AUG-CC-PVTZ
    Blend: AUG-CC-PVTZ
  Basis Set: (AUG-CC-PVTZ AUX)
    Blend: AUG-CC-PVTZ-JKFIT
	 Reference Energy          =    -720.0527509296210837 [Eh]
	 Singles Energy            =      -0.0000000000000000 [Eh]
	 Same-Spin Energy          =      -0.4139166389633876 [Eh]
	 Opposite-Spin Energy      =      -1.2532930758744261 [Eh]
	 Correlation Energy        =      -1.6672097148378136 [Eh]
	 Total Energy              =    -721.7199606444588653 [Eh]

	 ================> DF-SCS-MP2 Energies <==================
	-----------------------------------------------------------
	 SCS Same-Spin Scale       =       0.3333333333333333 [-]
	 SCS Opposite-Spin Scale   =       1.2000000000000000 [-]
	 SCS Same-Spin Energy      =      -0.1379722129877959 [Eh]
	 SCS Opposite-Spin Energy  =      -1.5039516910493111 [Eh]
	 SCS Correlation Energy    =      -1.6419239040371070 [Eh]
	 SCS Total Energy          =    -721.6946748336581550 [Eh]
	-----------------------------------------------------------

  Dipole Moment: [D]
     X:    -4.0397      Y:    -0.0009      Z:    -1.9474     Total:     4.4846

*** Psi4 exiting successfully. Buy a developer a beer!
