                               Psi4 1.3.2 release

  ==> Input File <==

--------------------------------------------------------------------------
#psi4
#
memory 32 gb

molecule  {
0 1
  S        1.5992360    -0.0004910    -0.9713300
  N        2.9928530     0.0007270     1.5561310
  C       -0.0983020    -0.0001890    -0.3868260
  C       -0.7602250     1.2164250    -0.1926110
  C       -0.7603600    -1.2165950    -0.1917730
  C       -2.0926340     1.2101350     0.2229910
  C       -2.0927710    -1.2098700     0.2238180
  C       -2.7593910     0.0002400     0.4292470
  C        2.4392941     0.0002737     0.6213272
  H       -0.2335390     2.1531730    -0.3546160
  H       -0.2337770    -2.1535140    -0.3531260
  H       -2.6102660     2.1527600     0.3813710
  H       -2.6105080    -2.1523280     0.3828450
  H       -3.7976120     0.0004090     0.7511150
units angstrom
no_reorient  #important for SAPT in psi4, default
symmetry c1  #important for SAPT in psi4, default
}

set PROPERTIES_ORIGIN ["COM"]
properties('MP2/aug-cc-pvtz', properties = ['dipole'])
--------------------------------------------------------------------------

    Molecular point group: c1
  Charge       = 0
  Multiplicity = 1
  Basis Set: AUG-CC-PVTZ
    Blend: AUG-CC-PVTZ
  Basis Set: (AUG-CC-PVTZ AUX)
    Blend: AUG-CC-PVTZ-JKFIT

    Orbital Energies [Eh]
    ---------------------

    Doubly Occupied:

       1A    -92.025646     2A    -15.555386     3A    -11.296930
       4A    -11.273050     5A    -11.269997     6A    -11.269955
       7A    -11.266429     8A    -11.262025     9A    -11.261853
      10A     -9.022472    11A     -6.703651    12A     -6.702373
      13A     -6.701445    14A     -1.257463    15A     -1.185712
      16A     -1.083169    17A     -1.043707    18A     -0.985369
      19A     -0.856154    20A     -0.834171    21A     -0.728907
      22A     -0.675170    23A     -0.656661    24A     -0.639856
      25A     -0.615505    26A     -0.583276    27A     -0.557612
      28A     -0.532961    29A     -0.532206    30A     -0.522195
      31A     -0.518303    32A     -0.474001    33A     -0.397131
      34A     -0.367461    35A     -0.363059

  @DF-RHF Final Energy:  -720.06441936179351

   => Energetics <=

    Nuclear Repulsion Energy =            439.7978998184073589
    One-Electron Energy =               -1857.6821245312121391
    Two-Electron Energy =                 697.8198053510112686
    Total Energy =                       -720.0644193617935116
  Basis Set: (AUG-CC-PVTZ AUX)
    Blend: AUG-CC-PVTZ-RI
    Molecular point group: c1

    Geometry (in Angstrom), charge = 0, multiplicity = 1:

       Center              X                  Y                   Z               Mass
    ------------   -----------------  -----------------  -----------------  -----------------
         S            1.525262822861    -0.000491164874    -0.973279219657    31.972071174400
         N            2.918879822861     0.000726835126     1.554181780343    14.003074004430
         C           -0.172275177139    -0.000189164874    -0.388775219657    12.000000000000
         C           -0.834198177139     1.216424835126    -0.194560219657    12.000000000000
         C           -0.834333177139    -1.216595164874    -0.193722219657    12.000000000000
         C           -2.166607177139     1.210134835126     0.221041780343    12.000000000000
         C           -2.166744177139    -1.209870164874     0.221868780343    12.000000000000
         C           -2.833364177139     0.000239835126     0.427297780343    12.000000000000
         C            2.365320922861     0.000273535126     0.619377980343    12.000000000000
         H           -0.307512177139     2.153172835126    -0.356565219657     1.007825032230
         H           -0.307750177139    -2.153514164874    -0.355075219657     1.007825032230
         H           -2.684239177139     2.152759835126     0.379421780343     1.007825032230
         H           -2.684481177139    -2.152328164874     0.380895780343     1.007825032230
         H           -3.871585177139     0.000408835126     0.749165780343     1.007825032230

  Basis Set: AUG-CC-PVTZ
    Blend: AUG-CC-PVTZ
  Basis Set: (AUG-CC-PVTZ AUX)
    Blend: AUG-CC-PVTZ-JKFIT
	 Reference Energy          =    -720.0644193617935116 [Eh]
	 Singles Energy            =      -0.0000000000000000 [Eh]
	 Same-Spin Energy          =      -0.4054737845099152 [Eh]
	 Opposite-Spin Energy      =      -1.2385347489688217 [Eh]
	 Correlation Energy        =      -1.6440085334787369 [Eh]
	 Total Energy              =    -721.7084278952722798 [Eh]

	 ================> DF-SCS-MP2 Energies <==================
	-----------------------------------------------------------
	 SCS Same-Spin Scale       =       0.3333333333333333 [-]
	 SCS Opposite-Spin Scale   =       1.2000000000000000 [-]
	 SCS Same-Spin Energy      =      -0.1351579281699717 [Eh]
	 SCS Opposite-Spin Energy  =      -1.4862416987625859 [Eh]
	 SCS Correlation Energy    =      -1.6213996269325577 [Eh]
	 SCS Total Energy          =    -721.6858189887260551 [Eh]
	-----------------------------------------------------------

  Dipole Moment: [D]
     X:    -4.1584      Y:    -0.0009      Z:    -1.9541     Total:     4.5947

*** Psi4 exiting successfully. Buy a developer a beer!
