                               Psi4 1.3.2 release

  ==> Input File <==

--------------------------------------------------------------------------
#psi4
#
memory 32 gb

molecule  {
-1 1
  N       -0.3347890    -1.1274600     0.0000330
  N       -0.3348100     1.1274550     0.0000810
  N        0.9473750    -0.6741020    -0.0001810
  N        0.9473650     0.6741170    -0.0001350
  C       -1.0701170    -0.0000090     0.0001780
  H       -2.1552728    -0.0000201     0.0503550
units angstrom
no_reorient  #important for SAPT in psi4, default
symmetry c1  #important for SAPT in psi4, default
}

set PROPERTIES_ORIGIN ["COM"]
properties('MP2/aug-cc-pvtz', properties = ['dipole'])
--------------------------------------------------------------------------

    Molecular point group: c1
  Charge       = -1
  Multiplicity = 1
  Basis Set: AUG-CC-PVTZ
    Blend: AUG-CC-PVTZ
  Basis Set: (AUG-CC-PVTZ AUX)
    Blend: AUG-CC-PVTZ-JKFIT

    Orbital Energies [Eh]
    ---------------------

    Doubly Occupied:

       1A    -15.423120     2A    -15.422284     3A    -15.390156
       4A    -15.390120     5A    -11.088298     6A     -1.218418
       7A     -0.991387     8A     -0.917628     9A     -0.628226
      10A     -0.621534    11A     -0.483440    12A     -0.413847
      13A     -0.356928    14A     -0.264418    15A     -0.250664
      16A     -0.246331    17A     -0.197618    18A     -0.170786

  @DF-RHF Final Energy:  -256.29146116526641

   => Energetics <=

    Nuclear Repulsion Energy =            154.9523624238404977
    One-Electron Energy =                -663.5372431533195368
    Two-Electron Energy =                 252.2934195642126554
    Total Energy =                       -256.2914611652663552
  Basis Set: (AUG-CC-PVTZ AUX)
    Blend: AUG-CC-PVTZ-RI
    Molecular point group: c1

    Geometry (in Angstrom), charge = -1, multiplicity = 1:

       Center              X                  Y                   Z               Mass
    ------------   -----------------  -----------------  -----------------  -----------------
         N           -0.365826300097    -1.127460170580    -0.000692243708    14.003074004430
         N           -0.365847300097     1.127454829420    -0.000644243708    14.003074004430
         N            0.916337699903    -0.674102170580    -0.000906243708    14.003074004430
         N            0.916327699903     0.674116829420    -0.000860243708    14.003074004430
         C           -1.101154300097    -0.000009170580    -0.000547243708    12.000000000000
         H           -2.186310100097    -0.000020270580     0.049629756292     1.007825032230

  Basis Set: AUG-CC-PVTZ
    Blend: AUG-CC-PVTZ
  Basis Set: (AUG-CC-PVTZ AUX)
    Blend: AUG-CC-PVTZ-JKFIT
	 Reference Energy          =    -256.2914611652664121 [Eh]
	 Singles Energy            =      -0.0000000000000000 [Eh]
	 Same-Spin Energy          =      -0.2863057115632986 [Eh]
	 Opposite-Spin Energy      =      -0.7990039728588842 [Eh]
	 Correlation Energy        =      -1.0853096844221830 [Eh]
	 Total Energy              =    -257.3767708496885689 [Eh]

	 ================> DF-SCS-MP2 Energies <==================
	-----------------------------------------------------------
	 SCS Same-Spin Scale       =       0.3333333333333333 [-]
	 SCS Opposite-Spin Scale   =       1.2000000000000000 [-]
	 SCS Same-Spin Energy      =      -0.0954352371877662 [Eh]
	 SCS Opposite-Spin Energy  =      -0.9588047674306610 [Eh]
	 SCS Correlation Energy    =      -1.0542400046184273 [Eh]
	 SCS Total Energy          =    -257.3457011698848191 [Eh]
	-----------------------------------------------------------

  Dipole Moment: [D]
     X:    -2.3282      Y:    -0.0000      Z:     0.0429     Total:     2.3286

*** Psi4 exiting successfully. Buy a developer a beer!
