                               Psi4 1.3.2 release

  ==> Input File <==

--------------------------------------------------------------------------
#psi4
#
memory 32 gb

molecule  {
-1 1
  N       -0.3347890    -1.1274600     0.0000330
  N       -0.3348100     1.1274550     0.0000810
  N        0.9473750    -0.6741020    -0.0001810
  N        0.9473650     0.6741170    -0.0001350
  C       -1.0701170    -0.0000090     0.0001780
  H       -2.1552483    -0.0000233     0.2003550
units angstrom
no_reorient  #important for SAPT in psi4, default
symmetry c1  #important for SAPT in psi4, default
}

set PROPERTIES_ORIGIN ["COM"]
properties('MP2/aug-cc-pvtz', properties = ['dipole'])
--------------------------------------------------------------------------

    Molecular point group: c1
  Charge       = -1
  Multiplicity = 1
  Basis Set: AUG-CC-PVTZ
    Blend: AUG-CC-PVTZ
  Basis Set: (AUG-CC-PVTZ AUX)
    Blend: AUG-CC-PVTZ-JKFIT

    Orbital Energies [Eh]
    ---------------------

    Doubly Occupied:

       1A    -15.423604     2A    -15.422768     3A    -15.390671
       4A    -15.390635     5A    -11.089933     6A     -1.218911
       7A     -0.991860     8A     -0.917625     9A     -0.628599
      10A     -0.619183    11A     -0.481203    12A     -0.414486
      13A     -0.354796    14A     -0.264849    15A     -0.251089
      16A     -0.246728    17A     -0.197929    18A     -0.170832

  @DF-RHF Final Energy:  -256.28914204081070

   => Energetics <=

    Nuclear Repulsion Energy =            154.8886251232631537
    One-Electron Energy =                -663.4041284549446118
    Two-Electron Energy =                 252.2263612908707273
    Total Energy =                       -256.2891420408107024
  Basis Set: (AUG-CC-PVTZ AUX)
    Blend: AUG-CC-PVTZ-RI
    Molecular point group: c1

    Geometry (in Angstrom), charge = -1, multiplicity = 1:

       Center              X                  Y                   Z               Mass
    ------------   -----------------  -----------------  -----------------  -----------------
         N           -0.365826657843    -1.127460123854    -0.002882528984    14.003074004430
         N           -0.365847657843     1.127454876146    -0.002834528984    14.003074004430
         N            0.916337342157    -0.674102123854    -0.003096528984    14.003074004430
         N            0.916327342157     0.674116876146    -0.003050528984    14.003074004430
         C           -1.101154657843    -0.000009123854    -0.002737528984    12.000000000000
         H           -2.186285957843    -0.000023423854     0.197439471016     1.007825032230

  Basis Set: AUG-CC-PVTZ
    Blend: AUG-CC-PVTZ
  Basis Set: (AUG-CC-PVTZ AUX)
    Blend: AUG-CC-PVTZ-JKFIT
	 Reference Energy          =    -256.2891420408107024 [Eh]
	 Singles Energy            =      -0.0000000000000000 [Eh]
	 Same-Spin Energy          =      -0.2864603016530892 [Eh]
	 Opposite-Spin Energy      =      -0.7993248153447874 [Eh]
	 Correlation Energy        =      -1.0857851169978767 [Eh]
	 Total Energy              =    -257.3749271578085995 [Eh]

	 ================> DF-SCS-MP2 Energies <==================
	-----------------------------------------------------------
	 SCS Same-Spin Scale       =       0.3333333333333333 [-]
	 SCS Opposite-Spin Scale   =       1.2000000000000000 [-]
	 SCS Same-Spin Energy      =      -0.0954867672176964 [Eh]
	 SCS Opposite-Spin Energy  =      -0.9591897784137449 [Eh]
	 SCS Correlation Energy    =      -1.0546765456314413 [Eh]
	 SCS Total Energy          =    -257.3438185864421257 [Eh]
	-----------------------------------------------------------

  Dipole Moment: [D]
     X:    -2.2822      Y:    -0.0000      Z:     0.1674     Total:     2.2883

*** Psi4 exiting successfully. Buy a developer a beer!
