                               Psi4 1.3.2 release

  ==> Input File <==

--------------------------------------------------------------------------
#psi4
#
memory 32 gb

molecule  {
-1 1
  N       -0.3347890    -1.1274600     0.0000330
  N       -0.3348100     1.1274550     0.0000810
  N        0.9473750    -0.6741020    -0.0001810
  N        0.9473650     0.6741170    -0.0001350
  C       -1.0701170    -0.0000090     0.0001780
  H       -2.1552564    -0.0000222     0.1503550
units angstrom
no_reorient  #important for SAPT in psi4, default
symmetry c1  #important for SAPT in psi4, default
}

set PROPERTIES_ORIGIN ["COM"]
properties('MP2/aug-cc-pvtz', properties = ['dipole'])
--------------------------------------------------------------------------

    Molecular point group: c1
  Charge       = -1
  Multiplicity = 1
  Basis Set: AUG-CC-PVTZ
    Blend: AUG-CC-PVTZ
  Basis Set: (AUG-CC-PVTZ AUX)
    Blend: AUG-CC-PVTZ-JKFIT

    Orbital Energies [Eh]
    ---------------------

    Doubly Occupied:

       1A    -15.423379     2A    -15.422543     3A    -15.390431
       4A    -15.390395     5A    -11.089174     6A     -1.218682
       7A     -0.991640     8A     -0.917623     9A     -0.628424
      10A     -0.620249    11A     -0.482239    12A     -0.414191
      13A     -0.355793    14A     -0.264648    15A     -0.250891
      16A     -0.246544    17A     -0.197784    18A     -0.170809

  @DF-RHF Final Energy:  -256.29025615322706

   => Energetics <=

    Nuclear Repulsion Energy =            154.9180805004923229
    One-Electron Energy =                -663.4657936812392336
    Two-Electron Energy =                 252.2574570275197914
    Total Energy =                       -256.2902561532271193
  Basis Set: (AUG-CC-PVTZ AUX)
    Blend: AUG-CC-PVTZ-RI
    Molecular point group: c1

    Geometry (in Angstrom), charge = -1, multiplicity = 1:

       Center              X                  Y                   Z               Mass
    ------------   -----------------  -----------------  -----------------  -----------------
         N           -0.365826539568    -1.127460139916    -0.002152433892    14.003074004430
         N           -0.365847539568     1.127454860084    -0.002104433892    14.003074004430
         N            0.916337460432    -0.674102139916    -0.002366433892    14.003074004430
         N            0.916327460432     0.674116860084    -0.002320433892    14.003074004430
         C           -1.101154539568    -0.000009139916    -0.002007433892    12.000000000000
         H           -2.186293939568    -0.000022339916     0.148169566108     1.007825032230

  Basis Set: AUG-CC-PVTZ
    Blend: AUG-CC-PVTZ
  Basis Set: (AUG-CC-PVTZ AUX)
    Blend: AUG-CC-PVTZ-JKFIT
	 Reference Energy          =    -256.2902561532270624 [Eh]
	 Singles Energy            =      -0.0000000000000000 [Eh]
	 Same-Spin Energy          =      -0.2863889435140791 [Eh]
	 Opposite-Spin Energy      =      -0.7991740145764826 [Eh]
	 Correlation Energy        =      -1.0855629580905617 [Eh]
	 Total Energy              =    -257.3758191113176395 [Eh]

	 ================> DF-SCS-MP2 Energies <==================
	-----------------------------------------------------------
	 SCS Same-Spin Scale       =       0.3333333333333333 [-]
	 SCS Opposite-Spin Scale   =       1.2000000000000000 [-]
	 SCS Same-Spin Energy      =      -0.0954629811713597 [Eh]
	 SCS Opposite-Spin Energy  =      -0.9590088174917791 [Eh]
	 SCS Correlation Energy    =      -1.0544717986631389 [Eh]
	 SCS Total Energy          =    -257.3447279518902064 [Eh]
	-----------------------------------------------------------

  Dipole Moment: [D]
     X:    -2.3035      Y:    -0.0000      Z:     0.1267     Total:     2.3070

*** Psi4 exiting successfully. Buy a developer a beer!
