                               Psi4 1.3.2 release

  ==> Input File <==

--------------------------------------------------------------------------
#psi4
#
memory 32 gb

molecule  {
-1 1
  N       -0.3347890    -1.1274600     0.0000330
  N       -0.3348100     1.1274550     0.0000810
  N        0.9473750    -0.6741020    -0.0001810
  N        0.9473650     0.6741170    -0.0001350
  C       -1.0701170    -0.0000090     0.0001780
  H       -2.1552401    -0.0000243     0.2503550
units angstrom
no_reorient  #important for SAPT in psi4, default
symmetry c1  #important for SAPT in psi4, default
}

set PROPERTIES_ORIGIN ["COM"]
properties('MP2/aug-cc-pvtz', properties = ['dipole'])
--------------------------------------------------------------------------

    Molecular point group: c1
  Charge       = -1
  Multiplicity = 1
  Basis Set: AUG-CC-PVTZ
    Blend: AUG-CC-PVTZ
  Basis Set: (AUG-CC-PVTZ AUX)
    Blend: AUG-CC-PVTZ-JKFIT

    Orbital Energies [Eh]
    ---------------------

    Doubly Occupied:

       1A    -15.423892     2A    -15.423057     3A    -15.390979
       4A    -15.390943     5A    -11.090898     6A     -1.219204
       7A     -0.992142     8A     -0.917634     9A     -0.628823
      10A     -0.617886    11A     -0.479893    12A     -0.414859
      13A     -0.353510    14A     -0.265107    15A     -0.251342
      16A     -0.246964    17A     -0.198116    18A     -0.170865

  @DF-RHF Final Energy:  -256.28763504812741

   => Energetics <=

    Nuclear Repulsion Energy =            154.8514694157306621
    One-Electron Energy =                -663.3259814299477739
    Two-Electron Energy =                 252.1868769660896987
    Total Energy =                       -256.2876350481274130
  Basis Set: (AUG-CC-PVTZ AUX)
    Blend: AUG-CC-PVTZ-RI
    Molecular point group: c1

    Geometry (in Angstrom), charge = -1, multiplicity = 1:

       Center              X                  Y                   Z               Mass
    ------------   -----------------  -----------------  -----------------  -----------------
         N           -0.365826777579    -1.127460109252    -0.003612624076    14.003074004430
         N           -0.365847777579     1.127454890748    -0.003564624076    14.003074004430
         N            0.916337222421    -0.674102109252    -0.003826624076    14.003074004430
         N            0.916327222421     0.674116890748    -0.003780624076    14.003074004430
         C           -1.101154777579    -0.000009109252    -0.003467624076    12.000000000000
         H           -2.186277877579    -0.000024409252     0.246709375924     1.007825032230

  Basis Set: AUG-CC-PVTZ
    Blend: AUG-CC-PVTZ
  Basis Set: (AUG-CC-PVTZ AUX)
    Blend: AUG-CC-PVTZ-JKFIT
	 Reference Energy          =    -256.2876350481274130 [Eh]
	 Singles Energy            =      -0.0000000000000000 [Eh]
	 Same-Spin Energy          =      -0.2865501154630089 [Eh]
	 Opposite-Spin Energy      =      -0.7995207594310452 [Eh]
	 Correlation Energy        =      -1.0860708748940540 [Eh]
	 Total Energy              =    -257.3737059230214754 [Eh]

	 ================> DF-SCS-MP2 Energies <==================
	-----------------------------------------------------------
	 SCS Same-Spin Scale       =       0.3333333333333333 [-]
	 SCS Opposite-Spin Scale   =       1.2000000000000000 [-]
	 SCS Same-Spin Energy      =      -0.0955167051543363 [Eh]
	 SCS Opposite-Spin Energy  =      -0.9594249113172542 [Eh]
	 SCS Correlation Energy    =      -1.0549416164715906 [Eh]
	 SCS Total Energy          =    -257.3425766645989938 [Eh]
	-----------------------------------------------------------

  Dipole Moment: [D]
     X:    -2.2550      Y:    -0.0000      Z:     0.2071     Total:     2.2645

*** Psi4 exiting successfully. Buy a developer a beer!
