                               Psi4 1.3.2 release

  ==> Input File <==

--------------------------------------------------------------------------
#psi4
#
memory 32 gb

molecule  {
-1 1
  N       -0.3347890    -1.1274600     0.0000330
  N       -0.3348100     1.1274550     0.0000810
  N        0.9473750    -0.6741020    -0.0001810
  N        0.9473650     0.6741170    -0.0001350
  C       -1.0701170    -0.0000090     0.0001780
  H       -2.1552646    -0.0000211     0.1003550
units angstrom
no_reorient  #important for SAPT in psi4, default
symmetry c1  #important for SAPT in psi4, default
}

set PROPERTIES_ORIGIN ["COM"]
properties('MP2/aug-cc-pvtz', properties = ['dipole'])
--------------------------------------------------------------------------

    Molecular point group: c1
  Charge       = -1
  Multiplicity = 1
  Basis Set: AUG-CC-PVTZ
    Blend: AUG-CC-PVTZ
  Basis Set: (AUG-CC-PVTZ AUX)
    Blend: AUG-CC-PVTZ-JKFIT

    Orbital Energies [Eh]
    ---------------------

    Doubly Occupied:

       1A    -15.423217     2A    -15.422381     3A    -15.390259
       4A    -15.390224     5A    -11.088628     6A     -1.218517
       7A     -0.991482     8A     -0.917625     9A     -0.628300
      10A     -0.621044    11A     -0.482988    12A     -0.413977
      13A     -0.356503    14A     -0.264504    15A     -0.250749
      16A     -0.246411    17A     -0.197680    18A     -0.170794

  @DF-RHF Final Energy:  -256.29101822233162

   => Energetics <=

    Nuclear Repulsion Energy =            154.9394277970590110
    One-Electron Energy =                -663.5103256988998055
    Two-Electron Energy =                 252.2798796795092073
    Total Energy =                       -256.2910182223315587
  Basis Set: (AUG-CC-PVTZ AUX)
    Blend: AUG-CC-PVTZ-RI
    Molecular point group: c1

    Geometry (in Angstrom), charge = -1, multiplicity = 1:

       Center              X                  Y                   Z               Mass
    ------------   -----------------  -----------------  -----------------  -----------------
         N           -0.365826419832    -1.127460155978    -0.001422338800    14.003074004430
         N           -0.365847419832     1.127454844022    -0.001374338800    14.003074004430
         N            0.916337580168    -0.674102155978    -0.001636338800    14.003074004430
         N            0.916327580168     0.674116844022    -0.001590338800    14.003074004430
         C           -1.101154419832    -0.000009155978    -0.001277338800    12.000000000000
         H           -2.186302019832    -0.000021255978     0.098899661200     1.007825032230

  Basis Set: AUG-CC-PVTZ
    Blend: AUG-CC-PVTZ
  Basis Set: (AUG-CC-PVTZ AUX)
    Blend: AUG-CC-PVTZ-JKFIT
	 Reference Energy          =    -256.2910182223316156 [Eh]
	 Singles Energy            =      -0.0000000000000000 [Eh]
	 Same-Spin Energy          =      -0.2863371376624795 [Eh]
	 Opposite-Spin Energy      =      -0.7990674054645892 [Eh]
	 Correlation Energy        =      -1.0854045431270687 [Eh]
	 Total Energy              =    -257.3764227654586989 [Eh]

	 ================> DF-SCS-MP2 Energies <==================
	-----------------------------------------------------------
	 SCS Same-Spin Scale       =       0.3333333333333333 [-]
	 SCS Opposite-Spin Scale   =       1.2000000000000000 [-]
	 SCS Same-Spin Energy      =      -0.0954457125541598 [Eh]
	 SCS Opposite-Spin Energy  =      -0.9588808865575070 [Eh]
	 SCS Correlation Energy    =      -1.0543265991116668 [Eh]
	 SCS Total Energy          =    -257.3453448214432910 [Eh]
	-----------------------------------------------------------

  Dipole Moment: [D]
     X:    -2.3189      Y:    -0.0000      Z:     0.0851     Total:     2.3205

*** Psi4 exiting successfully. Buy a developer a beer!
