                               Psi4 1.3.2 release

  ==> Input File <==

--------------------------------------------------------------------------
#psi4
#
memory 32 gb

molecule  {
-1 1
  N       -0.3347890    -1.1274600     0.0000330
  N       -0.3348100     1.1274550     0.0000810
  N        0.9473750    -0.6741020    -0.0001810
  N        0.9473650     0.6741170    -0.0001350
  C       -1.0701170    -0.0000090     0.0001780
  H       -2.1552319    -0.0000254     0.3003550
units angstrom
no_reorient  #important for SAPT in psi4, default
symmetry c1  #important for SAPT in psi4, default
}

set PROPERTIES_ORIGIN ["COM"]
properties('MP2/aug-cc-pvtz', properties = ['dipole'])
--------------------------------------------------------------------------

    Molecular point group: c1
  Charge       = -1
  Multiplicity = 1
  Basis Set: AUG-CC-PVTZ
    Blend: AUG-CC-PVTZ
  Basis Set: (AUG-CC-PVTZ AUX)
    Blend: AUG-CC-PVTZ-JKFIT

    Orbital Energies [Eh]
    ---------------------

    Doubly Occupied:

       1A    -15.424241     2A    -15.423406     3A    -15.391353
       4A    -15.391317     5A    -11.092062     6A     -1.219559
       7A     -0.992485     8A     -0.917656     9A     -0.629097
      10A     -0.616407    11A     -0.478327    12A     -0.415304
      13A     -0.351929    14A     -0.265421    15A     -0.251649
      16A     -0.247250    17A     -0.198345    18A     -0.170913

  @DF-RHF Final Energy:  -256.28569077237717

   => Energetics <=

    Nuclear Repulsion Energy =            154.8071035490791019
    One-Electron Energy =                -663.2321449386110999
    Two-Electron Energy =                 252.1393506171548040
    Total Energy =                       -256.2856907723771656
  Basis Set: (AUG-CC-PVTZ AUX)
    Blend: AUG-CC-PVTZ-RI
    Molecular point group: c1

    Geometry (in Angstrom), charge = -1, multiplicity = 1:

       Center              X                  Y                   Z               Mass
    ------------   -----------------  -----------------  -----------------  -----------------
         N           -0.365826897314    -1.127460093190    -0.004342719167    14.003074004430
         N           -0.365847897314     1.127454906810    -0.004294719167    14.003074004430
         N            0.916337102686    -0.674102093190    -0.004556719167    14.003074004430
         N            0.916327102686     0.674116906810    -0.004510719167    14.003074004430
         C           -1.101154897314    -0.000009093190    -0.004197719167    12.000000000000
         H           -2.186269797314    -0.000025493190     0.295979280833     1.007825032230

  Basis Set: AUG-CC-PVTZ
    Blend: AUG-CC-PVTZ
  Basis Set: (AUG-CC-PVTZ AUX)
    Blend: AUG-CC-PVTZ-JKFIT
	 Reference Energy          =    -256.2856907723771656 [Eh]
	 Singles Energy            =      -0.0000000000000000 [Eh]
	 Same-Spin Energy          =      -0.2866570755092181 [Eh]
	 Opposite-Spin Energy      =      -0.7997625108935624 [Eh]
	 Correlation Energy        =      -1.0864195864027806 [Eh]
	 Total Energy              =    -257.3721103587799348 [Eh]

	 ================> DF-SCS-MP2 Energies <==================
	-----------------------------------------------------------
	 SCS Same-Spin Scale       =       0.3333333333333333 [-]
	 SCS Opposite-Spin Scale   =       1.2000000000000000 [-]
	 SCS Same-Spin Energy      =      -0.0955523585030727 [Eh]
	 SCS Opposite-Spin Energy  =      -0.9597150130722749 [Eh]
	 SCS Correlation Energy    =      -1.0552673715753476 [Eh]
	 SCS Total Energy          =    -257.3409581439524914 [Eh]
	-----------------------------------------------------------

  Dipole Moment: [D]
     X:    -2.2223      Y:    -0.0000      Z:     0.2454     Total:     2.2358

*** Psi4 exiting successfully. Buy a developer a beer!
