                               Psi4 1.3.2 release

  ==> Input File <==

--------------------------------------------------------------------------
#psi4
#
memory 32 gb

molecule  {
0 1
  O        1.6287540    -0.6201880     1.1142450
  O       -2.7620560    -0.0348310     0.0798330
  O        2.1886480    -0.1218500    -1.0324370
  O       -0.8732870    -1.2159650    -0.3624810
  C        0.5918760     1.2475400     0.1132070
  C       -0.7452640     1.1476080     0.0762790
  C        1.5307310     0.0928540    -0.0315040
  C       -1.4205430    -0.1583360    -0.0935410
  H        1.0613430     2.2244020     0.1998120
  H       -1.3741190     2.0281690     0.1581920
  H        2.2467100    -1.3553630     0.9159410
  H       -3.1312110    -0.9325360    -0.0538740
units angstrom
no_reorient  #important for SAPT in psi4, default
symmetry c1  #important for SAPT in psi4, default
}

set PROPERTIES_ORIGIN ["COM"]
properties('MP2/aug-cc-pvtz', properties = ['dipole'])
--------------------------------------------------------------------------

    Molecular point group: c1
  Charge       = 0
  Multiplicity = 1
  Basis Set: AUG-CC-PVTZ
    Blend: AUG-CC-PVTZ
  Basis Set: (AUG-CC-PVTZ AUX)
    Blend: AUG-CC-PVTZ-JKFIT

    Orbital Energies [Eh]
    ---------------------

    Doubly Occupied:

       1A    -20.630516     2A    -20.623547     3A    -20.564334
       4A    -20.561301     5A    -11.409382     6A    -11.409253
       7A    -11.299112     8A    -11.280917     9A     -1.474939
      10A     -1.468510    11A     -1.371170    12A     -1.367259
      13A     -1.117216    14A     -0.959446    15A     -0.862646
      16A     -0.782532    17A     -0.734350    18A     -0.718781
      19A     -0.710300    20A     -0.667000    21A     -0.656726
      22A     -0.642306    23A     -0.611221    24A     -0.604586
      25A     -0.578676    26A     -0.506409    27A     -0.487068
      28A     -0.476375    29A     -0.466541    30A     -0.416558

  @DF-RHF Final Energy:  -453.43616168025085

   => Energetics <=

    Nuclear Repulsion Energy =            358.7070193019145563
    One-Electron Energy =               -1333.3684013777030941
    Two-Electron Energy =                 521.2252203955376899
    Total Energy =                       -453.4361616802508479
  Basis Set: (AUG-CC-PVTZ AUX)
    Blend: AUG-CC-PVTZ-RI
    Molecular point group: c1

    Geometry (in Angstrom), charge = 0, multiplicity = 1:

       Center              X                  Y                   Z               Mass
    ------------   -----------------  -----------------  -----------------  -----------------
         O            1.618522445638    -0.603472578608     1.124670812973    15.994914619570
         O           -2.772287554362    -0.018115578608     0.090258812973    15.994914619570
         O            2.178416445638    -0.105134578608    -1.022011187027    15.994914619570
         O           -0.883518554362    -1.199249578608    -0.352055187027    15.994914619570
         C            0.581644445638     1.264255421392     0.123632812973    12.000000000000
         C           -0.755495554362     1.164323421392     0.086704812973    12.000000000000
         C            1.520499445638     0.109569421392    -0.021078187027    12.000000000000
         C           -1.430774554362    -0.141620578608    -0.083115187027    12.000000000000
         H            1.051111445638     2.241117421392     0.210237812973     1.007825032230
         H           -1.384350554362     2.044884421392     0.168617812973     1.007825032230
         H            2.236478445638    -1.338647578608     0.926366812973     1.007825032230
         H           -3.141442554362    -0.915820578608    -0.043448187027     1.007825032230

  Basis Set: AUG-CC-PVTZ
    Blend: AUG-CC-PVTZ
  Basis Set: (AUG-CC-PVTZ AUX)
    Blend: AUG-CC-PVTZ-JKFIT
	 Reference Energy          =    -453.4361616802508479 [Eh]
	 Singles Energy            =      -0.0000000000000000 [Eh]
	 Same-Spin Energy          =      -0.4337871455342396 [Eh]
	 Opposite-Spin Energy      =      -1.2881564258248190 [Eh]
	 Correlation Energy        =      -1.7219435713590587 [Eh]
	 Total Energy              =    -455.1581052516099248 [Eh]

	 ================> DF-SCS-MP2 Energies <==================
	-----------------------------------------------------------
	 SCS Same-Spin Scale       =       0.3333333333333333 [-]
	 SCS Opposite-Spin Scale   =       1.2000000000000000 [-]
	 SCS Same-Spin Energy      =      -0.1445957151780798 [Eh]
	 SCS Opposite-Spin Energy  =      -1.5457877109897828 [Eh]
	 SCS Correlation Energy    =      -1.6903834261678627 [Eh]
	 SCS Total Energy          =    -455.1265451064186891 [Eh]
	-----------------------------------------------------------

  Dipole Moment: [D]
     X:    -1.3722      Y:     1.0703      Z:     1.5941     Total:     2.3600

*** Psi4 exiting successfully. Buy a developer a beer!
