                               Psi4 1.3.2 release

  ==> Input File <==

--------------------------------------------------------------------------
#psi4
#
memory 32 gb

molecule  {
0 1
  O        1.6287540    -0.6201880     1.1142450
  O       -2.7620560    -0.0348310     0.0798330
  O        2.1886480    -0.1218500    -1.0324370
  O       -0.8732870    -1.2159650    -0.3624810
  C        0.5918760     1.2475400     0.1132070
  C       -0.7341158     1.1288868     0.1738763
  C        1.5307310     0.0928540    -0.0315040
  C       -1.4205430    -0.1583360    -0.0935410
  H        1.0613430     2.2244020     0.1998120
  H       -1.3741190     2.0281690     0.1581920
  H        2.2467100    -1.3553630     0.9159410
  H       -3.1312110    -0.9325360    -0.0538740
units angstrom
no_reorient  #important for SAPT in psi4, default
symmetry c1  #important for SAPT in psi4, default
}

set PROPERTIES_ORIGIN ["COM"]
properties('MP2/aug-cc-pvtz', properties = ['dipole'])
--------------------------------------------------------------------------

    Molecular point group: c1
  Charge       = 0
  Multiplicity = 1
  Basis Set: AUG-CC-PVTZ
    Blend: AUG-CC-PVTZ
  Basis Set: (AUG-CC-PVTZ AUX)
    Blend: AUG-CC-PVTZ-JKFIT

    Orbital Energies [Eh]
    ---------------------

    Doubly Occupied:

       1A    -20.630714     2A    -20.623341     3A    -20.564789
       4A    -20.561087     5A    -11.409963     6A    -11.408773
       7A    -11.298155     8A    -11.281354     9A     -1.475089
      10A     -1.468385    11A     -1.371452    12A     -1.367100
      13A     -1.119065    14A     -0.958251    15A     -0.862624
      16A     -0.782446    17A     -0.732632    18A     -0.719325
      19A     -0.710184    20A     -0.665909    21A     -0.654939
      22A     -0.643190    23A     -0.610941    24A     -0.605086
      25A     -0.576573    26A     -0.506734    27A     -0.486759
      28A     -0.476233    29A     -0.465340    30A     -0.419136

  @DF-RHF Final Energy:  -453.43369390123843

   => Energetics <=

    Nuclear Repulsion Energy =            358.8440790063673944
    One-Electron Energy =               -1333.6444025128434987
    Two-Electron Energy =                 521.3666296052376765
    Total Energy =                       -453.4336939012384846
  Basis Set: (AUG-CC-PVTZ AUX)
    Blend: AUG-CC-PVTZ-RI
    Molecular point group: c1

    Geometry (in Angstrom), charge = 0, multiplicity = 1:

       Center              X                  Y                   Z               Mass
    ------------   -----------------  -----------------  -----------------  -----------------
         O            1.617369292508    -0.601536085687     1.114575494272    15.994914619570
         O           -2.773440707492    -0.016179085687     0.080163494272    15.994914619570
         O            2.177263292508    -0.103198085687    -1.032106505728    15.994914619570
         O           -0.884671707492    -1.197313085687    -0.362150505728    15.994914619570
         C            0.580491292508     1.266191914313     0.113537494272    12.000000000000
         C           -0.745500507492     1.147538714313     0.174206794272    12.000000000000
         C            1.519346292508     0.111505914313    -0.031173505728    12.000000000000
         C           -1.431927707492    -0.139684085687    -0.093210505728    12.000000000000
         H            1.049958292508     2.243053914313     0.200142494272     1.007825032230
         H           -1.385503707492     2.046820914313     0.158522494272     1.007825032230
         H            2.235325292508    -1.336711085687     0.916271494272     1.007825032230
         H           -3.142595707492    -0.913884085687    -0.053543505728     1.007825032230

  Basis Set: AUG-CC-PVTZ
    Blend: AUG-CC-PVTZ
  Basis Set: (AUG-CC-PVTZ AUX)
    Blend: AUG-CC-PVTZ-JKFIT
	 Reference Energy          =    -453.4336939012384278 [Eh]
	 Singles Energy            =      -0.0000000000000000 [Eh]
	 Same-Spin Energy          =      -0.4338015754269984 [Eh]
	 Opposite-Spin Energy      =      -1.2881632268959819 [Eh]
	 Correlation Energy        =      -1.7219648023229803 [Eh]
	 Total Energy              =    -455.1556587035614143 [Eh]

	 ================> DF-SCS-MP2 Energies <==================
	-----------------------------------------------------------
	 SCS Same-Spin Scale       =       0.3333333333333333 [-]
	 SCS Opposite-Spin Scale   =       1.2000000000000000 [-]
	 SCS Same-Spin Energy      =      -0.1446005251423328 [Eh]
	 SCS Opposite-Spin Energy  =      -1.5457958722751783 [Eh]
	 SCS Correlation Energy    =      -1.6903963974175111 [Eh]
	 SCS Total Energy          =    -455.1240902986559149 [Eh]
	-----------------------------------------------------------

  Dipole Moment: [D]
     X:    -1.3741      Y:     1.0598      Z:     1.5503     Total:     2.3270

*** Psi4 exiting successfully. Buy a developer a beer!
