                               Psi4 1.3.2 release

  ==> Input File <==

--------------------------------------------------------------------------
#psi4
#
memory 32 gb

molecule  {
0 1
  O        1.6287540    -0.6201880     1.1142450
  O       -2.7620560    -0.0348310     0.0798330
  O        2.1886480    -0.1218500    -1.0324370
  O       -0.8732870    -1.2159650    -0.3624810
  C        0.6658377     1.3062432     0.1461251
  C       -0.7452640     1.1476080     0.0762790
  C        1.5307310     0.0928540    -0.0315040
  C       -1.4205430    -0.1583360    -0.0935410
  H        1.0613430     2.2244020     0.1998120
  H       -1.3741190     2.0281690     0.1581920
  H        2.2467100    -1.3553630     0.9159410
  H       -3.1312110    -0.9325360    -0.0538740
units angstrom
no_reorient  #important for SAPT in psi4, default
symmetry c1  #important for SAPT in psi4, default
}

set PROPERTIES_ORIGIN ["COM"]
properties('MP2/aug-cc-pvtz', properties = ['dipole'])
--------------------------------------------------------------------------

    Molecular point group: c1
  Charge       = 0
  Multiplicity = 1
  Basis Set: AUG-CC-PVTZ
    Blend: AUG-CC-PVTZ
  Basis Set: (AUG-CC-PVTZ AUX)
    Blend: AUG-CC-PVTZ-JKFIT

    Orbital Energies [Eh]
    ---------------------

    Doubly Occupied:

       1A    -20.630958     2A    -20.623708     3A    -20.564687
       4A    -20.561781     5A    -11.411013     6A    -11.410590
       7A    -11.305460     8A    -11.291676     9A     -1.475172
      10A     -1.468796    11A     -1.371356    12A     -1.367601
      13A     -1.102703    14A     -0.964350    15A     -0.858225
      16A     -0.792802    17A     -0.733889    18A     -0.717026
      19A     -0.710517    20A     -0.671104    21A     -0.659104
      22A     -0.641700    23A     -0.613752    24A     -0.602284
      25A     -0.583369    26A     -0.505608    27A     -0.486932
      28A     -0.475394    29A     -0.468488    30A     -0.400185

  @DF-RHF Final Energy:  -453.41865779594161

   => Energetics <=

    Nuclear Repulsion Energy =            357.3040299542904563
    One-Electron Energy =               -1330.5049114931766781
    Two-Electron Energy =                 519.7822237429446659
    Total Energy =                       -453.4186577959416127
  Basis Set: (AUG-CC-PVTZ AUX)
    Blend: AUG-CC-PVTZ-RI
    Molecular point group: c1

    Geometry (in Angstrom), charge = 0, multiplicity = 1:

       Center              X                  Y                   Z               Mass
    ------------   -----------------  -----------------  -----------------  -----------------
         O            1.610871958040    -0.609544749793     1.121265813957    15.994914619570
         O           -2.779938041960    -0.024187749793     0.086853813957    15.994914619570
         O            2.170765958040    -0.111206749793    -1.025416186043    15.994914619570
         O           -0.891169041960    -1.205321749793    -0.355460186043    15.994914619570
         C            0.647955658040     1.316886450207     0.153145913957    12.000000000000
         C           -0.763146041960     1.158251250207     0.083299813957    12.000000000000
         C            1.512848958040     0.103497250207    -0.024483186043    12.000000000000
         C           -1.438425041960    -0.147692749793    -0.086520186043    12.000000000000
         H            1.043460958040     2.235045250207     0.206832813957     1.007825032230
         H           -1.392001041960     2.038812250207     0.165212813957     1.007825032230
         H            2.228827958040    -1.344719749793     0.922961813957     1.007825032230
         H           -3.149093041960    -0.921892749793    -0.046853186043     1.007825032230

  Basis Set: AUG-CC-PVTZ
    Blend: AUG-CC-PVTZ
  Basis Set: (AUG-CC-PVTZ AUX)
    Blend: AUG-CC-PVTZ-JKFIT
	 Reference Energy          =    -453.4186577959416127 [Eh]
	 Singles Energy            =      -0.0000000000000000 [Eh]
	 Same-Spin Energy          =      -0.4347917107384222 [Eh]
	 Opposite-Spin Energy      =      -1.2911635079327808 [Eh]
	 Correlation Energy        =      -1.7259552186712028 [Eh]
	 Total Energy              =    -455.1446130146127871 [Eh]

	 ================> DF-SCS-MP2 Energies <==================
	-----------------------------------------------------------
	 SCS Same-Spin Scale       =       0.3333333333333333 [-]
	 SCS Opposite-Spin Scale   =       1.2000000000000000 [-]
	 SCS Same-Spin Energy      =      -0.1449305702461407 [Eh]
	 SCS Opposite-Spin Energy  =      -1.5493962095193370 [Eh]
	 SCS Correlation Energy    =      -1.6943267797654777 [Eh]
	 SCS Total Energy          =    -455.1129845757071166 [Eh]
	-----------------------------------------------------------

  Dipole Moment: [D]
     X:    -1.3524      Y:     1.0787      Z:     1.5777     Total:     2.3412

*** Psi4 exiting successfully. Buy a developer a beer!
