                               Psi4 1.3.2 release

  ==> Input File <==

--------------------------------------------------------------------------
#psi4
#
memory 32 gb

molecule  {
0 1
  O        1.6287540    -0.6201880     1.1142450
  O       -2.7620560    -0.0348310     0.0798330
  O        2.1886480    -0.1218500    -1.0324370
  O       -0.8732870    -1.2159650    -0.3624810
  C        0.7028186     1.3355948     0.1625842
  C       -0.7452640     1.1476080     0.0762790
  C        1.5307310     0.0928540    -0.0315040
  C       -1.4205430    -0.1583360    -0.0935410
  H        1.0613430     2.2244020     0.1998120
  H       -1.3741190     2.0281690     0.1581920
  H        2.2467100    -1.3553630     0.9159410
  H       -3.1312110    -0.9325360    -0.0538740
units angstrom
no_reorient  #important for SAPT in psi4, default
symmetry c1  #important for SAPT in psi4, default
}

set PROPERTIES_ORIGIN ["COM"]
properties('MP2/aug-cc-pvtz', properties = ['dipole'])
--------------------------------------------------------------------------

    Molecular point group: c1
  Charge       = 0
  Multiplicity = 1
  Basis Set: AUG-CC-PVTZ
    Blend: AUG-CC-PVTZ
  Basis Set: (AUG-CC-PVTZ AUX)
    Blend: AUG-CC-PVTZ-JKFIT

    Orbital Energies [Eh]
    ---------------------

    Doubly Occupied:

       1A    -20.631216     2A    -20.623920     3A    -20.564946
       4A    -20.562124     5A    -11.411970     6A    -11.411868
       7A    -11.308682     8A    -11.296834     9A     -1.475361
      10A     -1.469023    11A     -1.371541    12A     -1.367882
      13A     -1.096746    14A     -0.966878    15A     -0.857869
      16A     -0.798041    17A     -0.734020    18A     -0.716457
      19A     -0.710729    20A     -0.677313    21A     -0.656520
      22A     -0.641420    23A     -0.615579    24A     -0.602595
      25A     -0.580273    26A     -0.505433    27A     -0.486983
      28A     -0.474976    29A     -0.469032    30A     -0.392521

  @DF-RHF Final Energy:  -453.39951515672885

   => Energetics <=

    Nuclear Repulsion Energy =            356.6220344108766653
    One-Electron Energy =               -1329.0855909143240297
    Two-Electron Energy =                 519.0640413467184544
    Total Energy =                       -453.3995151567288531
  Basis Set: (AUG-CC-PVTZ AUX)
    Blend: AUG-CC-PVTZ-RI
    Molecular point group: c1

    Geometry (in Angstrom), charge = 0, multiplicity = 1:

       Center              X                  Y                   Z               Mass
    ------------   -----------------  -----------------  -----------------  -----------------
         O            1.607046709070    -0.612580835385     1.119563309276    15.994914619570
         O           -2.783763290930    -0.027223835385     0.085151309276    15.994914619570
         O            2.166940709070    -0.114242835385    -1.027118690724    15.994914619570
         O           -0.894994290930    -1.208357835385    -0.357162690724    15.994914619570
         C            0.681111309070     1.343201964615     0.167902509276    12.000000000000
         C           -0.766971290930     1.155215164615     0.081597309276    12.000000000000
         C            1.509023709070     0.100461164615    -0.026185690724    12.000000000000
         C           -1.442250290930    -0.150728835385    -0.088222690724    12.000000000000
         H            1.039635709070     2.232009164615     0.205130309276     1.007825032230
         H           -1.395826290930     2.035776164615     0.163510309276     1.007825032230
         H            2.225002709070    -1.347755835385     0.921259309276     1.007825032230
         H           -3.152918290930    -0.924928835385    -0.048555690724     1.007825032230

  Basis Set: AUG-CC-PVTZ
    Blend: AUG-CC-PVTZ
  Basis Set: (AUG-CC-PVTZ AUX)
    Blend: AUG-CC-PVTZ-JKFIT
	 Reference Energy          =    -453.3995151567288531 [Eh]
	 Singles Energy            =      -0.0000000000000000 [Eh]
	 Same-Spin Energy          =      -0.4355203688481718 [Eh]
	 Opposite-Spin Energy      =      -1.2932929799195314 [Eh]
	 Correlation Energy        =      -1.7288133487677033 [Eh]
	 Total Energy              =    -455.1283285054965404 [Eh]

	 ================> DF-SCS-MP2 Energies <==================
	-----------------------------------------------------------
	 SCS Same-Spin Scale       =       0.3333333333333333 [-]
	 SCS Opposite-Spin Scale   =       1.2000000000000000 [-]
	 SCS Same-Spin Energy      =      -0.1451734562827239 [Eh]
	 SCS Opposite-Spin Energy  =      -1.5519515759034377 [Eh]
	 SCS Correlation Energy    =      -1.6971250321861615 [Eh]
	 SCS Total Energy          =    -455.0966401889149893 [Eh]
	-----------------------------------------------------------

  Dipole Moment: [D]
     X:    -1.3516      Y:     1.0711      Z:     1.5655     Total:     2.3291

*** Psi4 exiting successfully. Buy a developer a beer!
