                               Psi4 1.3.2 release

  ==> Input File <==

--------------------------------------------------------------------------
#psi4
#
memory 32 gb

molecule  {
0 1
  O        1.6287540    -0.6201880     1.1142450
  O       -2.7620560    -0.0348310     0.0798330
  O        2.1886480    -0.1218500    -1.0324370
  O       -0.8732870    -1.2159650    -0.3624810
  C        0.5918760     1.2475400     0.1132070
  C       -0.7229676     1.1101655     0.2714736
  C        1.5307310     0.0928540    -0.0315040
  C       -1.4205430    -0.1583360    -0.0935410
  H        1.0613430     2.2244020     0.1998120
  H       -1.3741190     2.0281690     0.1581920
  H        2.2467100    -1.3553630     0.9159410
  H       -3.1312110    -0.9325360    -0.0538740
units angstrom
no_reorient  #important for SAPT in psi4, default
symmetry c1  #important for SAPT in psi4, default
}

set PROPERTIES_ORIGIN ["COM"]
properties('MP2/aug-cc-pvtz', properties = ['dipole'])
--------------------------------------------------------------------------

    Molecular point group: c1
  Charge       = 0
  Multiplicity = 1
  Basis Set: AUG-CC-PVTZ
    Blend: AUG-CC-PVTZ
  Basis Set: (AUG-CC-PVTZ AUX)
    Blend: AUG-CC-PVTZ-JKFIT

    Orbital Energies [Eh]
    ---------------------

    Doubly Occupied:

       1A    -20.630614     2A    -20.623585     3A    -20.565015
       4A    -20.561383     5A    -11.410911     6A    -11.408822
       7A    -11.299824     8A    -11.283585     9A     -1.474977
      10A     -1.468628    11A     -1.371478    12A     -1.367419
      13A     -1.119487    14A     -0.956109    15A     -0.861641
      16A     -0.782707    17A     -0.729931    18A     -0.719485
      19A     -0.710487    20A     -0.664053    21A     -0.651772
      22A     -0.643873    23A     -0.610343    24A     -0.604359
      25A     -0.573339    26A     -0.506926    27A     -0.486738
      28A     -0.475911    29A     -0.463519    30A     -0.420848

  @DF-RHF Final Energy:  -453.42502669789599

   => Energetics <=

    Nuclear Repulsion Energy =            358.7618412533696528
    One-Electron Energy =               -1333.4781960947191237
    Two-Electron Energy =                 521.2913281434534838
    Total Energy =                       -453.4250266978959871
  Basis Set: (AUG-CC-PVTZ AUX)
    Blend: AUG-CC-PVTZ-RI
    Molecular point group: c1

    Geometry (in Angstrom), charge = 0, multiplicity = 1:

       Center              X                  Y                   Z               Mass
    ------------   -----------------  -----------------  -----------------  -----------------
         O            1.616216139378    -0.599599582424     1.104480175570    15.994914619570
         O           -2.774593860622    -0.014242582424     0.070068175570    15.994914619570
         O            2.176110139378    -0.101261582424    -1.042201824430    15.994914619570
         O           -0.885824860622    -1.195376582424    -0.372245824430    15.994914619570
         C            0.579338139378     1.268128417576     0.103442175570    12.000000000000
         C           -0.735505460622     1.130753917576     0.261708775570    12.000000000000
         C            1.518193139378     0.113442417576    -0.041268824430    12.000000000000
         C           -1.433080860622    -0.137747582424    -0.103305824430    12.000000000000
         H            1.048805139378     2.244990417576     0.190047175570     1.007825032230
         H           -1.386656860622     2.048757417576     0.148427175570     1.007825032230
         H            2.234172139378    -1.334774582424     0.906176175570     1.007825032230
         H           -3.143748860622    -0.911947582424    -0.063638824430     1.007825032230

  Basis Set: AUG-CC-PVTZ
    Blend: AUG-CC-PVTZ
  Basis Set: (AUG-CC-PVTZ AUX)
    Blend: AUG-CC-PVTZ-JKFIT
	 Reference Energy          =    -453.4250266978959871 [Eh]
	 Singles Energy            =      -0.0000000000000000 [Eh]
	 Same-Spin Energy          =      -0.4341090891330928 [Eh]
	 Opposite-Spin Energy      =      -1.2890659297011404 [Eh]
	 Correlation Energy        =      -1.7231750188342332 [Eh]
	 Total Energy              =    -455.1482017167302274 [Eh]

	 ================> DF-SCS-MP2 Energies <==================
	-----------------------------------------------------------
	 SCS Same-Spin Scale       =       0.3333333333333333 [-]
	 SCS Opposite-Spin Scale   =       1.2000000000000000 [-]
	 SCS Same-Spin Energy      =      -0.1447030297110309 [Eh]
	 SCS Opposite-Spin Energy  =      -1.5468791156413684 [Eh]
	 SCS Correlation Energy    =      -1.6915821453523994 [Eh]
	 SCS Total Energy          =    -455.1166088432484003 [Eh]
	-----------------------------------------------------------

  Dipole Moment: [D]
     X:    -1.3477      Y:     1.0357      Z:     1.5037     Total:     2.2693

*** Psi4 exiting successfully. Buy a developer a beer!
