                               Psi4 1.3.2 release

  ==> Input File <==

--------------------------------------------------------------------------
#psi4
#
memory 32 gb

molecule  {
0 1
  O        1.6287540    -0.6201880     1.1142450
  O       -2.7620560    -0.0348310     0.0798330
  O        2.1886480    -0.1218500    -1.0324370
  O       -0.8732870    -1.2159650    -0.3624810
  C        0.5918760     1.2475400     0.1132070
  C       -0.7285417     1.1195261     0.2226750
  C        1.5307310     0.0928540    -0.0315040
  C       -1.4205430    -0.1583360    -0.0935410
  H        1.0613430     2.2244020     0.1998120
  H       -1.3741190     2.0281690     0.1581920
  H        2.2467100    -1.3553630     0.9159410
  H       -3.1312110    -0.9325360    -0.0538740
units angstrom
no_reorient  #important for SAPT in psi4, default
symmetry c1  #important for SAPT in psi4, default
}

set PROPERTIES_ORIGIN ["COM"]
properties('MP2/aug-cc-pvtz', properties = ['dipole'])
--------------------------------------------------------------------------

    Molecular point group: c1
  Charge       = 0
  Multiplicity = 1
  Basis Set: AUG-CC-PVTZ
    Blend: AUG-CC-PVTZ
  Basis Set: (AUG-CC-PVTZ AUX)
    Blend: AUG-CC-PVTZ-JKFIT

    Orbital Energies [Eh]
    ---------------------

    Doubly Occupied:

       1A    -20.630698     2A    -20.623407     3A    -20.564926
       4A    -20.561172     5A    -11.410390     6A    -11.408732
       7A    -11.298664     8A    -11.282248     9A     -1.475062
      10A     -1.468462    11A     -1.371493    12A     -1.367201
      13A     -1.119456    14A     -0.957297    15A     -0.862248
      16A     -0.782531    17A     -0.731359    18A     -0.719452
      19A     -0.710286    20A     -0.664995    21A     -0.653578
      22A     -0.643557    23A     -0.610675    24A     -0.604869
      25A     -0.575121    26A     -0.506842    27A     -0.486712
      28A     -0.476095    29A     -0.464514    30A     -0.420103

  @DF-RHF Final Energy:  -453.43014284129401

   => Energetics <=

    Nuclear Repulsion Energy =            358.8301049206873472
    One-Electron Energy =               -1333.6162081677659899
    Two-Electron Energy =                 521.3559604057846855
    Total Energy =                       -453.4301428412940140
  Basis Set: (AUG-CC-PVTZ AUX)
    Blend: AUG-CC-PVTZ-RI
    Molecular point group: c1

    Geometry (in Angstrom), charge = 0, multiplicity = 1:

       Center              X                  Y                   Z               Mass
    ------------   -----------------  -----------------  -----------------  -----------------
         O            1.616792715943    -0.600567828884     1.109527829749    15.994914619570
         O           -2.774017284057    -0.015210828884     0.075115829749    15.994914619570
         O            2.176686715943    -0.102229828884    -1.037154170251    15.994914619570
         O           -0.885248284057    -1.196344828884    -0.367198170251    15.994914619570
         C            0.579914715943     1.267160171116     0.108489829749    12.000000000000
         C           -0.740502984057     1.139146271116     0.217957829749    12.000000000000
         C            1.518769715943     0.112474171116    -0.036221170251    12.000000000000
         C           -1.432504284057    -0.138715828884    -0.098258170251    12.000000000000
         H            1.049381715943     2.244022171116     0.195094829749     1.007825032230
         H           -1.386080284057     2.047789171116     0.153474829749     1.007825032230
         H            2.234748715943    -1.335742828884     0.911223829749     1.007825032230
         H           -3.143172284057    -0.912915828884    -0.058591170251     1.007825032230

  Basis Set: AUG-CC-PVTZ
    Blend: AUG-CC-PVTZ
  Basis Set: (AUG-CC-PVTZ AUX)
    Blend: AUG-CC-PVTZ-JKFIT
	 Reference Energy          =    -453.4301428412940140 [Eh]
	 Singles Energy            =      -0.0000000000000000 [Eh]
	 Same-Spin Energy          =      -0.4339182919816499 [Eh]
	 Opposite-Spin Energy      =      -1.2884971422776443 [Eh]
	 Correlation Energy        =      -1.7224154342592941 [Eh]
	 Total Energy              =    -455.1525582755533037 [Eh]

	 ================> DF-SCS-MP2 Energies <==================
	-----------------------------------------------------------
	 SCS Same-Spin Scale       =       0.3333333333333333 [-]
	 SCS Opposite-Spin Scale   =       1.2000000000000000 [-]
	 SCS Same-Spin Energy      =      -0.1446394306605500 [Eh]
	 SCS Opposite-Spin Energy  =      -1.5461965707331731 [Eh]
	 SCS Correlation Energy    =      -1.6908360013937229 [Eh]
	 SCS Total Energy          =    -455.1209788426877481 [Eh]
	-----------------------------------------------------------

  Dipole Moment: [D]
     X:    -1.3642      Y:     1.0495      Z:     1.5275     Total:     2.3012

*** Psi4 exiting successfully. Buy a developer a beer!
