                               Psi4 1.3.2 release

  ==> Input File <==

--------------------------------------------------------------------------
#psi4
#
memory 32 gb

molecule  {
0 1
  O        1.6287540    -0.6201880     1.1142450
  O       -2.7620560    -0.0348310     0.0798330
  O        2.1886480    -0.1218500    -1.0324370
  O       -0.8732870    -1.2159650    -0.3624810
  C        0.6288569     1.2768916     0.1296661
  C       -0.7452640     1.1476080     0.0762790
  C        1.5307310     0.0928540    -0.0315040
  C       -1.4205430    -0.1583360    -0.0935410
  H        1.0613430     2.2244020     0.1998120
  H       -1.3741190     2.0281690     0.1581920
  H        2.2467100    -1.3553630     0.9159410
  H       -3.1312110    -0.9325360    -0.0538740
units angstrom
no_reorient  #important for SAPT in psi4, default
symmetry c1  #important for SAPT in psi4, default
}

set PROPERTIES_ORIGIN ["COM"]
properties('MP2/aug-cc-pvtz', properties = ['dipole'])
--------------------------------------------------------------------------

    Molecular point group: c1
  Charge       = 0
  Multiplicity = 1
  Basis Set: AUG-CC-PVTZ
    Blend: AUG-CC-PVTZ
  Basis Set: (AUG-CC-PVTZ AUX)
    Blend: AUG-CC-PVTZ-JKFIT

    Orbital Energies [Eh]
    ---------------------

    Doubly Occupied:

       1A    -20.630722     2A    -20.623584     3A    -20.564481
       4A    -20.561507     5A    -11.410177     6A    -11.409684
       7A    -11.302263     8A    -11.286355     9A     -1.475028
      10A     -1.468625    11A     -1.371228    12A     -1.367393
      13A     -1.109530    14A     -0.961897    15A     -0.859978
      16A     -0.787496    17A     -0.733988    18A     -0.717815
      19A     -0.710373    20A     -0.665987    21A     -0.660681
      22A     -0.641986    23A     -0.612184    24A     -0.602914
      25A     -0.583061    26A     -0.505922    27A     -0.486959
      28A     -0.475870    29A     -0.467654    30A     -0.408212

  @DF-RHF Final Energy:  -453.43082010289640

   => Energetics <=

    Nuclear Repulsion Energy =            357.9990603395962125
    One-Electron Energy =               -1331.9326595830182214
    Two-Electron Energy =                 520.5027791405256039
    Total Energy =                       -453.4308201028964049
  Basis Set: (AUG-CC-PVTZ AUX)
    Blend: AUG-CC-PVTZ-RI
    Molecular point group: c1

    Geometry (in Angstrom), charge = 0, multiplicity = 1:

       Center              X                  Y                   Z               Mass
    ------------   -----------------  -----------------  -----------------  -----------------
         O            1.614697196667    -0.606508664200     1.122968308293    15.994914619570
         O           -2.776112803333    -0.021151664200     0.088556308293    15.994914619570
         O            2.174591196667    -0.108170664200    -1.023713691707    15.994914619570
         O           -0.887343803333    -1.202285664200    -0.353757691707    15.994914619570
         C            0.614800096667     1.290570935800     0.138389408293    12.000000000000
         C           -0.759320803333     1.161287335800     0.085002308293    12.000000000000
         C            1.516674196667     0.106533335800    -0.022780691707    12.000000000000
         C           -1.434599803333    -0.144656664200    -0.084817691707    12.000000000000
         H            1.047286196667     2.238081335800     0.208535308293     1.007825032230
         H           -1.388175803333     2.041848335800     0.166915308293     1.007825032230
         H            2.232653196667    -1.341683664200     0.924664308293     1.007825032230
         H           -3.145267803333    -0.918856664200    -0.045150691707     1.007825032230

  Basis Set: AUG-CC-PVTZ
    Blend: AUG-CC-PVTZ
  Basis Set: (AUG-CC-PVTZ AUX)
    Blend: AUG-CC-PVTZ-JKFIT
	 Reference Energy          =    -453.4308201028964049 [Eh]
	 Singles Energy            =      -0.0000000000000000 [Eh]
	 Same-Spin Energy          =      -0.4342148551925245 [Eh]
	 Opposite-Spin Energy      =      -1.2894550027993916 [Eh]
	 Correlation Energy        =      -1.7236698579919161 [Eh]
	 Total Energy              =    -455.1544899608883270 [Eh]

	 ================> DF-SCS-MP2 Energies <==================
	-----------------------------------------------------------
	 SCS Same-Spin Scale       =       0.3333333333333333 [-]
	 SCS Opposite-Spin Scale   =       1.2000000000000000 [-]
	 SCS Same-Spin Energy      =      -0.1447382850641748 [Eh]
	 SCS Opposite-Spin Energy  =      -1.5473460033592699 [Eh]
	 SCS Correlation Energy    =      -1.6920842884234446 [Eh]
	 SCS Total Energy          =    -455.1229043913198211 [Eh]
	-----------------------------------------------------------

  Dipole Moment: [D]
     X:    -1.3592      Y:     1.0785      Z:     1.5871     Total:     2.3515

*** Psi4 exiting successfully. Buy a developer a beer!
