                               Psi4 1.3.2 release

  ==> Input File <==

--------------------------------------------------------------------------
#psi4
#
memory 32 gb

molecule  {
0 1
  O        1.6287540    -0.6201880     1.1142450
  O       -2.7620560    -0.0348310     0.0798330
  O        2.1886480    -0.1218500    -1.0324370
  O       -0.8732870    -1.2159650    -0.3624810
  C        0.8137611     1.4236495     0.2119614
  C       -0.7452640     1.1476080     0.0762790
  C        1.5307310     0.0928540    -0.0315040
  C       -1.4205430    -0.1583360    -0.0935410
  H        1.0613430     2.2244020     0.1998120
  H       -1.3741190     2.0281690     0.1581920
  H        2.2467100    -1.3553630     0.9159410
  H       -3.1312110    -0.9325360    -0.0538740
units angstrom
no_reorient  #important for SAPT in psi4, default
symmetry c1  #important for SAPT in psi4, default
}

set PROPERTIES_ORIGIN ["COM"]
properties('MP2/aug-cc-pvtz', properties = ['dipole'])
--------------------------------------------------------------------------

    Molecular point group: c1
  Charge       = 0
  Multiplicity = 1
  Basis Set: AUG-CC-PVTZ
    Blend: AUG-CC-PVTZ
  Basis Set: (AUG-CC-PVTZ AUX)
    Blend: AUG-CC-PVTZ-JKFIT

    Orbital Energies [Eh]
    ---------------------

    Doubly Occupied:

       1A    -20.632104     2A    -20.625079     3A    -20.566066
       4A    -20.563626     5A    -11.418883     6A    -11.414417
       7A    -11.318609     8A    -11.311029     9A     -1.476169
      10A     -1.470036    11A     -1.372404    12A     -1.369183
      13A     -1.084412    14A     -0.975852    15A     -0.868374
      16A     -0.807742    17A     -0.735311    18A     -0.716499
      19A     -0.711717    20A     -0.690882    21A     -0.650882
      22A     -0.640593    23A     -0.619810    24A     -0.604141
      25A     -0.561877    26A     -0.505528    27A     -0.487559
      28A     -0.474860    29A     -0.468017    30A     -0.371808

  @DF-RHF Final Energy:  -453.29675230830486

   => Energetics <=

    Nuclear Repulsion Energy =            354.6561783077042946
    One-Electron Energy =               -1324.8789171231999262
    Two-Electron Energy =                 516.9259865071907143
    Total Energy =                       -453.2967523083049173
  Basis Set: (AUG-CC-PVTZ AUX)
    Blend: AUG-CC-PVTZ-RI
    Molecular point group: c1

    Geometry (in Angstrom), charge = 0, multiplicity = 1:

       Center              X                  Y                   Z               Mass
    ------------   -----------------  -----------------  -----------------  -----------------
         O            1.595570982845    -0.621689081819     1.114455805579    15.994914619570
         O           -2.795239017155    -0.036332081819     0.080043805579    15.994914619570
         O            2.155464982845    -0.123351081819    -1.032226194421    15.994914619570
         O           -0.906470017155    -1.217466081819    -0.362270194421    15.994914619570
         C            0.780578082845     1.422148418181     0.212172205579    12.000000000000
         C           -0.778447017155     1.146106918181     0.076489805579    12.000000000000
         C            1.497547982845     0.091352918181    -0.031293194421    12.000000000000
         C           -1.453726017155    -0.159837081819    -0.093330194421    12.000000000000
         H            1.028159982845     2.222900918181     0.200022805579     1.007825032230
         H           -1.407302017155     2.026667918181     0.158402805579     1.007825032230
         H            2.213526982845    -1.356864081819     0.916151805579     1.007825032230
         H           -3.164394017155    -0.934037081819    -0.053663194421     1.007825032230

  Basis Set: AUG-CC-PVTZ
    Blend: AUG-CC-PVTZ
  Basis Set: (AUG-CC-PVTZ AUX)
    Blend: AUG-CC-PVTZ-JKFIT
	 Reference Energy          =    -453.2967523083048604 [Eh]
	 Singles Energy            =      -0.0000000000000000 [Eh]
	 Same-Spin Energy          =      -0.4386598535983381 [Eh]
	 Opposite-Spin Energy      =      -1.3022031037675199 [Eh]
	 Correlation Energy        =      -1.7408629573658581 [Eh]
	 Total Energy              =    -455.0376152656706950 [Eh]

	 ================> DF-SCS-MP2 Energies <==================
	-----------------------------------------------------------
	 SCS Same-Spin Scale       =       0.3333333333333333 [-]
	 SCS Opposite-Spin Scale   =       1.2000000000000000 [-]
	 SCS Same-Spin Energy      =      -0.1462199511994460 [Eh]
	 SCS Opposite-Spin Energy  =      -1.5626437245210238 [Eh]
	 SCS Correlation Energy    =      -1.7088636757204698 [Eh]
	 SCS Total Energy          =    -455.0056159840253258 [Eh]
	-----------------------------------------------------------

  Dipole Moment: [D]
     X:    -1.3866      Y:     1.0016      Z:     1.5069     Total:     2.2796

*** Psi4 exiting successfully. Buy a developer a beer!
