                               Psi4 1.3.2 release

  ==> Input File <==

--------------------------------------------------------------------------
#psi4
#
memory 32 gb

molecule  {
0 1
  O        1.6287540    -0.6201880     1.1142450
  O       -2.7620560    -0.0348310     0.0798330
  O        2.1886480    -0.1218500    -1.0324370
  O       -0.8732870    -1.2159650    -0.3624810
  C        0.5918760     1.2475400     0.1132070
  C       -0.7396899     1.1382474     0.1250777
  C        1.5307310     0.0928540    -0.0315040
  C       -1.4205430    -0.1583360    -0.0935410
  H        1.0613430     2.2244020     0.1998120
  H       -1.3741190     2.0281690     0.1581920
  H        2.2467100    -1.3553630     0.9159410
  H       -3.1312110    -0.9325360    -0.0538740
units angstrom
no_reorient  #important for SAPT in psi4, default
symmetry c1  #important for SAPT in psi4, default
}

set PROPERTIES_ORIGIN ["COM"]
properties('MP2/aug-cc-pvtz', properties = ['dipole'])
--------------------------------------------------------------------------

    Molecular point group: c1
  Charge       = 0
  Multiplicity = 1
  Basis Set: AUG-CC-PVTZ
    Blend: AUG-CC-PVTZ
  Basis Set: (AUG-CC-PVTZ AUX)
    Blend: AUG-CC-PVTZ-JKFIT

    Orbital Energies [Eh]
    ---------------------

    Doubly Occupied:

       1A    -20.630655     2A    -20.623387     3A    -20.564594
       4A    -20.561130     5A    -11.409628     6A    -11.408947
       7A    -11.298305     8A    -11.280911     9A     -1.475050
      10A     -1.468401    11A     -1.371347    12A     -1.367119
      13A     -1.118317    14A     -0.958967    15A     -0.862759
      16A     -0.782448    17A     -0.733659    18A     -0.719101
      19A     -0.710188    20A     -0.666625    21A     -0.655952
      22A     -0.642773    23A     -0.611132    24A     -0.604995
      25A     -0.577744    26A     -0.506592    27A     -0.486877
      28A     -0.476324    29A     -0.466015    30A     -0.417950

  @DF-RHF Final Energy:  -453.43569493181730

   => Energetics <=

    Nuclear Repulsion Energy =            358.8031058620779845
    One-Electron Energy =               -1333.5618193221971524
    Two-Electron Energy =                 521.3230185283019864
    Total Energy =                       -453.4356949318172383
  Basis Set: (AUG-CC-PVTZ AUX)
    Blend: AUG-CC-PVTZ-RI
    Molecular point group: c1

    Geometry (in Angstrom), charge = 0, multiplicity = 1:

       Center              X                  Y                   Z               Mass
    ------------   -----------------  -----------------  -----------------  -----------------
         O            1.617945869073    -0.602504332148     1.119623148451    15.994914619570
         O           -2.772864130927    -0.017147332148     0.085211148451    15.994914619570
         O            2.177839869073    -0.104166332148    -1.027058851549    15.994914619570
         O           -0.884095130927    -1.198281332148    -0.357102851549    15.994914619570
         C            0.581067869073     1.265223667852     0.118585148451    12.000000000000
         C           -0.750498030927     1.155931067852     0.130455848451    12.000000000000
         C            1.519922869073     0.110537667852    -0.026125851549    12.000000000000
         C           -1.431351130927    -0.140652332148    -0.088162851549    12.000000000000
         H            1.050534869073     2.242085667852     0.205190148451     1.007825032230
         H           -1.384927130927     2.045852667852     0.163570148451     1.007825032230
         H            2.235901869073    -1.337679332148     0.921319148451     1.007825032230
         H           -3.142019130927    -0.914852332148    -0.048495851549     1.007825032230

  Basis Set: AUG-CC-PVTZ
    Blend: AUG-CC-PVTZ
  Basis Set: (AUG-CC-PVTZ AUX)
    Blend: AUG-CC-PVTZ-JKFIT
	 Reference Energy          =    -453.4356949318172951 [Eh]
	 Singles Energy            =      -0.0000000000000000 [Eh]
	 Same-Spin Energy          =      -0.4337583061624005 [Eh]
	 Opposite-Spin Energy      =      -1.2880580863146609 [Eh]
	 Correlation Energy        =      -1.7218163924770615 [Eh]
	 Total Energy              =    -455.1575113242943758 [Eh]

	 ================> DF-SCS-MP2 Energies <==================
	-----------------------------------------------------------
	 SCS Same-Spin Scale       =       0.3333333333333333 [-]
	 SCS Opposite-Spin Scale   =       1.2000000000000000 [-]
	 SCS Same-Spin Energy      =      -0.1445861020541335 [Eh]
	 SCS Opposite-Spin Energy  =      -1.5456697035775930 [Eh]
	 SCS Correlation Energy    =      -1.6902558056317265 [Eh]
	 SCS Total Energy          =    -455.1259507374490454 [Eh]
	-----------------------------------------------------------

  Dipole Moment: [D]
     X:    -1.3769      Y:     1.0667      Z:     1.5724     Total:     2.3465

*** Psi4 exiting successfully. Buy a developer a beer!
