                               Psi4 1.3.2 release

  ==> Input File <==

--------------------------------------------------------------------------
#psi4
#
memory 32 gb

molecule  {
0 1
  O        1.6287540    -0.6201880     1.1142450
  O       -2.7620560    -0.0348310     0.0798330
  O        2.1886480    -0.1218500    -1.0324370
  O       -0.8732870    -1.2159650    -0.3624810
  C        0.7767803     1.3942979     0.1955023
  C       -0.7452640     1.1476080     0.0762790
  C        1.5307310     0.0928540    -0.0315040
  C       -1.4205430    -0.1583360    -0.0935410
  H        1.0613430     2.2244020     0.1998120
  H       -1.3741190     2.0281690     0.1581920
  H        2.2467100    -1.3553630     0.9159410
  H       -3.1312110    -0.9325360    -0.0538740
units angstrom
no_reorient  #important for SAPT in psi4, default
symmetry c1  #important for SAPT in psi4, default
}

set PROPERTIES_ORIGIN ["COM"]
properties('MP2/aug-cc-pvtz', properties = ['dipole'])
--------------------------------------------------------------------------

    Molecular point group: c1
  Charge       = 0
  Multiplicity = 1
  Basis Set: AUG-CC-PVTZ
    Blend: AUG-CC-PVTZ
  Basis Set: (AUG-CC-PVTZ AUX)
    Blend: AUG-CC-PVTZ-JKFIT

    Orbital Energies [Eh]
    ---------------------

    Doubly Occupied:

       1A    -20.631787     2A    -20.624604     3A    -20.565627
       4A    -20.563041     5A    -11.416127     6A    -11.413577
       7A    -11.315222     8A    -11.306529     9A     -1.475858
      10A     -1.469641    11A     -1.372063    12A     -1.368672
      13A     -1.087546    14A     -0.972535    15A     -0.863018
      16A     -0.805885    17A     -0.734792    18A     -0.716173
      19A     -0.711335    20A     -0.687459    21A     -0.652295
      22A     -0.640842    23A     -0.618775    24A     -0.603691
      25A     -0.568848    26A     -0.505405    27A     -0.487298
      28A     -0.474635    29A     -0.468902    30A     -0.378335

  @DF-RHF Final Energy:  -453.33901325154000

   => Energetics <=

    Nuclear Repulsion Energy =            355.2979003885759539
    One-Electron Energy =               -1326.2727882679510003
    Two-Electron Energy =                 517.6358746278350509
    Total Energy =                       -453.3390132515399955
  Basis Set: (AUG-CC-PVTZ AUX)
    Blend: AUG-CC-PVTZ-RI
    Molecular point group: c1

    Geometry (in Angstrom), charge = 0, multiplicity = 1:

       Center              X                  Y                   Z               Mass
    ------------   -----------------  -----------------  -----------------  -----------------
         O            1.599396221472    -0.618652996226     1.116158310259    15.994914619570
         O           -2.791413778528    -0.033295996226     0.081746310259    15.994914619570
         O            2.159290221472    -0.120314996226    -1.030523689741    15.994914619570
         O           -0.902644778528    -1.214429996226    -0.360567689741    15.994914619570
         C            0.747422521472     1.395832903774     0.197415610259    12.000000000000
         C           -0.774621778528     1.149143003774     0.078192310259    12.000000000000
         C            1.501373221472     0.094389003774    -0.029590689741    12.000000000000
         C           -1.449900778528    -0.156800996226    -0.091627689741    12.000000000000
         H            1.031985221472     2.225937003774     0.201725310259     1.007825032230
         H           -1.403476778528     2.029704003774     0.160105310259     1.007825032230
         H            2.217352221472    -1.353827996226     0.917854310259     1.007825032230
         H           -3.160568778528    -0.931000996226    -0.051960689741     1.007825032230

  Basis Set: AUG-CC-PVTZ
    Blend: AUG-CC-PVTZ
  Basis Set: (AUG-CC-PVTZ AUX)
    Blend: AUG-CC-PVTZ-JKFIT
	 Reference Energy          =    -453.3390132515399955 [Eh]
	 Singles Energy            =      -0.0000000000000000 [Eh]
	 Same-Spin Energy          =      -0.4374486831902442 [Eh]
	 Opposite-Spin Energy      =      -1.2988128196022302 [Eh]
	 Correlation Energy        =      -1.7362615027924744 [Eh]
	 Total Energy              =    -455.0752747543324972 [Eh]

	 ================> DF-SCS-MP2 Energies <==================
	-----------------------------------------------------------
	 SCS Same-Spin Scale       =       0.3333333333333333 [-]
	 SCS Opposite-Spin Scale   =       1.2000000000000000 [-]
	 SCS Same-Spin Energy      =      -0.1458162277300814 [Eh]
	 SCS Opposite-Spin Energy  =      -1.5585753835226761 [Eh]
	 SCS Correlation Energy    =      -1.7043916112527575 [Eh]
	 SCS Total Energy          =    -455.0434048627927268 [Eh]
	-----------------------------------------------------------

  Dipole Moment: [D]
     X:    -1.3689      Y:     1.0325      Z:     1.5308     Total:     2.2985

*** Psi4 exiting successfully. Buy a developer a beer!
