                               Psi4 1.3.2 release

  ==> Input File <==

--------------------------------------------------------------------------
#psi4
#
memory 32 gb

molecule  {
0 1
  O        1.6287540    -0.6201880     1.1142450
  O       -2.7620560    -0.0348310     0.0798330
  O        2.1886480    -0.1218500    -1.0324370
  O       -0.8732870    -1.2159650    -0.3624810
  C        0.7397994     1.3649463     0.1790432
  C       -0.7452640     1.1476080     0.0762790
  C        1.5307310     0.0928540    -0.0315040
  C       -1.4205430    -0.1583360    -0.0935410
  H        1.0613430     2.2244020     0.1998120
  H       -1.3741190     2.0281690     0.1581920
  H        2.2467100    -1.3553630     0.9159410
  H       -3.1312110    -0.9325360    -0.0538740
units angstrom
no_reorient  #important for SAPT in psi4, default
symmetry c1  #important for SAPT in psi4, default
}

set PROPERTIES_ORIGIN ["COM"]
properties('MP2/aug-cc-pvtz', properties = ['dipole'])
--------------------------------------------------------------------------

    Molecular point group: c1
  Charge       = 0
  Multiplicity = 1
  Basis Set: AUG-CC-PVTZ
    Blend: AUG-CC-PVTZ
  Basis Set: (AUG-CC-PVTZ AUX)
    Blend: AUG-CC-PVTZ-JKFIT

    Orbital Energies [Eh]
    ---------------------

    Doubly Occupied:

       1A    -20.631492     2A    -20.624218     3A    -20.565258
       4A    -20.562542     5A    -11.413819     6A    -11.412727
       7A    -11.311928     8A    -11.301793     9A     -1.475590
      10A     -1.469304    11A     -1.371777    12A     -1.368239
      13A     -1.091679    14A     -0.969574    15A     -0.859395
      16A     -0.802593    17A     -0.734339    18A     -0.716160
      19A     -0.711004    20A     -0.682909    21A     -0.654189
      22A     -0.641132    23A     -0.617328    24A     -0.603164
      25A     -0.575140    26A     -0.505370    27A     -0.487106
      28A     -0.474689    29A     -0.469211    30A     -0.385237

  @DF-RHF Final Energy:  -453.37310261636469

   => Energetics <=

    Nuclear Repulsion Energy =            355.9532535444163273
    One-Electron Energy =               -1327.6749028861827355
    Two-Electron Energy =                 518.3485467254016612
    Total Energy =                       -453.3731026163646902
  Basis Set: (AUG-CC-PVTZ AUX)
    Blend: AUG-CC-PVTZ-RI
    Molecular point group: c1

    Geometry (in Angstrom), charge = 0, multiplicity = 1:

       Center              X                  Y                   Z               Mass
    ------------   -----------------  -----------------  -----------------  -----------------
         O            1.603221470443    -0.615616910634     1.117860814940    15.994914619570
         O           -2.787588529557    -0.030259910634     0.083448814940    15.994914619570
         O            2.163115470443    -0.117278910634    -1.028821185060    15.994914619570
         O           -0.898819529557    -1.211393910634    -0.358865185060    15.994914619570
         C            0.714266870443     1.369517389366     0.182659014940    12.000000000000
         C           -0.770796529557     1.152179089366     0.079894814940    12.000000000000
         C            1.505198470443     0.097425089366    -0.027888185060    12.000000000000
         C           -1.446075529557    -0.153764910634    -0.089925185060    12.000000000000
         H            1.035810470443     2.228973089366     0.203427814940     1.007825032230
         H           -1.399651529557     2.032740089366     0.161807814940     1.007825032230
         H            2.221177470443    -1.350791910634     0.919556814940     1.007825032230
         H           -3.156743529557    -0.927964910634    -0.050258185060     1.007825032230

  Basis Set: AUG-CC-PVTZ
    Blend: AUG-CC-PVTZ
  Basis Set: (AUG-CC-PVTZ AUX)
    Blend: AUG-CC-PVTZ-JKFIT
	 Reference Energy          =    -453.3731026163646902 [Eh]
	 Singles Energy            =      -0.0000000000000000 [Eh]
	 Same-Spin Energy          =      -0.4364043764400540 [Eh]
	 Opposite-Spin Energy      =      -1.2958435896338796 [Eh]
	 Correlation Energy        =      -1.7322479660739336 [Eh]
	 Total Energy              =    -455.1053505824386320 [Eh]

	 ================> DF-SCS-MP2 Energies <==================
	-----------------------------------------------------------
	 SCS Same-Spin Scale       =       0.3333333333333333 [-]
	 SCS Opposite-Spin Scale   =       1.2000000000000000 [-]
	 SCS Same-Spin Energy      =      -0.1454681254800180 [Eh]
	 SCS Opposite-Spin Energy  =      -1.5550123075606554 [Eh]
	 SCS Correlation Energy    =      -1.7004804330406733 [Eh]
	 SCS Total Energy          =    -455.0735830494053857 [Eh]
	-----------------------------------------------------------

  Dipole Moment: [D]
     X:    -1.3571      Y:     1.0557      Z:     1.5501     Total:     2.3149

*** Psi4 exiting successfully. Buy a developer a beer!
