                               Psi4 1.3.2 release

  ==> Input File <==

--------------------------------------------------------------------------
#psi4
#
memory 32 gb

molecule  {
0 1
  O        1.6287540    -0.6201880     1.1142450
  O       -2.7620560    -0.0348310     0.0798330
  O        2.1886480    -0.1218500    -1.0324370
  O       -0.8732870    -1.2159650    -0.3624810
  C        0.5918760     1.2475400     0.1132070
  C       -0.7173935     1.1008049     0.3202723
  C        1.5307310     0.0928540    -0.0315040
  C       -1.4205430    -0.1583360    -0.0935410
  H        1.0613430     2.2244020     0.1998120
  H       -1.3741190     2.0281690     0.1581920
  H        2.2467100    -1.3553630     0.9159410
  H       -3.1312110    -0.9325360    -0.0538740
units angstrom
no_reorient  #important for SAPT in psi4, default
symmetry c1  #important for SAPT in psi4, default
}

set PROPERTIES_ORIGIN ["COM"]
properties('MP2/aug-cc-pvtz', properties = ['dipole'])
--------------------------------------------------------------------------

    Molecular point group: c1
  Charge       = 0
  Multiplicity = 1
  Basis Set: AUG-CC-PVTZ
    Blend: AUG-CC-PVTZ
  Basis Set: (AUG-CC-PVTZ AUX)
    Blend: AUG-CC-PVTZ-JKFIT

    Orbital Energies [Eh]
    ---------------------

    Doubly Occupied:

       1A    -20.630471     2A    -20.623871     3A    -20.565070
       4A    -20.561720     5A    -11.411523     6A    -11.409046
       7A    -11.301622     8A    -11.285347     9A     -1.474852
      10A     -1.468876    11A     -1.371415    12A     -1.367755
      13A     -1.119157    14A     -0.954701    15A     -0.860817
      16A     -0.782978    17A     -0.728431    18A     -0.719434
      19A     -0.710783    20A     -0.663211    21A     -0.649515
      22A     -0.644144    23A     -0.609938    24A     -0.603569
      25A     -0.571172    26A     -0.506997    27A     -0.486838
      28A     -0.475695    29A     -0.462323    30A     -0.421376

  @DF-RHF Final Energy:  -453.41833367369441

   => Energetics <=

    Nuclear Repulsion Energy =            358.6404181587887479
    One-Electron Energy =               -1333.2322086940462214
    Two-Electron Energy =                 521.1734568615630678
    Total Energy =                       -453.4183336736944057
  Basis Set: (AUG-CC-PVTZ AUX)
    Blend: AUG-CC-PVTZ-RI
    Molecular point group: c1

    Geometry (in Angstrom), charge = 0, multiplicity = 1:

       Center              X                  Y                   Z               Mass
    ------------   -----------------  -----------------  -----------------  -----------------
         O            1.615639562813    -0.598631335963     1.099432511048    15.994914619570
         O           -2.775170437187    -0.013274335963     0.065020511048    15.994914619570
         O            2.175533562813    -0.100293335963    -1.047249488952    15.994914619570
         O           -0.886401437187    -1.194408335963    -0.377293488952    15.994914619570
         C            0.578761562813     1.269096664037     0.098394511048    12.000000000000
         C           -0.730507937187     1.122361564037     0.305459811048    12.000000000000
         C            1.517616562813     0.114410664037    -0.046316488952    12.000000000000
         C           -1.433657437187    -0.136779335963    -0.108353488952    12.000000000000
         H            1.048228562813     2.245958664037     0.184999511048     1.007825032230
         H           -1.387233437187     2.049725664037     0.143379511048     1.007825032230
         H            2.233595562813    -1.333806335963     0.901128511048     1.007825032230
         H           -3.144325437187    -0.910979335963    -0.068686488952     1.007825032230

  Basis Set: AUG-CC-PVTZ
    Blend: AUG-CC-PVTZ
  Basis Set: (AUG-CC-PVTZ AUX)
    Blend: AUG-CC-PVTZ-JKFIT
	 Reference Energy          =    -453.4183336736944057 [Eh]
	 Singles Energy            =      -0.0000000000000000 [Eh]
	 Same-Spin Energy          =      -0.4343737716491132 [Eh]
	 Opposite-Spin Energy      =      -1.2898636769518648 [Eh]
	 Correlation Energy        =      -1.7242374486009779 [Eh]
	 Total Energy              =    -455.1425711222954078 [Eh]

	 ================> DF-SCS-MP2 Energies <==================
	-----------------------------------------------------------
	 SCS Same-Spin Scale       =       0.3333333333333333 [-]
	 SCS Opposite-Spin Scale   =       1.2000000000000000 [-]
	 SCS Same-Spin Energy      =      -0.1447912572163710 [Eh]
	 SCS Opposite-Spin Energy  =      -1.5478364123422377 [Eh]
	 SCS Correlation Energy    =      -1.6926276695586087 [Eh]
	 SCS Total Energy          =    -455.1109613432529954 [Eh]
	-----------------------------------------------------------

  Dipole Moment: [D]
     X:    -1.3253      Y:     1.0182      Z:     1.4787     Total:     2.2315

*** Psi4 exiting successfully. Buy a developer a beer!
