                               Psi4 1.3.2 release

  ==> Input File <==

--------------------------------------------------------------------------
#psi4
#
memory 32 gb

molecule  {
0 1
  O        1.6287540    -0.6201880     1.1142450
  O       -2.7620560    -0.0348310     0.0798330
  O        2.1886480    -0.1218500    -1.0324370
  O       -0.8732870    -1.2159650    -0.3624810
  C        0.5918760     1.2475400     0.1132070
  C       -0.7118194     1.0914443     0.3690709
  C        1.5307310     0.0928540    -0.0315040
  C       -1.4205430    -0.1583360    -0.0935410
  H        1.0613430     2.2244020     0.1998120
  H       -1.3741190     2.0281690     0.1581920
  H        2.2467100    -1.3553630     0.9159410
  H       -3.1312110    -0.9325360    -0.0538740
units angstrom
no_reorient  #important for SAPT in psi4, default
symmetry c1  #important for SAPT in psi4, default
}

set PROPERTIES_ORIGIN ["COM"]
properties('MP2/aug-cc-pvtz', properties = ['dipole'])
--------------------------------------------------------------------------

    Molecular point group: c1
  Charge       = 0
  Multiplicity = 1
  Basis Set: AUG-CC-PVTZ
    Blend: AUG-CC-PVTZ
  Basis Set: (AUG-CC-PVTZ AUX)
    Blend: AUG-CC-PVTZ-JKFIT

    Orbital Energies [Eh]
    ---------------------

    Doubly Occupied:

       1A    -20.630278     2A    -20.624266     3A    -20.565105
       4A    -20.562183     5A    -11.412221     6A    -11.409405
       7A    -11.304042     8A    -11.287509     9A     -1.474709
      10A     -1.469190    11A     -1.371315    12A     -1.368207
      13A     -1.118466    14A     -0.953090    15A     -0.859794
      16A     -0.783344    17A     -0.726930    18A     -0.719311
      19A     -0.711169    20A     -0.662515    21A     -0.646932
      22A     -0.644375    23A     -0.609458    24A     -0.602480
      25A     -0.568575    26A     -0.507070    27A     -0.487011
      28A     -0.475465    29A     -0.460884    30A     -0.421702

  @DF-RHF Final Energy:  -453.41005850356555

   => Energetics <=

    Nuclear Repulsion Energy =            358.4674005404298782
    One-Electron Energy =               -1332.8809148166712930
    Two-Electron Energy =                 521.0034557726758067
    Total Energy =                       -453.4100585035655513
  Basis Set: (AUG-CC-PVTZ AUX)
    Blend: AUG-CC-PVTZ-RI
    Molecular point group: c1

    Geometry (in Angstrom), charge = 0, multiplicity = 1:

       Center              X                  Y                   Z               Mass
    ------------   -----------------  -----------------  -----------------  -----------------
         O            1.615062986249    -0.597663089503     1.094384856869    15.994914619570
         O           -2.775747013751    -0.012306089503     0.059972856869    15.994914619570
         O            2.174956986249    -0.099325089503    -1.052297143131    15.994914619570
         O           -0.886978013751    -1.193440089503    -0.382341143131    15.994914619570
         C            0.578184986249     1.270064910497     0.093346856869    12.000000000000
         C           -0.725510413751     1.113969210497     0.349210756869    12.000000000000
         C            1.517039986249     0.115378910497    -0.051364143131    12.000000000000
         C           -1.434234013751    -0.135811089503    -0.113401143131    12.000000000000
         H            1.047651986249     2.246926910497     0.179951856869     1.007825032230
         H           -1.387810013751     2.050693910497     0.138331856869     1.007825032230
         H            2.233018986249    -1.332838089503     0.896080856869     1.007825032230
         H           -3.144902013751    -0.910011089503    -0.073734143131     1.007825032230

  Basis Set: AUG-CC-PVTZ
    Blend: AUG-CC-PVTZ
  Basis Set: (AUG-CC-PVTZ AUX)
    Blend: AUG-CC-PVTZ-JKFIT
	 Reference Energy          =    -453.4100585035655513 [Eh]
	 Singles Energy            =      -0.0000000000000000 [Eh]
	 Same-Spin Energy          =      -0.4347113893538442 [Eh]
	 Opposite-Spin Energy      =      -1.2908812850072748 [Eh]
	 Correlation Energy        =      -1.7255926743611192 [Eh]
	 Total Energy              =    -455.1356511779266611 [Eh]

	 ================> DF-SCS-MP2 Energies <==================
	-----------------------------------------------------------
	 SCS Same-Spin Scale       =       0.3333333333333333 [-]
	 SCS Opposite-Spin Scale   =       1.2000000000000000 [-]
	 SCS Same-Spin Energy      =      -0.1449037964512814 [Eh]
	 SCS Opposite-Spin Energy  =      -1.5490575420087298 [Eh]
	 SCS Correlation Energy    =      -1.6939613384600112 [Eh]
	 SCS Total Energy          =    -455.1040198420255365 [Eh]
	-----------------------------------------------------------

  Dipole Moment: [D]
     X:    -1.2980      Y:     0.9967      Z:     1.4526     Total:     2.1882

*** Psi4 exiting successfully. Buy a developer a beer!
