                               Psi4 1.3.2 release

  ==> Input File <==

--------------------------------------------------------------------------
#psi4
#
memory 32 gb

molecule  {
0 1
  O       -0.7704141     0.8324661     0.3205548
  O       -0.3079160    -1.6544620     1.3165970
  O        2.1058880    -1.9633380    -0.1734630
  O        2.7564030     0.7739560    -0.4353370
  O        0.7402180     2.5264820     0.5866940
  O       -3.4805510     0.5379580    -0.4489300
  C       -0.2340330    -1.4057570    -0.0828570
  C        1.1618270    -0.9690140    -0.5229560
  C       -1.2150640    -0.3000600    -0.4685780
  C        1.5092100     0.3624850     0.1183010
  C        0.4233390     1.3863000    -0.1554910
  C       -2.6607760    -0.5711350    -0.1020210
  H       -0.4877470    -2.3504840    -0.5773070
  H        1.1452800    -0.8176870    -1.6174030
  H       -1.1578680    -0.0786640    -1.5458690
  H        1.5875790     0.2279570     1.2063390
  H        0.3695010     1.6036290    -1.2365780
  H       -2.7264410    -0.8110830     0.9660040
  H       -3.0303370    -1.4295750    -0.6693420
  H       -0.3876700    -0.7765070     1.7356760
  H        2.9789380    -1.5641560    -0.3473760
  H        3.0115730     1.5902370     0.0317380
  H        0.1218180     3.2344810     0.3328360
  H       -3.0789740     1.3005050     0.0038810
units angstrom
no_reorient  #important for SAPT in psi4, default
symmetry c1  #important for SAPT in psi4, default
}

set PROPERTIES_ORIGIN ["COM"]
properties('MP2/aug-cc-pvtz', properties = ['dipole'])
--------------------------------------------------------------------------

    Molecular point group: c1
  Charge       = 0
  Multiplicity = 1
  Basis Set: AUG-CC-PVTZ
    Blend: AUG-CC-PVTZ
  Basis Set: (AUG-CC-PVTZ AUX)
    Blend: AUG-CC-PVTZ-JKFIT

    Orbital Energies [Eh]
    ---------------------

    Doubly Occupied:

       1A    -20.599046     2A    -20.594034     3A    -20.581343
       4A    -20.567853     5A    -20.562714     6A    -20.562704
       7A    -11.359501     8A    -11.306974     9A    -11.294758
      10A    -11.294493    11A    -11.293111    12A    -11.288621
      13A     -1.455196    14A     -1.390054    15A     -1.388920
      16A     -1.367793    17A     -1.358725    18A     -1.351411
      19A     -1.070934    20A     -1.053983    21A     -0.948646
      22A     -0.885793    23A     -0.850651    24A     -0.810155
      25A     -0.757746    26A     -0.737627    27A     -0.722931
      28A     -0.716986    29A     -0.691143    30A     -0.666373
      31A     -0.657100    32A     -0.640852    33A     -0.623899
      34A     -0.619296    35A     -0.598905    36A     -0.579315
      37A     -0.574170    38A     -0.561567    39A     -0.540655
      40A     -0.534269    41A     -0.528101    42A     -0.511545
      43A     -0.499876    44A     -0.481265    45A     -0.470351
      46A     -0.457951    47A     -0.443971    48A     -0.427064

  @DF-RHF Final Energy:  -683.60694962892296

   => Energetics <=

    Nuclear Repulsion Energy =            837.6311059950789968
    One-Electron Energy =               -2603.9153723726744829
    Two-Electron Energy =                1082.6773167486724105
    Total Energy =                       -683.6069496289230756
  Basis Set: (AUG-CC-PVTZ AUX)
    Blend: AUG-CC-PVTZ-RI
    Molecular point group: c1

    Geometry (in Angstrom), charge = 0, multiplicity = 1:

       Center              X                  Y                   Z               Mass
    ------------   -----------------  -----------------  -----------------  -----------------
         O           -0.786183445776     0.837980124355     0.307460195016    15.994914619570
         O           -0.323685345776    -1.648947975645     1.303502395016    15.994914619570
         O            2.090118654224    -1.957823975645    -0.186557604984    15.994914619570
         O            2.740633654224     0.779470024355    -0.448431604984    15.994914619570
         O            0.724448654224     2.531996024355     0.573599395016    15.994914619570
         O           -3.496320345776     0.543472024355    -0.462024604984    15.994914619570
         C           -0.249802345776    -1.400242975645    -0.095951604984    12.000000000000
         C            1.146057654224    -0.963499975645    -0.536050604984    12.000000000000
         C           -1.230833345776    -0.294545975645    -0.481672604984    12.000000000000
         C            1.493440654224     0.367999024355     0.105206395016    12.000000000000
         C            0.407569654224     1.391814024355    -0.168585604984    12.000000000000
         C           -2.676545345776    -0.565620975645    -0.115115604984    12.000000000000
         H           -0.503516345776    -2.344969975645    -0.590401604984     1.007825032230
         H            1.129510654224    -0.812172975645    -1.630497604984     1.007825032230
         H           -1.173637345776    -0.073149975645    -1.558963604984     1.007825032230
         H            1.571809654224     0.233471024355     1.193244395016     1.007825032230
         H            0.353731654224     1.609143024355    -1.249672604984     1.007825032230
         H           -2.742210345776    -0.805568975645     0.952909395016     1.007825032230
         H           -3.046106345776    -1.424060975645    -0.682436604984     1.007825032230
         H           -0.403439345776    -0.770992975645     1.722581395016     1.007825032230
         H            2.963168654224    -1.558641975645    -0.360470604984     1.007825032230
         H            2.995803654224     1.595751024355     0.018643395016     1.007825032230
         H            0.106048654224     3.239995024355     0.319741395016     1.007825032230
         H           -3.094743345776     1.306019024355    -0.009213604984     1.007825032230

  Basis Set: AUG-CC-PVTZ
    Blend: AUG-CC-PVTZ
  Basis Set: (AUG-CC-PVTZ AUX)
    Blend: AUG-CC-PVTZ-JKFIT
	 Reference Energy          =    -683.6069496289229619 [Eh]
	 Singles Energy            =      -0.0000000000000000 [Eh]
	 Same-Spin Energy          =      -0.6662690273224352 [Eh]
	 Opposite-Spin Energy      =      -2.0453717439352079 [Eh]
	 Correlation Energy        =      -2.7116407712576431 [Eh]
	 Total Energy              =    -686.3185904001805966 [Eh]

	 ================> DF-SCS-MP2 Energies <==================
	-----------------------------------------------------------
	 SCS Same-Spin Scale       =       0.3333333333333333 [-]
	 SCS Opposite-Spin Scale   =       1.2000000000000000 [-]
	 SCS Same-Spin Energy      =      -0.2220896757741451 [Eh]
	 SCS Opposite-Spin Energy  =      -2.4544460927222493 [Eh]
	 SCS Correlation Energy    =      -2.6765357684963944 [Eh]
	 SCS Total Energy          =    -686.2834853974193265 [Eh]
	-----------------------------------------------------------

  Dipole Moment: [D]
     X:     0.3654      Y:     3.2344      Z:    -1.1761     Total:     3.4610

*** Psi4 exiting successfully. Buy a developer a beer!
