                               Psi4 1.3.2 release

  ==> Input File <==

--------------------------------------------------------------------------
#psi4
#
memory 32 gb

molecule  {
0 1
  O       -0.8456270     0.8862080     0.2793150
  O       -0.2951357    -1.6071593     1.3247963
  O        2.1058880    -1.9633380    -0.1734630
  O        2.7564030     0.7739560    -0.4353370
  O        0.7402180     2.5264820     0.5866940
  O       -3.4805510     0.5379580    -0.4489300
  C       -0.2340330    -1.4057570    -0.0828570
  C        1.1618270    -0.9690140    -0.5229560
  C       -1.2150640    -0.3000600    -0.4685780
  C        1.5092100     0.3624850     0.1183010
  C        0.4233390     1.3863000    -0.1554910
  C       -2.6607760    -0.5711350    -0.1020210
  H       -0.4877470    -2.3504840    -0.5773070
  H        1.1452800    -0.8176870    -1.6174030
  H       -1.1578680    -0.0786640    -1.5458690
  H        1.5875790     0.2279570     1.2063390
  H        0.3695010     1.6036290    -1.2365780
  H       -2.7264410    -0.8110830     0.9660040
  H       -3.0303370    -1.4295750    -0.6693420
  H       -0.3876700    -0.7765070     1.7356760
  H        2.9789380    -1.5641560    -0.3473760
  H        3.0115730     1.5902370     0.0317380
  H        0.1218180     3.2344810     0.3328360
  H       -3.0789740     1.3005050     0.0038810
units angstrom
no_reorient  #important for SAPT in psi4, default
symmetry c1  #important for SAPT in psi4, default
}

set PROPERTIES_ORIGIN ["COM"]
properties('MP2/aug-cc-pvtz', properties = ['dipole'])
--------------------------------------------------------------------------

    Molecular point group: c1
  Charge       = 0
  Multiplicity = 1
  Basis Set: AUG-CC-PVTZ
    Blend: AUG-CC-PVTZ
  Basis Set: (AUG-CC-PVTZ AUX)
    Blend: AUG-CC-PVTZ-JKFIT

    Orbital Energies [Eh]
    ---------------------

    Doubly Occupied:

       1A    -20.599734     2A    -20.594336     3A    -20.584935
       4A    -20.564475     5A    -20.563975     6A    -20.559659
       7A    -11.362005     8A    -11.304507     9A    -11.298351
      10A    -11.298230    11A    -11.294536    12A    -11.285917
      13A     -1.448039    14A     -1.392622    15A     -1.391189
      16A     -1.369794    17A     -1.357140    18A     -1.354190
      19A     -1.074118    20A     -1.051491    21A     -0.949531
      22A     -0.888421    23A     -0.848600    24A     -0.810523
      25A     -0.760993    26A     -0.737900    27A     -0.722620
      28A     -0.714286    29A     -0.689821    30A     -0.665205
      31A     -0.662415    32A     -0.641734    33A     -0.623755
      34A     -0.618500    35A     -0.598827    36A     -0.584092
      37A     -0.574853    38A     -0.562632    39A     -0.540002
      40A     -0.533911    41A     -0.528771    42A     -0.511926
      43A     -0.495612    44A     -0.482557    45A     -0.470450
      46A     -0.459586    47A     -0.444492    48A     -0.430068

  @DF-RHF Final Energy:  -683.60922075262738

   => Energetics <=

    Nuclear Repulsion Energy =            836.8474837335141956
    One-Electron Energy =               -2602.3107552542755911
    Two-Electron Energy =                1081.8540507681339022
    Total Energy =                       -683.6092207526273796
  Basis Set: (AUG-CC-PVTZ AUX)
    Blend: AUG-CC-PVTZ-RI
    Molecular point group: c1

    Geometry (in Angstrom), charge = 0, multiplicity = 1:

       Center              X                  Y                   Z               Mass
    ------------   -----------------  -----------------  -----------------  -----------------
         O           -0.855850498189     0.882746297714     0.269155361319    15.994914619570
         O           -0.305359198189    -1.610621002286     1.314636661319    15.994914619570
         O            2.095664501811    -1.966799702286    -0.183622638681    15.994914619570
         O            2.746179501811     0.770494297714    -0.445496638681    15.994914619570
         O            0.729994501811     2.523020297714     0.576534361319    15.994914619570
         O           -3.490774498189     0.534496297714    -0.459089638681    15.994914619570
         C           -0.244256498189    -1.409218702286    -0.093016638681    12.000000000000
         C            1.151603501811    -0.972475702286    -0.533115638681    12.000000000000
         C           -1.225287498189    -0.303521702286    -0.478737638681    12.000000000000
         C            1.498986501811     0.359023297714     0.108141361319    12.000000000000
         C            0.413115501811     1.382838297714    -0.165650638681    12.000000000000
         C           -2.670999498189    -0.574596702286    -0.112180638681    12.000000000000
         H           -0.497970498189    -2.353945702286    -0.587466638681     1.007825032230
         H            1.135056501811    -0.821148702286    -1.627562638681     1.007825032230
         H           -1.168091498189    -0.082125702286    -1.556028638681     1.007825032230
         H            1.577355501811     0.224495297714     1.196179361319     1.007825032230
         H            0.359277501811     1.600167297714    -1.246737638681     1.007825032230
         H           -2.736664498189    -0.814544702286     0.955844361319     1.007825032230
         H           -3.040560498189    -1.433036702286    -0.679501638681     1.007825032230
         H           -0.397893498189    -0.779968702286     1.725516361319     1.007825032230
         H            2.968714501811    -1.567617702286    -0.357535638681     1.007825032230
         H            3.001349501811     1.586775297714     0.021578361319     1.007825032230
         H            0.111594501811     3.231019297714     0.322676361319     1.007825032230
         H           -3.089197498189     1.297043297714    -0.006278638681     1.007825032230

  Basis Set: AUG-CC-PVTZ
    Blend: AUG-CC-PVTZ
  Basis Set: (AUG-CC-PVTZ AUX)
    Blend: AUG-CC-PVTZ-JKFIT
	 Reference Energy          =    -683.6092207526273796 [Eh]
	 Singles Energy            =      -0.0000000000000000 [Eh]
	 Same-Spin Energy          =      -0.6656784643950866 [Eh]
	 Opposite-Spin Energy      =      -2.0445854227756106 [Eh]
	 Correlation Energy        =      -2.7102638871706972 [Eh]
	 Total Energy              =    -686.3194846397980200 [Eh]

	 ================> DF-SCS-MP2 Energies <==================
	-----------------------------------------------------------
	 SCS Same-Spin Scale       =       0.3333333333333333 [-]
	 SCS Opposite-Spin Scale   =       1.2000000000000000 [-]
	 SCS Same-Spin Energy      =      -0.2218928214650289 [Eh]
	 SCS Opposite-Spin Energy  =      -2.4535025073307328 [Eh]
	 SCS Correlation Energy    =      -2.6753953287957617 [Eh]
	 SCS Total Energy          =    -686.2846160814231098 [Eh]
	-----------------------------------------------------------

  Dipole Moment: [D]
     X:     0.6299      Y:     3.0839      Z:    -1.1121     Total:     3.3383

*** Psi4 exiting successfully. Buy a developer a beer!
