                               Psi4 1.4a3.dev225

  ==> Input File <==

--------------------------------------------------------------------------
#psi4
#
memory 32 gb

molecule  {
0 1
  O       -0.8456650     0.8861440     0.2793920
  O       -0.3077290    -1.6543970     1.3165920
  O        2.1058490    -1.9633390    -0.1734930
  O        2.7563870     0.7740080    -0.4352340
  O        0.7401070     2.5265290     0.5865970
  O       -3.4805150     0.5379850    -0.4487790
  C       -0.2340150    -1.4057960    -0.0828600
  C        1.1618410    -0.9690160    -0.5229920
  C       -1.2022391    -0.3145972    -0.4635342
  C        1.5091960     0.3624950     0.1183140
  C        0.4232960     1.3863010    -0.1554910
  C       -2.6608140    -0.5711940    -0.1020800
  H       -0.4877200    -2.3505680    -0.5772350
  H        1.1452880    -0.8176810    -1.6174430
  H       -1.1578130    -0.0786490    -1.5458470
  H        1.5874550     0.2279380     1.2063560
  H        0.3693510     1.6035860    -1.2365730
  H       -2.7265370    -0.8113720     0.9658980
  H       -3.0304070    -1.4295080    -0.6695770
  H       -0.3878110    -0.7763940     1.7355090
  H        2.9789120    -1.5642300    -0.3474430
  H        3.0116250     1.5901680     0.0320000
  H        0.1223170     3.2347930     0.3320250
  H       -3.0786550     1.3004670     0.0038890
units angstrom
no_reorient  #important for SAPT in psi4, default
symmetry c1  #important for SAPT in psi4, default
}

set PROPERTIES_ORIGIN ["COM"]
properties('MP2/aug-cc-pvtz', properties = ['dipole'])
--------------------------------------------------------------------------

    Molecular point group: c1
  Charge       = 0
  Multiplicity = 1
  Basis Set: AUG-CC-PVTZ
    Blend: AUG-CC-PVTZ
  Basis Set: (AUG-CC-PVTZ AUX)
    Blend: AUG-CC-PVTZ-JKFIT

    Orbital Energies [Eh]
    ---------------------

    Doubly Occupied:

       1A    -20.599845     2A    -20.594608     3A    -20.585427
       4A    -20.565567     5A    -20.565006     6A    -20.564320
       7A    -11.362054     8A    -11.305231     9A    -11.299035
      10A    -11.296775    11A    -11.295170    12A    -11.286382
      13A     -1.447441    14A     -1.391951    15A     -1.388958
      16A     -1.367787    17A     -1.356788    18A     -1.351988
      19A     -1.075148    20A     -1.051289    21A     -0.948361
      22A     -0.888181    23A     -0.848435    24A     -0.808538
      25A     -0.759738    26A     -0.737228    27A     -0.722250
      28A     -0.713247    29A     -0.689462    30A     -0.666663
      31A     -0.658901    32A     -0.640109    33A     -0.623955
      34A     -0.617186    35A     -0.598518    36A     -0.581016
      37A     -0.575751    38A     -0.563044    39A     -0.540284
      40A     -0.534424    41A     -0.527535    42A     -0.510991
      43A     -0.495449    44A     -0.485611    45A     -0.470309
      46A     -0.459961    47A     -0.444189    48A     -0.431489

  @DF-RHF Final Energy:  -683.60747917428625

   => Energetics <=

    Nuclear Repulsion Energy =            836.0718598759083307
    One-Electron Energy =               -2600.7754798831679182
    Two-Electron Energy =                1081.0961408329733331
    Total Energy =                       -683.6074791742862544
  Basis Set: (AUG-CC-PVTZ AUX)
    Blend: AUG-CC-PVTZ-RI
    Molecular point group: c1

    Geometry (in Angstrom), charge = 0, multiplicity = 1:

       Center              X                  Y                   Z               Mass
    ------------   -----------------  -----------------  -----------------  -----------------
         O           -0.855607389729     0.887848286782     0.269618373457    15.994914619570
         O           -0.317671389729    -1.652692713218     1.306818373457    15.994914619570
         O            2.095906610271    -1.961634713218    -0.183266626543    15.994914619570
         O            2.746444610271     0.775712286782    -0.445007626543    15.994914619570
         O            0.730164610271     2.528233286782     0.576823373457    15.994914619570
         O           -3.490457389729     0.539689286782    -0.458552626543    15.994914619570
         C           -0.243957389729    -1.404091713218    -0.092633626543    12.000000000000
         C            1.151898610271    -0.967311713218    -0.532765626543    12.000000000000
         C           -1.212181489729    -0.312892913218    -0.473307826543    12.000000000000
         C            1.499253610271     0.364199286782     0.108540373457    12.000000000000
         C            0.413353610271     1.388005286782    -0.165264626543    12.000000000000
         C           -2.670756389729    -0.569489713218    -0.111853626543    12.000000000000
         H           -0.497662389729    -2.348863713218    -0.587008626543     1.007825032230
         H            1.135345610271    -0.815976713218    -1.627216626543     1.007825032230
         H           -1.167755389729    -0.076944713218    -1.555620626543     1.007825032230
         H            1.577512610271     0.229642286782     1.196582373457     1.007825032230
         H            0.359408610271     1.605290286782    -1.246346626543     1.007825032230
         H           -2.736479389729    -0.809667713218     0.956124373457     1.007825032230
         H           -3.040349389729    -1.427803713218    -0.679350626543     1.007825032230
         H           -0.397753389729    -0.774689713218     1.725735373457     1.007825032230
         H            2.968969610271    -1.562525713218    -0.357216626543     1.007825032230
         H            3.001682610271     1.591872286782     0.022226373457     1.007825032230
         H            0.112374610271     3.236497286782     0.322251373457     1.007825032230
         H           -3.088597389729     1.302171286782    -0.005884626543     1.007825032230

  Basis Set: AUG-CC-PVTZ
    Blend: AUG-CC-PVTZ
  Basis Set: (AUG-CC-PVTZ AUX)
    Blend: AUG-CC-PVTZ-JKFIT
	 Reference Energy          =    -683.6074791742862544 [Eh]
	 Singles Energy            =      -0.0000000000000000 [Eh]
	 Same-Spin Energy          =      -0.6664941650140738 [Eh]
	 Opposite-Spin Energy      =      -2.0464484052148753 [Eh]
	 Correlation Energy        =      -2.7129425702289489 [Eh]
	 Total Energy              =    -686.3204217445152153 [Eh]

	 ================> DF-SCS-MP2 Energies <==================
	-----------------------------------------------------------
	 SCS Same-Spin Scale       =       0.3333333333333333 [-]
	 SCS Opposite-Spin Scale   =       1.2000000000000000 [-]
	 SCS Same-Spin Energy      =      -0.2221647216713579 [Eh]
	 SCS Opposite-Spin Energy  =      -2.4557380862578504 [Eh]
	 SCS Correlation Energy    =      -2.6779028079292084 [Eh]
	 SCS Total Energy          =    -686.2853819822154264 [Eh]
	-----------------------------------------------------------

  Dipole Moment: [D]
     X:     0.6742      Y:     3.1347      Z:    -1.0978     Total:     3.3891

*** Psi4 exiting successfully. Buy a developer a beer!
