                               Psi4 1.3.2 release

  ==> Input File <==

--------------------------------------------------------------------------
#psi4
#
memory 32 gb

molecule  {
0 1
  O       -0.8456270     0.8862080     0.2793150
  O       -0.3079160    -1.6544620     1.3165970
  O        2.1058880    -1.9633380    -0.1734630
  O        2.7564030     0.7739560    -0.4353370
  O        0.7402180     2.5264820     0.5866940
  O       -3.4805510     0.5379580    -0.4489300
  C       -0.2340330    -1.4057570    -0.0828570
  C        1.1618270    -0.9690140    -0.5229560
  C       -1.3421046    -0.3031269    -0.3855548
  C        1.5092100     0.3624850     0.1183010
  C        0.4233390     1.3863000    -0.1554910
  C       -2.6607760    -0.5711350    -0.1020210
  H       -0.4877470    -2.3504840    -0.5773070
  H        1.1452800    -0.8176870    -1.6174030
  H       -1.1578680    -0.0786640    -1.5458690
  H        1.5875790     0.2279570     1.2063390
  H        0.3695010     1.6036290    -1.2365780
  H       -2.7264410    -0.8110830     0.9660040
  H       -3.0303370    -1.4295750    -0.6693420
  H       -0.3876700    -0.7765070     1.7356760
  H        2.9789380    -1.5641560    -0.3473760
  H        3.0115730     1.5902370     0.0317380
  H        0.1218180     3.2344810     0.3328360
  H       -3.0789740     1.3005050     0.0038810
units angstrom
no_reorient  #important for SAPT in psi4, default
symmetry c1  #important for SAPT in psi4, default
}

set PROPERTIES_ORIGIN ["COM"]
properties('MP2/aug-cc-pvtz', properties = ['dipole'])
--------------------------------------------------------------------------

    Molecular point group: c1
  Charge       = 0
  Multiplicity = 1
  Basis Set: AUG-CC-PVTZ
    Blend: AUG-CC-PVTZ
  Basis Set: (AUG-CC-PVTZ AUX)
    Blend: AUG-CC-PVTZ-JKFIT

    Orbital Energies [Eh]
    ---------------------

    Doubly Occupied:

       1A    -20.601212     2A    -20.591142     3A    -20.585107
       4A    -20.566593     5A    -20.565833     6A    -20.562422
       7A    -11.364405     8A    -11.311408     9A    -11.300814
      10A    -11.298721    11A    -11.296891    12A    -11.281584
      13A     -1.446641    14A     -1.392352    15A     -1.389994
      16A     -1.370462    17A     -1.357849    18A     -1.351299
      19A     -1.074360    20A     -1.064470    21A     -0.961938
      22A     -0.886058    23A     -0.844341    24A     -0.802678
      25A     -0.761622    26A     -0.738383    27A     -0.719472
      28A     -0.711651    29A     -0.699793    30A     -0.666002
      31A     -0.659611    32A     -0.641443    33A     -0.627329
      34A     -0.621053    35A     -0.603485    36A     -0.579350
      37A     -0.576674    38A     -0.559612    39A     -0.541319
      40A     -0.533917    41A     -0.528494    42A     -0.513953
      43A     -0.499212    44A     -0.472663    45A     -0.465311
      46A     -0.458758    47A     -0.446883    48A     -0.423710

  @DF-RHF Final Energy:  -683.57989458800500

   => Energetics <=

    Nuclear Repulsion Energy =            835.7748962548944291
    One-Electron Energy =               -2600.0730326351190342
    Two-Electron Energy =                1080.7182417922194873
    Total Energy =                       -683.5798945880051178
  Basis Set: (AUG-CC-PVTZ AUX)
    Blend: AUG-CC-PVTZ-RI
    Molecular point group: c1

    Geometry (in Angstrom), charge = 0, multiplicity = 1:

       Center              X                  Y                   Z               Mass
    ------------   -----------------  -----------------  -----------------  -----------------
         O           -0.846248840542     0.887152554067     0.264350768305    15.994914619570
         O           -0.308537840542    -1.653517445933     1.301632768305    15.994914619570
         O            2.105266159458    -1.962393445933    -0.188427231695    15.994914619570
         O            2.755781159458     0.774900554067    -0.450301231695    15.994914619570
         O            0.739596159458     2.527426554067     0.571729768305    15.994914619570
         O           -3.481172840542     0.538902554067    -0.463894231695    15.994914619570
         C           -0.234654840542    -1.404812445933    -0.097821231695    12.000000000000
         C            1.161205159458    -0.968069445933    -0.537920231695    12.000000000000
         C           -1.342726440542    -0.302182345933    -0.400519031695    12.000000000000
         C            1.508588159458     0.363429554067     0.103336768305    12.000000000000
         C            0.422717159458     1.387244554067    -0.170455231695    12.000000000000
         C           -2.661397840542    -0.570190445933    -0.116985231695    12.000000000000
         H           -0.488368840542    -2.349539445933    -0.592271231695     1.007825032230
         H            1.144658159458    -0.816742445933    -1.632367231695     1.007825032230
         H           -1.158489840542    -0.077719445933    -1.560833231695     1.007825032230
         H            1.586957159458     0.228901554067     1.191374768305     1.007825032230
         H            0.368879159458     1.604573554067    -1.251542231695     1.007825032230
         H           -2.727062840542    -0.810138445933     0.951039768305     1.007825032230
         H           -3.030958840542    -1.428630445933    -0.684306231695     1.007825032230
         H           -0.388291840542    -0.775562445933     1.720711768305     1.007825032230
         H            2.978316159458    -1.563211445933    -0.362340231695     1.007825032230
         H            3.010951159458     1.591181554067     0.016773768305     1.007825032230
         H            0.121196159458     3.235425554067     0.317871768305     1.007825032230
         H           -3.079595840542     1.301449554067    -0.011083231695     1.007825032230

  Basis Set: AUG-CC-PVTZ
    Blend: AUG-CC-PVTZ
  Basis Set: (AUG-CC-PVTZ AUX)
    Blend: AUG-CC-PVTZ-JKFIT
	 Reference Energy          =    -683.5798945880050042 [Eh]
	 Singles Energy            =      -0.0000000000000000 [Eh]
	 Same-Spin Energy          =      -0.6674114780732284 [Eh]
	 Opposite-Spin Energy      =      -2.0475115796806156 [Eh]
	 Correlation Energy        =      -2.7149230577538441 [Eh]
	 Total Energy              =    -686.2948176457588261 [Eh]

	 ================> DF-SCS-MP2 Energies <==================
	-----------------------------------------------------------
	 SCS Same-Spin Scale       =       0.3333333333333333 [-]
	 SCS Opposite-Spin Scale   =       1.2000000000000000 [-]
	 SCS Same-Spin Energy      =      -0.2224704926910761 [Eh]
	 SCS Opposite-Spin Energy  =      -2.4570138956167384 [Eh]
	 SCS Correlation Energy    =      -2.6794843883078148 [Eh]
	 SCS Total Energy          =    -686.2593789763128598 [Eh]
	-----------------------------------------------------------

  Dipole Moment: [D]
     X:     0.5794      Y:     3.1000      Z:    -0.9979     Total:     3.3078

*** Psi4 exiting successfully. Buy a developer a beer!
