                               Psi4 1.4a3.dev225

  ==> Input File <==

--------------------------------------------------------------------------
#psi4
#
memory 32 gb

molecule  {
0 1
  O       -0.8456650     0.8861440     0.2793920
  O       -0.3077290    -1.6543970     1.3165920
  O        2.1058490    -1.9633390    -0.1734930
  O        2.7563870     0.7740080    -0.4352340
  O        0.7401070     2.5265290     0.5865970
  O       -3.4805150     0.5379850    -0.4487790
  C       -0.2340150    -1.4057960    -0.0828600
  C        1.1618410    -0.9690160    -0.5229920
  C       -1.1829732    -0.3363101    -0.4559595
  C        1.5091960     0.3624950     0.1183140
  C        0.4232960     1.3863010    -0.1554910
  C       -2.6608140    -0.5711940    -0.1020800
  H       -0.4877200    -2.3505680    -0.5772350
  H        1.1452880    -0.8176810    -1.6174430
  H       -1.1578130    -0.0786490    -1.5458470
  H        1.5874550     0.2279380     1.2063560
  H        0.3693510     1.6035860    -1.2365730
  H       -2.7265370    -0.8113720     0.9658980
  H       -3.0304070    -1.4295080    -0.6695770
  H       -0.3878110    -0.7763940     1.7355090
  H        2.9789120    -1.5642300    -0.3474430
  H        3.0116250     1.5901680     0.0320000
  H        0.1223170     3.2347930     0.3320250
  H       -3.0786550     1.3004670     0.0038890
units angstrom
no_reorient  #important for SAPT in psi4, default
symmetry c1  #important for SAPT in psi4, default
}

set PROPERTIES_ORIGIN ["COM"]
properties('MP2/aug-cc-pvtz', properties = ['dipole'])
--------------------------------------------------------------------------

    Molecular point group: c1
  Charge       = 0
  Multiplicity = 1
  Basis Set: AUG-CC-PVTZ
    Blend: AUG-CC-PVTZ
  Basis Set: (AUG-CC-PVTZ AUX)
    Blend: AUG-CC-PVTZ-JKFIT

    Orbital Energies [Eh]
    ---------------------

    Doubly Occupied:

       1A    -20.599346     2A    -20.593950     3A    -20.585456
       4A    -20.566112     5A    -20.565789     6A    -20.564621
       7A    -11.361336     8A    -11.306059     9A    -11.299113
      10A    -11.296378    11A    -11.295548    12A    -11.287246
      13A     -1.446226    14A     -1.391998    15A     -1.388895
      16A     -1.367711    17A     -1.356894    18A     -1.351605
      19A     -1.078900    20A     -1.050897    21A     -0.947728
      22A     -0.889337    23A     -0.848424    24A     -0.808102
      25A     -0.759846    26A     -0.737587    27A     -0.722656
      28A     -0.711748    29A     -0.689164    30A     -0.667724
      31A     -0.659328    32A     -0.640025    33A     -0.625081
      34A     -0.614787    35A     -0.598266    36A     -0.581479
      37A     -0.575586    38A     -0.563259    39A     -0.540716
      40A     -0.533825    41A     -0.526126    42A     -0.509497
      43A     -0.495024    44A     -0.488609    45A     -0.470348
      46A     -0.459901    47A     -0.443626    48A     -0.432856

  @DF-RHF Final Energy:  -683.60459369705700

   => Energetics <=

    Nuclear Repulsion Energy =            836.2665886938714266
    One-Electron Energy =               -2601.1528956896772797
    Two-Electron Energy =                1081.2817132987488549
    Total Energy =                       -683.6045936970569983
  Basis Set: (AUG-CC-PVTZ AUX)
    Blend: AUG-CC-PVTZ-RI
    Molecular point group: c1

    Geometry (in Angstrom), charge = 0, multiplicity = 1:

       Center              X                  Y                   Z               Mass
    ------------   -----------------  -----------------  -----------------  -----------------
         O           -0.856891330915     0.889295303873     0.269113571226    15.994914619570
         O           -0.318955330915    -1.651245696127     1.306313571226    15.994914619570
         O            2.094622669085    -1.960187696127    -0.183771428774    15.994914619570
         O            2.745160669085     0.777159303873    -0.445512428774    15.994914619570
         O            0.728880669085     2.529680303873     0.576318571226    15.994914619570
         O           -3.491741330915     0.541136303873    -0.459057428774    15.994914619570
         C           -0.245241330915    -1.402644696127    -0.093138428774    12.000000000000
         C            1.150614669085    -0.965864696127    -0.533270428774    12.000000000000
         C           -1.194199530915    -0.333158796127    -0.466237928774    12.000000000000
         C            1.497969669085     0.365646303873     0.108035571226    12.000000000000
         C            0.412069669085     1.389452303873    -0.165769428774    12.000000000000
         C           -2.672040330915    -0.568042696127    -0.112358428774    12.000000000000
         H           -0.498946330915    -2.347416696127    -0.587513428774     1.007825032230
         H            1.134061669085    -0.814529696127    -1.627721428774     1.007825032230
         H           -1.169039330915    -0.075497696127    -1.556125428774     1.007825032230
         H            1.576228669085     0.231089303873     1.196077571226     1.007825032230
         H            0.358124669085     1.606737303873    -1.246851428774     1.007825032230
         H           -2.737763330915    -0.808220696127     0.955619571226     1.007825032230
         H           -3.041633330915    -1.426356696127    -0.679855428774     1.007825032230
         H           -0.399037330915    -0.773242696127     1.725230571226     1.007825032230
         H            2.967685669085    -1.561078696127    -0.357721428774     1.007825032230
         H            3.000398669085     1.593319303873     0.021721571226     1.007825032230
         H            0.111090669085     3.237944303873     0.321746571226     1.007825032230
         H           -3.089881330915     1.303618303873    -0.006389428774     1.007825032230

  Basis Set: AUG-CC-PVTZ
    Blend: AUG-CC-PVTZ
  Basis Set: (AUG-CC-PVTZ AUX)
    Blend: AUG-CC-PVTZ-JKFIT
	 Reference Energy          =    -683.6045936970569983 [Eh]
	 Singles Energy            =      -0.0000000000000000 [Eh]
	 Same-Spin Energy          =      -0.6668110697199389 [Eh]
	 Opposite-Spin Energy      =      -2.0469991629713000 [Eh]
	 Correlation Energy        =      -2.7138102326912388 [Eh]
	 Total Energy              =    -686.3184039297482286 [Eh]

	 ================> DF-SCS-MP2 Energies <==================
	-----------------------------------------------------------
	 SCS Same-Spin Scale       =       0.3333333333333333 [-]
	 SCS Opposite-Spin Scale   =       1.2000000000000000 [-]
	 SCS Same-Spin Energy      =      -0.2222703565733130 [Eh]
	 SCS Opposite-Spin Energy  =      -2.4563989955655599 [Eh]
	 SCS Correlation Energy    =      -2.6786693521388729 [Eh]
	 SCS Total Energy          =    -686.2832630491958525 [Eh]
	-----------------------------------------------------------

  Dipole Moment: [D]
     X:     0.6862      Y:     3.1023      Z:    -1.0937     Total:     3.3602

*** Psi4 exiting successfully. Buy a developer a beer!
