                               Psi4 1.3.2 release

  ==> Input File <==

--------------------------------------------------------------------------
#psi4
#
memory 32 gb

molecule  {
0 1
  O       -0.8456270     0.8862080     0.2793150
  O       -0.3079160    -1.6544620     1.3165970
  O        2.1058880    -1.9633380    -0.1734630
  O        2.7564030     0.7739560    -0.4353370
  O        0.7402180     2.5264820     0.5866940
  O       -3.4805510     0.5379580    -0.4489300
  C       -0.2340330    -1.4057570    -0.0828570
  C        1.1618270    -0.9690140    -0.5229560
  C       -1.1934587    -0.2982823    -0.4816419
  C        1.5092100     0.3624850     0.1183010
  C        0.4233390     1.3863000    -0.1554910
  C       -2.6607760    -0.5711350    -0.1020210
  H       -0.4877470    -2.3504840    -0.5773070
  H        1.1452800    -0.8176870    -1.6174030
  H       -1.1578680    -0.0786640    -1.5458690
  H        1.5875790     0.2279570     1.2063390
  H        0.3695010     1.6036290    -1.2365780
  H       -2.7264410    -0.8110830     0.9660040
  H       -3.0303370    -1.4295750    -0.6693420
  H       -0.3876700    -0.7765070     1.7356760
  H        2.9789380    -1.5641560    -0.3473760
  H        3.0115730     1.5902370     0.0317380
  H        0.1218180     3.2344810     0.3328360
  H       -3.0789740     1.3005050     0.0038810
units angstrom
no_reorient  #important for SAPT in psi4, default
symmetry c1  #important for SAPT in psi4, default
}

set PROPERTIES_ORIGIN ["COM"]
properties('MP2/aug-cc-pvtz', properties = ['dipole'])
--------------------------------------------------------------------------

    Molecular point group: c1
  Charge       = 0
  Multiplicity = 1
  Basis Set: AUG-CC-PVTZ
    Blend: AUG-CC-PVTZ
  Basis Set: (AUG-CC-PVTZ AUX)
    Blend: AUG-CC-PVTZ-JKFIT

    Orbital Energies [Eh]
    ---------------------

    Doubly Occupied:

       1A    -20.600010     2A    -20.595820     3A    -20.585488
       4A    -20.565741     5A    -20.564220     6A    -20.563804
       7A    -11.362322     8A    -11.303918     9A    -11.299070
      10A    -11.296559    11A    -11.294543    12A    -11.286393
      13A     -1.448628    14A     -1.391982    15A     -1.388973
      16A     -1.367483    17A     -1.356588    18A     -1.352251
      19A     -1.074192    20A     -1.049417    21A     -0.946345
      22A     -0.887696    23A     -0.849126    24A     -0.809910
      25A     -0.759492    26A     -0.736920    27A     -0.722796
      28A     -0.714792    29A     -0.688485    30A     -0.666114
      31A     -0.658545    32A     -0.640214    33A     -0.623241
      34A     -0.617287    35A     -0.597946    36A     -0.580954
      37A     -0.575712    38A     -0.563518    39A     -0.540033
      40A     -0.536277    41A     -0.528922    42A     -0.510937
      43A     -0.494154    44A     -0.485772    45A     -0.470274
      46A     -0.459974    47A     -0.444261    48A     -0.428989

  @DF-RHF Final Energy:  -683.60741065812647

   => Energetics <=

    Nuclear Repulsion Energy =            835.9925260914094451
    One-Electron Energy =               -2600.6276968601978297
    Two-Electron Energy =                1081.0277601106618022
    Total Energy =                       -683.6074106581265823
  Basis Set: (AUG-CC-PVTZ AUX)
    Blend: AUG-CC-PVTZ-RI
    Molecular point group: c1

    Geometry (in Angstrom), charge = 0, multiplicity = 1:

       Center              X                  Y                   Z               Mass
    ------------   -----------------  -----------------  -----------------  -----------------
         O           -0.856155078666     0.886829694431     0.270754319921    15.994914619570
         O           -0.318444078666    -1.653840305569     1.308036319921    15.994914619570
         O            2.095359921334    -1.962716305569    -0.182023680079    15.994914619570
         O            2.745874921334     0.774577694431    -0.443897680079    15.994914619570
         O            0.729689921334     2.527103694431     0.578133319921    15.994914619570
         O           -3.491079078666     0.538579694431    -0.457490680079    15.994914619570
         C           -0.244561078666    -1.405135305569    -0.091417680079    12.000000000000
         C            1.151298921334    -0.968392305569    -0.531516680079    12.000000000000
         C           -1.203986778666    -0.297660605569    -0.490202580079    12.000000000000
         C            1.498681921334     0.363106694431     0.109740319921    12.000000000000
         C            0.412810921334     1.386921694431    -0.164051680079    12.000000000000
         C           -2.671304078666    -0.570513305569    -0.110581680079    12.000000000000
         H           -0.498275078666    -2.349862305569    -0.585867680079     1.007825032230
         H            1.134751921334    -0.817065305569    -1.625963680079     1.007825032230
         H           -1.168396078666    -0.078042305569    -1.554429680079     1.007825032230
         H            1.577050921334     0.228578694431     1.197778319921     1.007825032230
         H            0.358972921334     1.604250694431    -1.245138680079     1.007825032230
         H           -2.736969078666    -0.810461305569     0.957443319921     1.007825032230
         H           -3.040865078666    -1.428953305569    -0.677902680079     1.007825032230
         H           -0.398198078666    -0.775885305569     1.727115319921     1.007825032230
         H            2.968409921334    -1.563534305569    -0.355936680079     1.007825032230
         H            3.001044921334     1.590858694431     0.023177319921     1.007825032230
         H            0.111289921334     3.235102694431     0.324275319921     1.007825032230
         H           -3.089502078666     1.301126694431    -0.004679680079     1.007825032230

  Basis Set: AUG-CC-PVTZ
    Blend: AUG-CC-PVTZ
  Basis Set: (AUG-CC-PVTZ AUX)
    Blend: AUG-CC-PVTZ-JKFIT
	 Reference Energy          =    -683.6074106581264687 [Eh]
	 Singles Energy            =      -0.0000000000000000 [Eh]
	 Same-Spin Energy          =      -0.6663978132302917 [Eh]
	 Opposite-Spin Energy      =      -2.0463919819425040 [Eh]
	 Correlation Energy        =      -2.7127897951727959 [Eh]
	 Total Energy              =    -686.3202004532993215 [Eh]

	 ================> DF-SCS-MP2 Energies <==================
	-----------------------------------------------------------
	 SCS Same-Spin Scale       =       0.3333333333333333 [-]
	 SCS Opposite-Spin Scale   =       1.2000000000000000 [-]
	 SCS Same-Spin Energy      =      -0.2221326044100972 [Eh]
	 SCS Opposite-Spin Energy  =      -2.4556703783310048 [Eh]
	 SCS Correlation Energy    =      -2.6778029827411021 [Eh]
	 SCS Total Energy          =    -686.2852136408675960 [Eh]
	-----------------------------------------------------------

  Dipole Moment: [D]
     X:     0.6750      Y:     3.1661      Z:    -1.1078     Total:     3.4216

*** Psi4 exiting successfully. Buy a developer a beer!
