                               Psi4 1.3.2 release

  ==> Input File <==

--------------------------------------------------------------------------
#psi4
#
memory 32 gb

molecule  {
0 1
  O       -0.8456270     0.8862080     0.2793150
  O       -0.3079160    -1.6544620     1.3165970
  O        2.1058880    -1.9633380    -0.1734630
  O        2.7564030     0.7739560    -0.4353370
  O        0.7402180     2.5264820     0.5866940
  O       -3.4805510     0.5379580    -0.4489300
  C       -0.2340330    -1.4057570    -0.0828570
  C        1.1618270    -0.9690140    -0.5229560
  C       -1.0839758    -0.2839961    -0.5434071
  C        1.5092100     0.3624850     0.1183010
  C        0.4233390     1.3863000    -0.1554910
  C       -2.6607760    -0.5711350    -0.1020210
  H       -0.4877470    -2.3504840    -0.5773070
  H        1.1452800    -0.8176870    -1.6174030
  H       -1.1578680    -0.0786640    -1.5458690
  H        1.5875790     0.2279570     1.2063390
  H        0.3695010     1.6036290    -1.2365780
  H       -2.7264410    -0.8110830     0.9660040
  H       -3.0303370    -1.4295750    -0.6693420
  H       -0.3876700    -0.7765070     1.7356760
  H        2.9789380    -1.5641560    -0.3473760
  H        3.0115730     1.5902370     0.0317380
  H        0.1218180     3.2344810     0.3328360
  H       -3.0789740     1.3005050     0.0038810
units angstrom
no_reorient  #important for SAPT in psi4, default
symmetry c1  #important for SAPT in psi4, default
}

set PROPERTIES_ORIGIN ["COM"]
properties('MP2/aug-cc-pvtz', properties = ['dipole'])
--------------------------------------------------------------------------

    Molecular point group: c1
  Charge       = 0
  Multiplicity = 1
  Basis Set: AUG-CC-PVTZ
    Blend: AUG-CC-PVTZ
  Basis Set: (AUG-CC-PVTZ AUX)
    Blend: AUG-CC-PVTZ-JKFIT

    Orbital Energies [Eh]
    ---------------------

    Doubly Occupied:

       1A    -20.600186     2A    -20.599380     3A    -20.586073
       4A    -20.568390     5A    -20.563083     6A    -20.562169
       7A    -11.361878     8A    -11.301473     9A    -11.299736
      10A    -11.295584    11A    -11.292894    12A    -11.288204
      13A     -1.450941    14A     -1.392168    15A     -1.389242
      16A     -1.366500    17A     -1.355555    18A     -1.352754
      19A     -1.081599    20A     -1.041737    21A     -0.935155
      22A     -0.888474    23A     -0.852326    24A     -0.815633
      25A     -0.759197    26A     -0.737088    27A     -0.727535
      28A     -0.717882    29A     -0.684396    30A     -0.667250
      31A     -0.658532    32A     -0.641464    33A     -0.621968
      34A     -0.610675    35A     -0.594702    36A     -0.581834
      37A     -0.575154    38A     -0.565850    39A     -0.544753
      40A     -0.539833    41A     -0.531322    42A     -0.509052
      43A     -0.495545    44A     -0.484650    45A     -0.468881
      46A     -0.459621    47A     -0.444077    48A     -0.413082

  @DF-RHF Final Energy:  -683.58310371301241

   => Energetics <=

    Nuclear Repulsion Energy =            836.3231183919892828
    One-Electron Energy =               -2601.2614936491759181
    Two-Electron Energy =                1081.3552715441742293
    Total Energy =                       -683.5831037130124059
  Basis Set: (AUG-CC-PVTZ AUX)
    Blend: AUG-CC-PVTZ-RI
    Molecular point group: c1

    Geometry (in Angstrom), charge = 0, multiplicity = 1:

       Center              X                  Y                   Z               Mass
    ------------   -----------------  -----------------  -----------------  -----------------
         O           -0.863451369233     0.885877616377     0.274870550366    15.994914619570
         O           -0.325740369233    -1.654792383623     1.312152550366    15.994914619570
         O            2.088063630767    -1.963668383623    -0.177907449634    15.994914619570
         O            2.738578630767     0.773625616377    -0.439781449634    15.994914619570
         O            0.722393630767     2.526151616377     0.582249550366    15.994914619570
         O           -3.498375369233     0.537627616377    -0.453374449634    15.994914619570
         C           -0.251857369233    -1.406087383623    -0.087301449634    12.000000000000
         C            1.144002630767    -0.969344383623    -0.527400449634    12.000000000000
         C           -1.101800169233    -0.284326483623    -0.547851549634    12.000000000000
         C            1.491385630767     0.362154616377     0.113856550366    12.000000000000
         C            0.405514630767     1.385969616377    -0.159935449634    12.000000000000
         C           -2.678600369233    -0.571465383623    -0.106465449634    12.000000000000
         H           -0.505571369233    -2.350814383623    -0.581751449634     1.007825032230
         H            1.127455630767    -0.818017383623    -1.621847449634     1.007825032230
         H           -1.175692369233    -0.078994383623    -1.550313449634     1.007825032230
         H            1.569754630767     0.227626616377     1.201894550366     1.007825032230
         H            0.351676630767     1.603298616377    -1.241022449634     1.007825032230
         H           -2.744265369233    -0.811413383623     0.961559550366     1.007825032230
         H           -3.048161369233    -1.429905383623    -0.673786449634     1.007825032230
         H           -0.405494369233    -0.776837383623     1.731231550366     1.007825032230
         H            2.961113630767    -1.564486383623    -0.351820449634     1.007825032230
         H            2.993748630767     1.589906616377     0.027293550366     1.007825032230
         H            0.103993630767     3.234150616377     0.328391550366     1.007825032230
         H           -3.096798369233     1.300174616377    -0.000563449634     1.007825032230

  Basis Set: AUG-CC-PVTZ
    Blend: AUG-CC-PVTZ
  Basis Set: (AUG-CC-PVTZ AUX)
    Blend: AUG-CC-PVTZ-JKFIT
	 Reference Energy          =    -683.5831037130124059 [Eh]
	 Singles Energy            =      -0.0000000000000000 [Eh]
	 Same-Spin Energy          =      -0.6676816932504662 [Eh]
	 Opposite-Spin Energy      =      -2.0493049273603665 [Eh]
	 Correlation Energy        =      -2.7169866206108328 [Eh]
	 Total Energy              =    -686.3000903336231886 [Eh]

	 ================> DF-SCS-MP2 Energies <==================
	-----------------------------------------------------------
	 SCS Same-Spin Scale       =       0.3333333333333333 [-]
	 SCS Opposite-Spin Scale   =       1.2000000000000000 [-]
	 SCS Same-Spin Energy      =      -0.2225605644168221 [Eh]
	 SCS Opposite-Spin Energy  =      -2.4591659128324399 [Eh]
	 SCS Correlation Energy    =      -2.6817264772492622 [Eh]
	 SCS Total Energy          =    -686.2648301902617050 [Eh]
	-----------------------------------------------------------

  Dipole Moment: [D]
     X:     0.7102      Y:     3.2228      Z:    -1.1275     Total:     3.4874

*** Psi4 exiting successfully. Buy a developer a beer!
