                               Psi4 1.3.2 release

  ==> Input File <==

--------------------------------------------------------------------------
#psi4
#
memory 32 gb

molecule  {
0 1
  O       -0.8456270     0.8862080     0.2793150
  O       -0.3079160    -1.6544620     1.3165970
  O        2.1058880    -1.9633380    -0.1734630
  O        2.7564030     0.7739560    -0.4353370
  O        0.7402180     2.5264820     0.5866940
  O       -3.4805510     0.5379580    -0.4489300
  C       -0.2375713    -1.3570920    -0.0735135
  C        1.1618270    -0.9690140    -0.5229560
  C       -1.2150640    -0.3000600    -0.4685780
  C        1.5092100     0.3624850     0.1183010
  C        0.4233390     1.3863000    -0.1554910
  C       -2.6607760    -0.5711350    -0.1020210
  H       -0.4877470    -2.3504840    -0.5773070
  H        1.1452800    -0.8176870    -1.6174030
  H       -1.1578680    -0.0786640    -1.5458690
  H        1.5875790     0.2279570     1.2063390
  H        0.3695010     1.6036290    -1.2365780
  H       -2.7264410    -0.8110830     0.9660040
  H       -3.0303370    -1.4295750    -0.6693420
  H       -0.3876700    -0.7765070     1.7356760
  H        2.9789380    -1.5641560    -0.3473760
  H        3.0115730     1.5902370     0.0317380
  H        0.1218180     3.2344810     0.3328360
  H       -3.0789740     1.3005050     0.0038810
units angstrom
no_reorient  #important for SAPT in psi4, default
symmetry c1  #important for SAPT in psi4, default
}

set PROPERTIES_ORIGIN ["COM"]
properties('MP2/aug-cc-pvtz', properties = ['dipole'])
--------------------------------------------------------------------------

    Molecular point group: c1
  Charge       = 0
  Multiplicity = 1
  Basis Set: AUG-CC-PVTZ
    Blend: AUG-CC-PVTZ
  Basis Set: (AUG-CC-PVTZ AUX)
    Blend: AUG-CC-PVTZ-JKFIT

    Orbital Energies [Eh]
    ---------------------

    Doubly Occupied:

       1A    -20.600321     2A    -20.594505     3A    -20.584967
       4A    -20.567039     5A    -20.565493     6A    -20.564990
       7A    -11.362734     8A    -11.304495     9A    -11.298407
      10A    -11.297877    11A    -11.295133    12A    -11.286934
      13A     -1.449089    14A     -1.391910    15A     -1.390514
      16A     -1.368591    17A     -1.357402    18A     -1.353100
      19A     -1.077299    20A     -1.054002    21A     -0.948786
      22A     -0.886652    23A     -0.850426    24A     -0.807952
      25A     -0.758123    26A     -0.738329    27A     -0.724209
      28A     -0.715054    29A     -0.690159    30A     -0.666747
      31A     -0.658182    32A     -0.638414    33A     -0.625816
      34A     -0.620070    35A     -0.599695    36A     -0.577387
      37A     -0.573468    38A     -0.563486    39A     -0.540025
      40A     -0.536658    41A     -0.526753    42A     -0.511715
      43A     -0.496594    44A     -0.485596    45A     -0.469761
      46A     -0.460604    47A     -0.442328    48A     -0.433900

  @DF-RHF Final Energy:  -683.60437065461429

   => Energetics <=

    Nuclear Repulsion Energy =            836.8466634563241087
    One-Electron Energy =               -2602.2786910663953677
    Two-Electron Energy =                1081.8276569554568596
    Total Energy =                       -683.6043706546142857
  Basis Set: (AUG-CC-PVTZ AUX)
    Blend: AUG-CC-PVTZ-RI
    Molecular point group: c1

    Geometry (in Angstrom), charge = 0, multiplicity = 1:

       Center              X                  Y                   Z               Mass
    ------------   -----------------  -----------------  -----------------  -----------------
         O           -0.854479428757     0.883704974820     0.269261019130    15.994914619570
         O           -0.316768428757    -1.656965025180     1.306543019130    15.994914619570
         O            2.097035571243    -1.965841025180    -0.183516980870    15.994914619570
         O            2.747550571243     0.771452974820    -0.445390980870    15.994914619570
         O            0.731365571243     2.523978974820     0.576640019130    15.994914619570
         O           -3.489403428757     0.535454974820    -0.458983980870    15.994914619570
         C           -0.246423728757    -1.359595025180    -0.083567480870    12.000000000000
         C            1.152974571243    -0.971517025180    -0.533009980870    12.000000000000
         C           -1.223916428757    -0.302563025180    -0.478631980870    12.000000000000
         C            1.500357571243     0.359981974820     0.108247019130    12.000000000000
         C            0.414486571243     1.383796974820    -0.165544980870    12.000000000000
         C           -2.669628428757    -0.573638025180    -0.112074980870    12.000000000000
         H           -0.496599428757    -2.352987025180    -0.587360980870     1.007825032230
         H            1.136427571243    -0.820190025180    -1.627456980870     1.007825032230
         H           -1.166720428757    -0.081167025180    -1.555922980870     1.007825032230
         H            1.578726571243     0.225453974820     1.196285019130     1.007825032230
         H            0.360648571243     1.601125974820    -1.246631980870     1.007825032230
         H           -2.735293428757    -0.813586025180     0.955950019130     1.007825032230
         H           -3.039189428757    -1.432078025180    -0.679395980870     1.007825032230
         H           -0.396522428757    -0.779010025180     1.725622019130     1.007825032230
         H            2.970085571243    -1.566659025180    -0.357429980870     1.007825032230
         H            3.002720571243     1.587733974820     0.021684019130     1.007825032230
         H            0.112965571243     3.231977974820     0.322782019130     1.007825032230
         H           -3.087826428757     1.298001974820    -0.006172980870     1.007825032230

  Basis Set: AUG-CC-PVTZ
    Blend: AUG-CC-PVTZ
  Basis Set: (AUG-CC-PVTZ AUX)
    Blend: AUG-CC-PVTZ-JKFIT
	 Reference Energy          =    -683.6043706546142857 [Eh]
	 Singles Energy            =      -0.0000000000000000 [Eh]
	 Same-Spin Energy          =      -0.6668952574226780 [Eh]
	 Opposite-Spin Energy      =      -2.0469412281514177 [Eh]
	 Correlation Energy        =      -2.7138364855740957 [Eh]
	 Total Energy              =    -686.3182071401884059 [Eh]

	 ================> DF-SCS-MP2 Energies <==================
	-----------------------------------------------------------
	 SCS Same-Spin Scale       =       0.3333333333333333 [-]
	 SCS Opposite-Spin Scale   =       1.2000000000000000 [-]
	 SCS Same-Spin Energy      =      -0.2222984191408927 [Eh]
	 SCS Opposite-Spin Energy  =      -2.4563294737817012 [Eh]
	 SCS Correlation Energy    =      -2.6786278929225937 [Eh]
	 SCS Total Energy          =    -686.2829985475368630 [Eh]
	-----------------------------------------------------------

  Dipole Moment: [D]
     X:     0.6436      Y:     3.2057      Z:    -1.0767     Total:     3.4424

*** Psi4 exiting successfully. Buy a developer a beer!
