                               Psi4 1.4a3.dev225

  ==> Input File <==

--------------------------------------------------------------------------
#psi4
#
memory 32 gb

molecule  {
0 1
  O       -0.8456650     0.8861440     0.2793920
  O       -0.3077290    -1.6543970     1.3165920
  O        2.1058490    -1.9633390    -0.1734930
  O        2.7563870     0.7740080    -0.4352340
  O        0.7401070     2.5265290     0.5865970
  O       -3.4805150     0.5379850    -0.4487790
  C       -0.2340150    -1.4057960    -0.0828600
  C        1.1618410    -0.9690160    -0.5229920
  C       -1.2150830    -0.3001220    -0.4685840
  C        1.5091960     0.3624950     0.1183140
  C        0.4232960     1.3863010    -0.1554910
  C       -2.6608140    -0.5711940    -0.1020800
  H       -0.4877200    -2.3505680    -0.5772350
  H        1.1449884    -0.8149419    -1.6372523
  H       -1.1578130    -0.0786490    -1.5458470
  H        1.5874550     0.2279380     1.2063560
  H        0.3693510     1.6035860    -1.2365730
  H       -2.7265370    -0.8113720     0.9658980
  H       -3.0304070    -1.4295080    -0.6695770
  H       -0.3878110    -0.7763940     1.7355090
  H        2.9789120    -1.5642300    -0.3474430
  H        3.0116250     1.5901680     0.0320000
  H        0.1223170     3.2347930     0.3320250
  H       -3.0786550     1.3004670     0.0038890
units angstrom
no_reorient  #important for SAPT in psi4, default
symmetry c1  #important for SAPT in psi4, default
}

set PROPERTIES_ORIGIN ["COM"]
properties('MP2/aug-cc-pvtz', properties = ['dipole'])
--------------------------------------------------------------------------

    Molecular point group: c1
  Charge       = 0
  Multiplicity = 1
  Basis Set: AUG-CC-PVTZ
    Blend: AUG-CC-PVTZ
  Basis Set: (AUG-CC-PVTZ AUX)
    Blend: AUG-CC-PVTZ-JKFIT

    Orbital Energies [Eh]
    ---------------------

    Doubly Occupied:

       1A    -20.600167     2A    -20.595025     3A    -20.585431
       4A    -20.565394     5A    -20.564567     6A    -20.564482
       7A    -11.362516     8A    -11.304688     9A    -11.299258
      10A    -11.297546    11A    -11.296873    12A    -11.285829
      13A     -1.448252    14A     -1.392057    15A     -1.389069
      16A     -1.367886    17A     -1.356910    18A     -1.352235
      19A     -1.072494    20A     -1.051494    21A     -0.948546
      22A     -0.887308    23A     -0.848190    24A     -0.807838
      25A     -0.759594    26A     -0.737099    27A     -0.721405
      28A     -0.713948    29A     -0.689551    30A     -0.665052
      31A     -0.658805    32A     -0.640008    33A     -0.623270
      34A     -0.618840    35A     -0.598589    36A     -0.580462
      37A     -0.575910    38A     -0.562787    39A     -0.540046
      40A     -0.534968    41A     -0.528356    42A     -0.511957
      43A     -0.495838    44A     -0.483364    45A     -0.470112
      46A     -0.459470    47A     -0.444342    48A     -0.430120

  @DF-RHF Final Energy:  -683.60766352629309

   => Energetics <=

    Nuclear Repulsion Energy =            835.8269409497227116
    One-Electron Energy =               -2600.2933096303599996
    Two-Electron Energy =                1080.8587051543443067
    Total Energy =                       -683.6076635262929813
  Basis Set: (AUG-CC-PVTZ AUX)
    Blend: AUG-CC-PVTZ-RI
    Molecular point group: c1

    Geometry (in Angstrom), charge = 0, multiplicity = 1:

       Center              X                  Y                   Z               Mass
    ------------   -----------------  -----------------  -----------------  -----------------
         O           -0.854749754282     0.886868282266     0.270065782057    15.994914619570
         O           -0.316813754282    -1.653672717734     1.307265782057    15.994914619570
         O            2.096764245718    -1.962614717734    -0.182819217943    15.994914619570
         O            2.747302245718     0.774732282266    -0.444560217943    15.994914619570
         O            0.731022245718     2.527253282266     0.577270782057    15.994914619570
         O           -3.489599754282     0.538709282266    -0.458105217943    15.994914619570
         C           -0.243099754282    -1.405071717734    -0.092186217943    12.000000000000
         C            1.152756245718    -0.968291717734    -0.532318217943    12.000000000000
         C           -1.224167754282    -0.299397717734    -0.477910217943    12.000000000000
         C            1.500111245718     0.363219282266     0.108987782057    12.000000000000
         C            0.414211245718     1.387025282266    -0.164817217943    12.000000000000
         C           -2.669898754282    -0.570469717734    -0.111406217943    12.000000000000
         H           -0.496804754282    -2.349843717734    -0.586561217943     1.007825032230
         H            1.135903645718    -0.814217617734    -1.646578517943     1.007825032230
         H           -1.166897754282    -0.077924717734    -1.555173217943     1.007825032230
         H            1.578370245718     0.228662282266     1.197029782057     1.007825032230
         H            0.360266245718     1.604310282266    -1.245899217943     1.007825032230
         H           -2.735621754282    -0.810647717734     0.956571782057     1.007825032230
         H           -3.039491754282    -1.428783717734    -0.678903217943     1.007825032230
         H           -0.396895754282    -0.775669717734     1.726182782057     1.007825032230
         H            2.969827245718    -1.563505717734    -0.356769217943     1.007825032230
         H            3.002540245718     1.590892282266     0.022673782057     1.007825032230
         H            0.113232245718     3.235517282266     0.322698782057     1.007825032230
         H           -3.087739754282     1.301191282266    -0.005437217943     1.007825032230

  Basis Set: AUG-CC-PVTZ
    Blend: AUG-CC-PVTZ
  Basis Set: (AUG-CC-PVTZ AUX)
    Blend: AUG-CC-PVTZ-JKFIT
	 Reference Energy          =    -683.6076635262930949 [Eh]
	 Singles Energy            =      -0.0000000000000000 [Eh]
	 Same-Spin Energy          =      -0.6663862023503955 [Eh]
	 Opposite-Spin Energy      =      -2.0463640007634343 [Eh]
	 Correlation Energy        =      -2.7127502031138295 [Eh]
	 Total Energy              =    -686.3204137294069369 [Eh]

	 ================> DF-SCS-MP2 Energies <==================
	-----------------------------------------------------------
	 SCS Same-Spin Scale       =       0.3333333333333333 [-]
	 SCS Opposite-Spin Scale   =       1.2000000000000000 [-]
	 SCS Same-Spin Energy      =      -0.2221287341167985 [Eh]
	 SCS Opposite-Spin Energy  =      -2.4556368009161211 [Eh]
	 SCS Correlation Energy    =      -2.6777655350329197 [Eh]
	 SCS Total Energy          =    -686.2854290613259991 [Eh]
	-----------------------------------------------------------

  Dipole Moment: [D]
     X:     0.6715      Y:     3.1510      Z:    -1.0864     Total:     3.4000

*** Psi4 exiting successfully. Buy a developer a beer!
