                               Psi4 1.4a3.dev225

  ==> Input File <==

--------------------------------------------------------------------------
#psi4
#
memory 32 gb

molecule  {
0 1
  O       -0.8456650     0.8861440     0.2793920
  O       -0.3077290    -1.6543970     1.3165920
  O        2.1058490    -1.9633390    -0.1734930
  O        2.7563870     0.7740080    -0.4352340
  O        0.7401070     2.5265290     0.5865970
  O       -3.4805150     0.5379850    -0.4487790
  C       -0.2340150    -1.4057960    -0.0828600
  C        1.1751847    -0.9830709    -0.5180518
  C       -1.2150830    -0.3001220    -0.4685840
  C        1.5091960     0.3624950     0.1183140
  C        0.4232960     1.3863010    -0.1554910
  C       -2.6608140    -0.5711940    -0.1020800
  H       -0.4877200    -2.3505680    -0.5772350
  H        1.1452880    -0.8176810    -1.6174430
  H       -1.1578130    -0.0786490    -1.5458470
  H        1.5874550     0.2279380     1.2063560
  H        0.3693510     1.6035860    -1.2365730
  H       -2.7265370    -0.8113720     0.9658980
  H       -3.0304070    -1.4295080    -0.6695770
  H       -0.3878110    -0.7763940     1.7355090
  H        2.9789120    -1.5642300    -0.3474430
  H        3.0116250     1.5901680     0.0320000
  H        0.1223170     3.2347930     0.3320250
  H       -3.0786550     1.3004670     0.0038890
units angstrom
no_reorient  #important for SAPT in psi4, default
symmetry c1  #important for SAPT in psi4, default
}

set PROPERTIES_ORIGIN ["COM"]
properties('MP2/aug-cc-pvtz', properties = ['dipole'])
--------------------------------------------------------------------------

    Molecular point group: c1
  Charge       = 0
  Multiplicity = 1
  Basis Set: AUG-CC-PVTZ
    Blend: AUG-CC-PVTZ
  Basis Set: (AUG-CC-PVTZ AUX)
    Blend: AUG-CC-PVTZ-JKFIT

    Orbital Energies [Eh]
    ---------------------

    Doubly Occupied:

       1A    -20.599977     2A    -20.594559     3A    -20.584985
       4A    -20.566327     5A    -20.564648     6A    -20.564365
       7A    -11.362315     8A    -11.304572     9A    -11.298388
      10A    -11.296504    11A    -11.295212    12A    -11.285729
      13A     -1.447860    14A     -1.394540    15A     -1.388978
      16A     -1.368694    17A     -1.359961    18A     -1.352665
      19A     -1.070315    20A     -1.050554    21A     -0.947994
      22A     -0.886759    23A     -0.848687    24A     -0.807808
      25A     -0.760430    26A     -0.736730    27A     -0.722655
      28A     -0.713807    29A     -0.689646    30A     -0.665975
      31A     -0.660217    32A     -0.640235    33A     -0.624936
      34A     -0.618973    35A     -0.598860    36A     -0.580912
      37A     -0.575826    38A     -0.563769    39A     -0.541080
      40A     -0.535260    41A     -0.528130    42A     -0.511512
      43A     -0.495700    44A     -0.482897    45A     -0.468880
      46A     -0.458358    47A     -0.443114    48A     -0.429436

  @DF-RHF Final Energy:  -683.60830647070168

   => Energetics <=

    Nuclear Repulsion Energy =            835.8304461603721620
    One-Electron Energy =               -2600.2980447579188876
    Two-Electron Energy =                1080.8592921268450482
    Total Energy =                       -683.6083064707017911
  Basis Set: (AUG-CC-PVTZ AUX)
    Blend: AUG-CC-PVTZ-RI
    Molecular point group: c1

    Geometry (in Angstrom), charge = 0, multiplicity = 1:

       Center              X                  Y                   Z               Mass
    ------------   -----------------  -----------------  -----------------  -----------------
         O           -0.855640698000     0.887820276646     0.269625677551    15.994914619570
         O           -0.317704698000    -1.652720723354     1.306825677551    15.994914619570
         O            2.095873302000    -1.961662723354    -0.183259322449    15.994914619570
         O            2.746411302000     0.775684276646    -0.445000322449    15.994914619570
         O            0.730131302000     2.528205276646     0.576830677551    15.994914619570
         O           -3.490490698000     0.539661276646    -0.458545322449    15.994914619570
         C           -0.243990698000    -1.404119723354    -0.092626322449    12.000000000000
         C            1.165209002000    -0.981394623354    -0.527818122449    12.000000000000
         C           -1.225058698000    -0.298445723354    -0.478350322449    12.000000000000
         C            1.499220302000     0.364171276646     0.108547677551    12.000000000000
         C            0.413320302000     1.387977276646    -0.165257322449    12.000000000000
         C           -2.670789698000    -0.569517723354    -0.111846322449    12.000000000000
         H           -0.497695698000    -2.348891723354    -0.587001322449     1.007825032230
         H            1.135312302000    -0.816004723354    -1.627209322449     1.007825032230
         H           -1.167788698000    -0.076972723354    -1.555613322449     1.007825032230
         H            1.577479302000     0.229614276646     1.196589677551     1.007825032230
         H            0.359375302000     1.605262276646    -1.246339322449     1.007825032230
         H           -2.736512698000    -0.809695723354     0.956131677551     1.007825032230
         H           -3.040382698000    -1.427831723354    -0.679343322449     1.007825032230
         H           -0.397786698000    -0.774717723354     1.725742677551     1.007825032230
         H            2.968936302000    -1.562553723354    -0.357209322449     1.007825032230
         H            3.001649302000     1.591844276646     0.022233677551     1.007825032230
         H            0.112341302000     3.236469276646     0.322258677551     1.007825032230
         H           -3.088630698000     1.302143276646    -0.005877322449     1.007825032230

  Basis Set: AUG-CC-PVTZ
    Blend: AUG-CC-PVTZ
  Basis Set: (AUG-CC-PVTZ AUX)
    Blend: AUG-CC-PVTZ-JKFIT
	 Reference Energy          =    -683.6083064707016774 [Eh]
	 Singles Energy            =      -0.0000000000000000 [Eh]
	 Same-Spin Energy          =      -0.6662520323451699 [Eh]
	 Opposite-Spin Energy      =      -2.0458439661916192 [Eh]
	 Correlation Energy        =      -2.7120959985367890 [Eh]
	 Total Energy              =    -686.3204024692385019 [Eh]

	 ================> DF-SCS-MP2 Energies <==================
	-----------------------------------------------------------
	 SCS Same-Spin Scale       =       0.3333333333333333 [-]
	 SCS Opposite-Spin Scale   =       1.2000000000000000 [-]
	 SCS Same-Spin Energy      =      -0.2220840107817233 [Eh]
	 SCS Opposite-Spin Energy  =      -2.4550127594299429 [Eh]
	 SCS Correlation Energy    =      -2.6770967702116661 [Eh]
	 SCS Total Energy          =    -686.2854032409132969 [Eh]
	-----------------------------------------------------------

  Dipole Moment: [D]
     X:     0.7185      Y:     3.1050      Z:    -1.0871     Total:     3.3673

*** Psi4 exiting successfully. Buy a developer a beer!
