                               Psi4 1.3.2 release

  ==> Input File <==

--------------------------------------------------------------------------
#psi4
#
memory 32 gb

molecule  {
0 1
  O       -0.8456270     0.8862080     0.2793150
  O       -0.3079160    -1.6544620     1.3165970
  O        2.1058880    -1.9633380    -0.1734630
  O        2.7564030     0.7739560    -0.4353370
  O        0.7402180     2.5264820     0.5866940
  O       -3.4805510     0.5379580    -0.4489300
  C       -0.2360937    -1.3835868    -0.0681993
  C        1.1618270    -0.9690140    -0.5229560
  C       -1.2150640    -0.3000600    -0.4685780
  C        1.5092100     0.3624850     0.1183010
  C        0.4233390     1.3863000    -0.1554910
  C       -2.6607760    -0.5711350    -0.1020210
  H       -0.4877470    -2.3504840    -0.5773070
  H        1.1452800    -0.8176870    -1.6174030
  H       -1.1578680    -0.0786640    -1.5458690
  H        1.5875790     0.2279570     1.2063390
  H        0.3695010     1.6036290    -1.2365780
  H       -2.7264410    -0.8110830     0.9660040
  H       -3.0303370    -1.4295750    -0.6693420
  H       -0.3876700    -0.7765070     1.7356760
  H        2.9789380    -1.5641560    -0.3473760
  H        3.0115730     1.5902370     0.0317380
  H        0.1218180     3.2344810     0.3328360
  H       -3.0789740     1.3005050     0.0038810
units angstrom
no_reorient  #important for SAPT in psi4, default
symmetry c1  #important for SAPT in psi4, default
}

set PROPERTIES_ORIGIN ["COM"]
properties('MP2/aug-cc-pvtz', properties = ['dipole'])
--------------------------------------------------------------------------

    Molecular point group: c1
  Charge       = 0
  Multiplicity = 1
  Basis Set: AUG-CC-PVTZ
    Blend: AUG-CC-PVTZ
  Basis Set: (AUG-CC-PVTZ AUX)
    Blend: AUG-CC-PVTZ-JKFIT

    Orbital Energies [Eh]
    ---------------------

    Doubly Occupied:

       1A    -20.600143     2A    -20.594578     3A    -20.585050
       4A    -20.567235     5A    -20.564876     6A    -20.564274
       7A    -11.362493     8A    -11.304371     9A    -11.298481
      10A    -11.297366    11A    -11.294634    12A    -11.286215
      13A     -1.448597    14A     -1.391971    15A     -1.390951
      16A     -1.369232    17A     -1.357054    18A     -1.353885
      19A     -1.073837    20A     -1.052383    21A     -0.948221
      22A     -0.886615    23A     -0.849016    24A     -0.808536
      25A     -0.759160    26A     -0.737942    27A     -0.723358
      28A     -0.714422    29A     -0.689999    30A     -0.666588
      31A     -0.658606    32A     -0.639203    33A     -0.624712
      34A     -0.619425    35A     -0.599197    36A     -0.578280
      37A     -0.576890    38A     -0.562966    39A     -0.540442
      40A     -0.536098    41A     -0.527368    42A     -0.512191
      43A     -0.496049    44A     -0.483954    45A     -0.469568
      46A     -0.460270    47A     -0.443154    48A     -0.431116

  @DF-RHF Final Energy:  -683.60717155257248

   => Energetics <=

    Nuclear Repulsion Energy =            836.4284928947811295
    One-Electron Energy =               -2601.4693842257752294
    Two-Electron Energy =                1081.4337197784216187
    Total Energy =                       -683.6071715525724812
  Basis Set: (AUG-CC-PVTZ AUX)
    Blend: AUG-CC-PVTZ-RI
    Molecular point group: c1

    Geometry (in Angstrom), charge = 0, multiplicity = 1:

       Center              X                  Y                   Z               Mass
    ------------   -----------------  -----------------  -----------------  -----------------
         O           -0.854577900746     0.885470673018     0.268906863848    15.994914619570
         O           -0.316866900746    -1.655199326982     1.306188863848    15.994914619570
         O            2.096937099254    -1.964075326982    -0.183871136152    15.994914619570
         O            2.747452099254     0.773218673018    -0.445745136152    15.994914619570
         O            0.731267099254     2.525744673018     0.576285863848    15.994914619570
         O           -3.489501900746     0.537220673018    -0.459338136152    15.994914619570
         C           -0.245044600746    -1.384324126982    -0.078607436152    12.000000000000
         C            1.152876099254    -0.969751326982    -0.533364136152    12.000000000000
         C           -1.224014900746    -0.300797326982    -0.478986136152    12.000000000000
         C            1.500259099254     0.361747673018     0.107892863848    12.000000000000
         C            0.414388099254     1.385562673018    -0.165899136152    12.000000000000
         C           -2.669726900746    -0.571872326982    -0.112429136152    12.000000000000
         H           -0.496697900746    -2.351221326982    -0.587715136152     1.007825032230
         H            1.136329099254    -0.818424326982    -1.627811136152     1.007825032230
         H           -1.166818900746    -0.079401326982    -1.556277136152     1.007825032230
         H            1.578628099254     0.227219673018     1.195930863848     1.007825032230
         H            0.360550099254     1.602891673018    -1.246986136152     1.007825032230
         H           -2.735391900746    -0.811820326982     0.955595863848     1.007825032230
         H           -3.039287900746    -1.430312326982    -0.679750136152     1.007825032230
         H           -0.396620900746    -0.777244326982     1.725267863848     1.007825032230
         H            2.969987099254    -1.564893326982    -0.357784136152     1.007825032230
         H            3.002622099254     1.589499673018     0.021329863848     1.007825032230
         H            0.112867099254     3.233743673018     0.322427863848     1.007825032230
         H           -3.087924900746     1.299767673018    -0.006527136152     1.007825032230

  Basis Set: AUG-CC-PVTZ
    Blend: AUG-CC-PVTZ
  Basis Set: (AUG-CC-PVTZ AUX)
    Blend: AUG-CC-PVTZ-JKFIT
	 Reference Energy          =    -683.6071715525724812 [Eh]
	 Singles Energy            =      -0.0000000000000000 [Eh]
	 Same-Spin Energy          =      -0.6665705620759363 [Eh]
	 Opposite-Spin Energy      =      -2.0463565836734672 [Eh]
	 Correlation Energy        =      -2.7129271457494033 [Eh]
	 Total Energy              =    -686.3200986983218854 [Eh]

	 ================> DF-SCS-MP2 Energies <==================
	-----------------------------------------------------------
	 SCS Same-Spin Scale       =       0.3333333333333333 [-]
	 SCS Opposite-Spin Scale   =       1.2000000000000000 [-]
	 SCS Same-Spin Energy      =      -0.2221901873586454 [Eh]
	 SCS Opposite-Spin Energy  =      -2.4556279004081607 [Eh]
	 SCS Correlation Energy    =      -2.6778180877668061 [Eh]
	 SCS Total Energy          =    -686.2849896403392904 [Eh]
	-----------------------------------------------------------

  Dipole Moment: [D]
     X:     0.6487      Y:     3.1730      Z:    -1.0596     Total:     3.4076

*** Psi4 exiting successfully. Buy a developer a beer!
