                               Psi4 1.3.2 release

  ==> Input File <==

--------------------------------------------------------------------------
#psi4
#
memory 32 gb

molecule  {
0 1
  O       -0.8456270     0.8862080     0.2793150
  O       -0.3079160    -1.6544620     1.3165970
  O        2.1058880    -1.9633380    -0.1734630
  O        2.7564030     0.7739560    -0.4353370
  O        0.7402180     2.5264820     0.5866940
  O       -3.4805510     0.5379580    -0.4489300
  C       -0.2340330    -1.4057570    -0.0828570
  C        1.1618270    -0.9690140    -0.5229560
  C       -1.2150640    -0.3000600    -0.4685780
  C        1.5092100     0.3624850     0.1183010
  C        0.4233390     1.3863000    -0.1554910
  C       -2.6607760    -0.5711350    -0.1020210
  H       -0.4877470    -2.3504840    -0.5773070
  H        1.1452800    -0.8176870    -1.6174030
  H       -1.1578680    -0.0786640    -1.5458690
  H        1.5875790     0.2279570     1.2063390
  H        0.3695010     1.6036290    -1.2365780
  H       -2.7264410    -0.8110830     0.9660040
  H       -3.0303370    -1.4295750    -0.6693420
  H       -0.3876700    -0.7765070     1.7356760
  H        2.7999622    -1.6459886    -0.3117237
  H        3.0115730     1.5902370     0.0317380
  H        0.1218180     3.2344810     0.3328360
  H       -3.0789740     1.3005050     0.0038810
units angstrom
no_reorient  #important for SAPT in psi4, default
symmetry c1  #important for SAPT in psi4, default
}

set PROPERTIES_ORIGIN ["COM"]
properties('MP2/aug-cc-pvtz', properties = ['dipole'])
--------------------------------------------------------------------------

    Molecular point group: c1
  Charge       = 0
  Multiplicity = 1
  Basis Set: AUG-CC-PVTZ
    Blend: AUG-CC-PVTZ
  Basis Set: (AUG-CC-PVTZ AUX)
    Blend: AUG-CC-PVTZ-JKFIT

    Orbital Energies [Eh]
    ---------------------

    Doubly Occupied:

       1A    -20.600777     2A    -20.595832     3A    -20.584607
       4A    -20.566426     5A    -20.565106     6A    -20.544911
       7A    -11.363430     8A    -11.305621     9A    -11.300323
      10A    -11.298509    11A    -11.297610    12A    -11.286564
      13A     -1.450046    14A     -1.431965    15A     -1.390064
      16A     -1.377328    17A     -1.366164    18A     -1.354348
      19A     -1.081475    20A     -1.053050    21A     -0.953760
      22A     -0.891279    23A     -0.856815    24A     -0.811135
      25A     -0.771619    26A     -0.742595    27A     -0.730250
      28A     -0.715074    29A     -0.692100    30A     -0.676422
      31A     -0.665139    32A     -0.643740    33A     -0.626642
      34A     -0.620038    35A     -0.600218    36A     -0.582298
      37A     -0.577401    38A     -0.564902    39A     -0.548083
      40A     -0.536408    41A     -0.529903    42A     -0.512776
      43A     -0.496627    44A     -0.485242    45A     -0.472196
      46A     -0.463911    47A     -0.447575    48A     -0.432327

  @DF-RHF Final Energy:  -683.56332472029248

   => Energetics <=

    Nuclear Repulsion Energy =            837.3914603258815532
    One-Electron Energy =               -2602.9883034591944124
    Two-Electron Energy =                1082.0335184130203743
    Total Energy =                       -683.5633247202924849
  Basis Set: (AUG-CC-PVTZ AUX)
    Blend: AUG-CC-PVTZ-RI
    Molecular point group: c1

    Geometry (in Angstrom), charge = 0, multiplicity = 1:

       Center              X                  Y                   Z               Mass
    ------------   -----------------  -----------------  -----------------  -----------------
         O           -0.853713494644     0.887406187763     0.269684151897    15.994914619570
         O           -0.316002494644    -1.653263812237     1.306966151897    15.994914619570
         O            2.097801505356    -1.962139812237    -0.183093848103    15.994914619570
         O            2.748316505356     0.775154187763    -0.444967848103    15.994914619570
         O            0.732131505356     2.527680187763     0.577063151897    15.994914619570
         O           -3.488637494644     0.539156187763    -0.458560848103    15.994914619570
         C           -0.242119494644    -1.404558812237    -0.092487848103    12.000000000000
         C            1.153740505356    -0.967815812237    -0.532586848103    12.000000000000
         C           -1.223150494644    -0.298861812237    -0.478208848103    12.000000000000
         C            1.501123505356     0.363683187763     0.108670151897    12.000000000000
         C            0.415252505356     1.387498187763    -0.165121848103    12.000000000000
         C           -2.668862494644    -0.569936812237    -0.111651848103    12.000000000000
         H           -0.495833494644    -2.349285812237    -0.586937848103     1.007825032230
         H            1.137193505356    -0.816488812237    -1.627033848103     1.007825032230
         H           -1.165954494644    -0.077465812237    -1.555499848103     1.007825032230
         H            1.579492505356     0.229155187763     1.196708151897     1.007825032230
         H            0.361414505356     1.604827187763    -1.246208848103     1.007825032230
         H           -2.734527494644    -0.809884812237     0.956373151897     1.007825032230
         H           -3.038423494644    -1.428376812237    -0.678972848103     1.007825032230
         H           -0.395756494644    -0.775308812237     1.726045151897     1.007825032230
         H            2.791875705356    -1.644790412237    -0.321354548103     1.007825032230
         H            3.003486505356     1.591435187763     0.022107151897     1.007825032230
         H            0.113731505356     3.235679187763     0.323205151897     1.007825032230
         H           -3.087060494644     1.301703187763    -0.005749848103     1.007825032230

  Basis Set: AUG-CC-PVTZ
    Blend: AUG-CC-PVTZ
  Basis Set: (AUG-CC-PVTZ AUX)
    Blend: AUG-CC-PVTZ-JKFIT
	 Reference Energy          =    -683.5633247202924849 [Eh]
	 Singles Energy            =      -0.0000000000000000 [Eh]
	 Same-Spin Energy          =      -0.6638470836177464 [Eh]
	 Opposite-Spin Energy      =      -2.0405349214056407 [Eh]
	 Correlation Energy        =      -2.7043820050233869 [Eh]
	 Total Energy              =    -686.2677067253158611 [Eh]

	 ================> DF-SCS-MP2 Energies <==================
	-----------------------------------------------------------
	 SCS Same-Spin Scale       =       0.3333333333333333 [-]
	 SCS Opposite-Spin Scale   =       1.2000000000000000 [-]
	 SCS Same-Spin Energy      =      -0.2212823612059154 [Eh]
	 SCS Opposite-Spin Energy  =      -2.4486419056867690 [Eh]
	 SCS Correlation Energy    =      -2.6699242668926844 [Eh]
	 SCS Total Energy          =    -686.2332489871852204 [Eh]
	-----------------------------------------------------------

  Dipole Moment: [D]
     X:     0.4520      Y:     3.1238      Z:    -1.0804     Total:     3.3361

*** Psi4 exiting successfully. Buy a developer a beer!
