                               Psi4 1.3.2 release

  ==> Input File <==

--------------------------------------------------------------------------
#psi4
#
memory 32 gb

molecule  {
0 1
  O       -0.8456270     0.8862080     0.2793150
  O       -0.2693675    -1.5118758     1.3360421
  O        2.1058880    -1.9633380    -0.1734630
  O        2.7564030     0.7739560    -0.4353370
  O        0.7402180     2.5264820     0.5866940
  O       -3.4805510     0.5379580    -0.4489300
  C       -0.2340330    -1.4057570    -0.0828570
  C        1.1618270    -0.9690140    -0.5229560
  C       -1.2150640    -0.3000600    -0.4685780
  C        1.5092100     0.3624850     0.1183010
  C        0.4233390     1.3863000    -0.1554910
  C       -2.6607760    -0.5711350    -0.1020210
  H       -0.4877470    -2.3504840    -0.5773070
  H        1.1452800    -0.8176870    -1.6174030
  H       -1.1578680    -0.0786640    -1.5458690
  H        1.5875790     0.2279570     1.2063390
  H        0.3695010     1.6036290    -1.2365780
  H       -2.7264410    -0.8110830     0.9660040
  H       -3.0303370    -1.4295750    -0.6693420
  H       -0.3876700    -0.7765070     1.7356760
  H        2.9789380    -1.5641560    -0.3473760
  H        3.0115730     1.5902370     0.0317380
  H        0.1218180     3.2344810     0.3328360
  H       -3.0789740     1.3005050     0.0038810
units angstrom
no_reorient  #important for SAPT in psi4, default
symmetry c1  #important for SAPT in psi4, default
}

set PROPERTIES_ORIGIN ["COM"]
properties('MP2/aug-cc-pvtz', properties = ['dipole'])
--------------------------------------------------------------------------

    Molecular point group: c1
  Charge       = 0
  Multiplicity = 1
  Basis Set: AUG-CC-PVTZ
    Blend: AUG-CC-PVTZ
  Basis Set: (AUG-CC-PVTZ AUX)
    Blend: AUG-CC-PVTZ-JKFIT

    Orbital Energies [Eh]
    ---------------------

    Doubly Occupied:

       1A    -20.598823     2A    -20.592860     3A    -20.583912
       4A    -20.564470     5A    -20.563771     6A    -20.547505
       7A    -11.360911     8A    -11.304144     9A    -11.301589
      10A    -11.296940    11A    -11.293944    12A    -11.286138
      13A     -1.448082    14A     -1.404504    15A     -1.390628
      16A     -1.373405    17A     -1.358519    18A     -1.354977
      19A     -1.077635    20A     -1.051340    21A     -0.951745
      22A     -0.890752    23A     -0.849004    24A     -0.815629
      25A     -0.764037    26A     -0.739353    27A     -0.724170
      28A     -0.714645    29A     -0.690501    30A     -0.671112
      31A     -0.663364    32A     -0.643360    33A     -0.624468
      34A     -0.617739    35A     -0.599184    36A     -0.589328
      37A     -0.572327    38A     -0.561999    39A     -0.539890
      40A     -0.532007    41A     -0.528505    42A     -0.511809
      43A     -0.495062    44A     -0.480491    45A     -0.470528
      46A     -0.458641    47A     -0.444430    48A     -0.430036

  @DF-RHF Final Energy:  -683.59348170588430

   => Energetics <=

    Nuclear Repulsion Energy =            838.7937157200112779
    One-Electron Energy =               -2606.1179770968396952
    Two-Electron Energy =                1083.7307796709442300
    Total Energy =                       -683.5934817058841872
  Basis Set: (AUG-CC-PVTZ AUX)
    Blend: AUG-CC-PVTZ-RI
    Molecular point group: c1

    Geometry (in Angstrom), charge = 0, multiplicity = 1:

       Center              X                  Y                   Z               Mass
    ------------   -----------------  -----------------  -----------------  -----------------
         O           -0.858139470774     0.874282325869     0.268156404159    15.994914619570
         O           -0.281879970774    -1.523801474131     1.324883504159    15.994914619570
         O            2.093375529226    -1.975263674131    -0.184621595841    15.994914619570
         O            2.743890529226     0.762030325869    -0.446495595841    15.994914619570
         O            0.727705529226     2.514556325869     0.575535404159    15.994914619570
         O           -3.493063470774     0.526032325869    -0.460088595841    15.994914619570
         C           -0.246545470774    -1.417682674131    -0.094015595841    12.000000000000
         C            1.149314529226    -0.980939674131    -0.534114595841    12.000000000000
         C           -1.227576470774    -0.311985674131    -0.479736595841    12.000000000000
         C            1.496697529226     0.350559325869     0.107142404159    12.000000000000
         C            0.410826529226     1.374374325869    -0.166649595841    12.000000000000
         C           -2.673288470774    -0.583060674131    -0.113179595841    12.000000000000
         H           -0.500259470774    -2.362409674131    -0.588465595841     1.007825032230
         H            1.132767529226    -0.829612674131    -1.628561595841     1.007825032230
         H           -1.170380470774    -0.090589674131    -1.557027595841     1.007825032230
         H            1.575066529226     0.216031325869     1.195180404159     1.007825032230
         H            0.356988529226     1.591703325869    -1.247736595841     1.007825032230
         H           -2.738953470774    -0.823008674131     0.954845404159     1.007825032230
         H           -3.042849470774    -1.441500674131    -0.680500595841     1.007825032230
         H           -0.400182470774    -0.788432674131     1.724517404159     1.007825032230
         H            2.966425529226    -1.576081674131    -0.358534595841     1.007825032230
         H            2.999060529226     1.578311325869     0.020579404159     1.007825032230
         H            0.109305529226     3.222555325869     0.321677404159     1.007825032230
         H           -3.091486470774     1.288579325869    -0.007277595841     1.007825032230

  Basis Set: AUG-CC-PVTZ
    Blend: AUG-CC-PVTZ
  Basis Set: (AUG-CC-PVTZ AUX)
    Blend: AUG-CC-PVTZ-JKFIT
	 Reference Energy          =    -683.5934817058843009 [Eh]
	 Singles Energy            =      -0.0000000000000000 [Eh]
	 Same-Spin Energy          =      -0.6645713454816131 [Eh]
	 Opposite-Spin Energy      =      -2.0419950919890080 [Eh]
	 Correlation Energy        =      -2.7065664374706211 [Eh]
	 Total Energy              =    -686.3000481433549567 [Eh]

	 ================> DF-SCS-MP2 Energies <==================
	-----------------------------------------------------------
	 SCS Same-Spin Scale       =       0.3333333333333333 [-]
	 SCS Opposite-Spin Scale   =       1.2000000000000000 [-]
	 SCS Same-Spin Energy      =      -0.2215237818272044 [Eh]
	 SCS Opposite-Spin Energy  =      -2.4503941103868097 [Eh]
	 SCS Correlation Energy    =      -2.6719178922140139 [Eh]
	 SCS Total Energy          =    -686.2653995980982700 [Eh]
	-----------------------------------------------------------

  Dipole Moment: [D]
     X:     0.5546      Y:     2.9279      Z:    -1.1426     Total:     3.1915

*** Psi4 exiting successfully. Buy a developer a beer!
