                               Psi4 1.3.2 release

  ==> Input File <==

--------------------------------------------------------------------------
#psi4
#
memory 32 gb

molecule  {
0 1
  O       -0.8923663     0.8874567     0.2987092
  O       -0.3079160    -1.6544620     1.3165970
  O        2.1058880    -1.9633380    -0.1734630
  O        2.7564030     0.7739560    -0.4353370
  O        0.7402180     2.5264820     0.5866940
  O       -3.4805510     0.5379580    -0.4489300
  C       -0.2340330    -1.4057570    -0.0828570
  C        1.1618270    -0.9690140    -0.5229560
  C       -1.2150640    -0.3000600    -0.4685780
  C        1.5092100     0.3624850     0.1183010
  C        0.4233390     1.3863000    -0.1554910
  C       -2.6607760    -0.5711350    -0.1020210
  H       -0.4877470    -2.3504840    -0.5773070
  H        1.1452800    -0.8176870    -1.6174030
  H       -1.1578680    -0.0786640    -1.5458690
  H        1.5875790     0.2279570     1.2063390
  H        0.3695010     1.6036290    -1.2365780
  H       -2.7264410    -0.8110830     0.9660040
  H       -3.0303370    -1.4295750    -0.6693420
  H       -0.3876700    -0.7765070     1.7356760
  H        2.9789380    -1.5641560    -0.3473760
  H        3.0115730     1.5902370     0.0317380
  H        0.1218180     3.2344810     0.3328360
  H       -3.0789740     1.3005050     0.0038810
units angstrom
no_reorient  #important for SAPT in psi4, default
symmetry c1  #important for SAPT in psi4, default
}

set PROPERTIES_ORIGIN ["COM"]
properties('MP2/aug-cc-pvtz', properties = ['dipole'])
--------------------------------------------------------------------------

    Molecular point group: c1
  Charge       = 0
  Multiplicity = 1
  Basis Set: AUG-CC-PVTZ
    Blend: AUG-CC-PVTZ
  Basis Set: (AUG-CC-PVTZ AUX)
    Blend: AUG-CC-PVTZ-JKFIT

    Orbital Energies [Eh]
    ---------------------

    Doubly Occupied:

       1A    -20.602741     2A    -20.596146     3A    -20.588086
       4A    -20.564803     5A    -20.564759     6A    -20.561966
       7A    -11.367379     8A    -11.302202     9A    -11.302101
      10A    -11.296905    11A    -11.295649    12A    -11.282873
      13A     -1.441780    14A     -1.393184    15A     -1.388656
      16A     -1.367470    17A     -1.356163    18A     -1.348461
      19A     -1.073851    20A     -1.048348    21A     -0.948756
      22A     -0.888682    23A     -0.844180    24A     -0.808495
      25A     -0.759803    26A     -0.735956    27A     -0.721514
      28A     -0.712574    29A     -0.686623    30A     -0.666470
      31A     -0.659439    32A     -0.638508    33A     -0.623087
      34A     -0.616602    35A     -0.597865    36A     -0.581287
      37A     -0.574449    38A     -0.563652    39A     -0.539189
      40A     -0.535070    41A     -0.529095    42A     -0.512337
      43A     -0.491947    44A     -0.483280    45A     -0.470328
      46A     -0.461501    47A     -0.445894    48A     -0.430300

  @DF-RHF Final Energy:  -683.60365784164946

   => Energetics <=

    Nuclear Repulsion Energy =            834.8592097281170936
    One-Electron Energy =               -2598.3849218072878102
    Two-Electron Energy =                1079.9220542375212517
    Total Energy =                       -683.6036578416494649
  Basis Set: (AUG-CC-PVTZ AUX)
    Blend: AUG-CC-PVTZ-RI
    Molecular point group: c1

    Geometry (in Angstrom), charge = 0, multiplicity = 1:

       Center              X                  Y                   Z               Mass
    ------------   -----------------  -----------------  -----------------  -----------------
         O           -0.897302710513     0.888085944828     0.287555125573    15.994914619570
         O           -0.312852410513    -1.653832755172     1.305442925573    15.994914619570
         O            2.100951589487    -1.962708755172    -0.184617074427    15.994914619570
         O            2.751466589487     0.774585244828    -0.446491074427    15.994914619570
         O            0.735281589487     2.527111244828     0.575539925573    15.994914619570
         O           -3.485487410513     0.538587244828    -0.460084074427    15.994914619570
         C           -0.238969410513    -1.405127755172    -0.094011074427    12.000000000000
         C            1.156890589487    -0.968384755172    -0.534110074427    12.000000000000
         C           -1.220000410513    -0.299430755172    -0.479732074427    12.000000000000
         C            1.504273589487     0.363114244828     0.107146925573    12.000000000000
         C            0.418402589487     1.386929244828    -0.166645074427    12.000000000000
         C           -2.665712410513    -0.570505755172    -0.113175074427    12.000000000000
         H           -0.492683410513    -2.349854755172    -0.588461074427     1.007825032230
         H            1.140343589487    -0.817057755172    -1.628557074427     1.007825032230
         H           -1.162804410513    -0.078034755172    -1.557023074427     1.007825032230
         H            1.582642589487     0.228586244828     1.195184925573     1.007825032230
         H            0.364564589487     1.604258244828    -1.247732074427     1.007825032230
         H           -2.731377410513    -0.810453755172     0.954849925573     1.007825032230
         H           -3.035273410513    -1.428945755172    -0.680496074427     1.007825032230
         H           -0.392606410513    -0.775877755172     1.724521925573     1.007825032230
         H            2.974001589487    -1.563526755172    -0.358530074427     1.007825032230
         H            3.006636589487     1.590866244828     0.020583925573     1.007825032230
         H            0.116881589487     3.235110244828     0.321681925573     1.007825032230
         H           -3.083910410513     1.301134244828    -0.007273074427     1.007825032230

  Basis Set: AUG-CC-PVTZ
    Blend: AUG-CC-PVTZ
  Basis Set: (AUG-CC-PVTZ AUX)
    Blend: AUG-CC-PVTZ-JKFIT
	 Reference Energy          =    -683.6036578416494649 [Eh]
	 Singles Energy            =      -0.0000000000000000 [Eh]
	 Same-Spin Energy          =      -0.6669328751312289 [Eh]
	 Opposite-Spin Energy      =      -2.0480600443207910 [Eh]
	 Correlation Energy        =      -2.7149929194520199 [Eh]
	 Total Energy              =    -686.3186507611014804 [Eh]

	 ================> DF-SCS-MP2 Energies <==================
	-----------------------------------------------------------
	 SCS Same-Spin Scale       =       0.3333333333333333 [-]
	 SCS Opposite-Spin Scale   =       1.2000000000000000 [-]
	 SCS Same-Spin Energy      =      -0.2223109583770763 [Eh]
	 SCS Opposite-Spin Energy  =      -2.4576720531849490 [Eh]
	 SCS Correlation Energy    =      -2.6799830115620251 [Eh]
	 SCS Total Energy          =    -686.2836408532115229 [Eh]
	-----------------------------------------------------------

  Dipole Moment: [D]
     X:     0.8985      Y:     3.2346      Z:    -1.1299     Total:     3.5421

*** Psi4 exiting successfully. Buy a developer a beer!
