                               Psi4 1.3.2 release

  ==> Input File <==

--------------------------------------------------------------------------
#psi4
#
memory 32 gb

molecule  {
0 1
  O       -0.8456270     0.8862080     0.2793150
  O       -0.3079160    -1.6544620     1.3165970
  O        2.1058880    -1.9633380    -0.1734630
  O        2.7564030     0.7739560    -0.4353370
  O        0.7402180     2.5264820     0.5866940
  O       -3.4805510     0.5379580    -0.4489300
  C       -0.2215463    -1.4930404    -0.1427831
  C        1.1618270    -0.9690140    -0.5229560
  C       -1.2150640    -0.3000600    -0.4685780
  C        1.5092100     0.3624850     0.1183010
  C        0.4233390     1.3863000    -0.1554910
  C       -2.6607760    -0.5711350    -0.1020210
  H       -0.4877470    -2.3504840    -0.5773070
  H        1.1452800    -0.8176870    -1.6174030
  H       -1.1578680    -0.0786640    -1.5458690
  H        1.5875790     0.2279570     1.2063390
  H        0.3695010     1.6036290    -1.2365780
  H       -2.7264410    -0.8110830     0.9660040
  H       -3.0303370    -1.4295750    -0.6693420
  H       -0.3876700    -0.7765070     1.7356760
  H        2.9789380    -1.5641560    -0.3473760
  H        3.0115730     1.5902370     0.0317380
  H        0.1218180     3.2344810     0.3328360
  H       -3.0789740     1.3005050     0.0038810
units angstrom
no_reorient  #important for SAPT in psi4, default
symmetry c1  #important for SAPT in psi4, default
}

set PROPERTIES_ORIGIN ["COM"]
properties('MP2/aug-cc-pvtz', properties = ['dipole'])
--------------------------------------------------------------------------

    Molecular point group: c1
  Charge       = 0
  Multiplicity = 1
  Basis Set: AUG-CC-PVTZ
    Blend: AUG-CC-PVTZ
  Basis Set: (AUG-CC-PVTZ AUX)
    Blend: AUG-CC-PVTZ-JKFIT

    Orbital Energies [Eh]
    ---------------------

    Doubly Occupied:

       1A    -20.600460     2A    -20.597077     3A    -20.587085
       4A    -20.563730     5A    -20.563135     6A    -20.557186
       7A    -11.362933     8A    -11.306980     9A    -11.301453
      10A    -11.297521    11A    -11.296872    12A    -11.284526
      13A     -1.447565    14A     -1.393097    15A     -1.383939
      16A     -1.364558    17A     -1.355868    18A     -1.339412
      19A     -1.070631    20A     -1.048494    21A     -0.951941
      22A     -0.892665    23A     -0.846223    24A     -0.811459
      25A     -0.762989    26A     -0.735172    27A     -0.717442
      28A     -0.712507    29A     -0.688575    30A     -0.666393
      31A     -0.657164    32A     -0.642953    33A     -0.619080
      34A     -0.615707    35A     -0.596734    36A     -0.596105
      37A     -0.570451    38A     -0.562859    39A     -0.538189
      40A     -0.531266    41A     -0.529403    42A     -0.510451
      43A     -0.495313    44A     -0.480645    45A     -0.470051
      46A     -0.458533    47A     -0.447516    48A     -0.424629

  @DF-RHF Final Energy:  -683.59409229078653

   => Energetics <=

    Nuclear Repulsion Energy =            833.9927080539948747
    One-Electron Energy =               -2596.6637212919094964
    Two-Electron Energy =                1079.0769209471282011
    Total Energy =                       -683.5940922907864206
  Basis Set: (AUG-CC-PVTZ AUX)
    Blend: AUG-CC-PVTZ-RI
    Molecular point group: c1

    Geometry (in Angstrom), charge = 0, multiplicity = 1:

       Center              X                  Y                   Z               Mass
    ------------   -----------------  -----------------  -----------------  -----------------
         O           -0.855547386002     0.892765010939     0.273877366788    15.994914619570
         O           -0.317836386002    -1.647904989061     1.311159366788    15.994914619570
         O            2.095967613998    -1.956780989061    -0.178900633212    15.994914619570
         O            2.746482613998     0.780513010939    -0.440774633212    15.994914619570
         O            0.730297613998     2.533039010939     0.581256366788    15.994914619570
         O           -3.490471386002     0.544515010939    -0.454367633212    15.994914619570
         C           -0.231466686002    -1.486483389061    -0.148220733212    12.000000000000
         C            1.151906613998    -0.962456989061    -0.528393633212    12.000000000000
         C           -1.224984386002    -0.293502989061    -0.474015633212    12.000000000000
         C            1.499289613998     0.369042010939     0.112863366788    12.000000000000
         C            0.413418613998     1.392857010939    -0.160928633212    12.000000000000
         C           -2.670696386002    -0.564577989061    -0.107458633212    12.000000000000
         H           -0.497667386002    -2.343926989061    -0.582744633212     1.007825032230
         H            1.135359613998    -0.811129989061    -1.622840633212     1.007825032230
         H           -1.167788386002    -0.072106989061    -1.551306633212     1.007825032230
         H            1.577658613998     0.234514010939     1.200901366788     1.007825032230
         H            0.359580613998     1.610186010939    -1.242015633212     1.007825032230
         H           -2.736361386002    -0.804525989061     0.960566366788     1.007825032230
         H           -3.040257386002    -1.423017989061    -0.674779633212     1.007825032230
         H           -0.397590386002    -0.769949989061     1.730238366788     1.007825032230
         H            2.969017613998    -1.557598989061    -0.352813633212     1.007825032230
         H            3.001652613998     1.596794010939     0.026300366788     1.007825032230
         H            0.111897613998     3.241038010939     0.327398366788     1.007825032230
         H           -3.088894386002     1.307062010939    -0.001556633212     1.007825032230

  Basis Set: AUG-CC-PVTZ
    Blend: AUG-CC-PVTZ
  Basis Set: (AUG-CC-PVTZ AUX)
    Blend: AUG-CC-PVTZ-JKFIT
	 Reference Energy          =    -683.5940922907865342 [Eh]
	 Singles Energy            =      -0.0000000000000000 [Eh]
	 Same-Spin Energy          =      -0.6658890739179362 [Eh]
	 Opposite-Spin Energy      =      -2.0466687665896970 [Eh]
	 Correlation Energy        =      -2.7125578405076332 [Eh]
	 Total Energy              =    -686.3066501312941909 [Eh]

	 ================> DF-SCS-MP2 Energies <==================
	-----------------------------------------------------------
	 SCS Same-Spin Scale       =       0.3333333333333333 [-]
	 SCS Opposite-Spin Scale   =       1.2000000000000000 [-]
	 SCS Same-Spin Energy      =      -0.2219630246393121 [Eh]
	 SCS Opposite-Spin Energy  =      -2.4560025199076363 [Eh]
	 SCS Correlation Energy    =      -2.6779655445469484 [Eh]
	 SCS Total Energy          =    -686.2720578353334986 [Eh]
	-----------------------------------------------------------

  Dipole Moment: [D]
     X:     0.7400      Y:     3.1190      Z:    -1.2502     Total:     3.4407

*** Psi4 exiting successfully. Buy a developer a beer!
