                               Psi4 1.3.2 release

  ==> Input File <==

--------------------------------------------------------------------------
#psi4
#
memory 32 gb

molecule  {
0 1
  O       -0.8456270     0.8862080     0.2793150
  O       -0.3079160    -1.6544620     1.3165970
  O        2.1058880    -1.9633380    -0.1734630
  O        2.7564030     0.7739560    -0.4353370
  O        0.7402180     2.5264820     0.5866940
  O       -3.4805510     0.5379580    -0.4489300
  C       -0.2340330    -1.4057570    -0.0828570
  C        1.1618270    -0.9690140    -0.5229560
  C       -1.3002944    -0.3035537    -0.4140853
  C        1.5092100     0.3624850     0.1183010
  C        0.4233390     1.3863000    -0.1554910
  C       -2.6607760    -0.5711350    -0.1020210
  H       -0.4877470    -2.3504840    -0.5773070
  H        1.1452800    -0.8176870    -1.6174030
  H       -1.1578680    -0.0786640    -1.5458690
  H        1.5875790     0.2279570     1.2063390
  H        0.3695010     1.6036290    -1.2365780
  H       -2.7264410    -0.8110830     0.9660040
  H       -3.0303370    -1.4295750    -0.6693420
  H       -0.3876700    -0.7765070     1.7356760
  H        2.9789380    -1.5641560    -0.3473760
  H        3.0115730     1.5902370     0.0317380
  H        0.1218180     3.2344810     0.3328360
  H       -3.0789740     1.3005050     0.0038810
units angstrom
no_reorient  #important for SAPT in psi4, default
symmetry c1  #important for SAPT in psi4, default
}

set PROPERTIES_ORIGIN ["COM"]
properties('MP2/aug-cc-pvtz', properties = ['dipole'])
--------------------------------------------------------------------------

    Molecular point group: c1
  Charge       = 0
  Multiplicity = 1
  Basis Set: AUG-CC-PVTZ
    Blend: AUG-CC-PVTZ
  Basis Set: (AUG-CC-PVTZ AUX)
    Blend: AUG-CC-PVTZ-JKFIT

    Orbital Energies [Eh]
    ---------------------

    Doubly Occupied:

       1A    -20.600838     2A    -20.592301     3A    -20.585171
       4A    -20.565823     5A    -20.565287     6A    -20.563274
       7A    -11.363658     8A    -11.308915     9A    -11.299286
      10A    -11.298754    11A    -11.296250    12A    -11.283176
      13A     -1.447074    14A     -1.392149    15A     -1.389473
      16A     -1.369471    17A     -1.357517    18A     -1.351569
      19A     -1.070227    20A     -1.061917    21A     -0.957980
      22A     -0.886515    23A     -0.845819    24A     -0.804522
      25A     -0.760812    26A     -0.737928    27A     -0.719899
      28A     -0.712061    29A     -0.695857    30A     -0.665759
      31A     -0.659172    32A     -0.640739    33A     -0.624792
      34A     -0.622219    35A     -0.601860    36A     -0.579815
      37A     -0.576396    38A     -0.560682    39A     -0.540486
      40A     -0.532385    41A     -0.527814    42A     -0.515082
      43A     -0.499226    44A     -0.474756    45A     -0.468062
      46A     -0.459721    47A     -0.446267    48A     -0.428175

  @DF-RHF Final Energy:  -683.59622338900715

   => Energetics <=

    Nuclear Repulsion Energy =            835.8025651184813114
    One-Electron Energy =               -2600.1837256546718891
    Two-Electron Energy =                1080.7849371471834274
    Total Energy =                       -683.5962233890072639
  Basis Set: (AUG-CC-PVTZ AUX)
    Blend: AUG-CC-PVTZ-RI
    Molecular point group: c1

    Geometry (in Angstrom), charge = 0, multiplicity = 1:

       Center              X                  Y                   Z               Mass
    ------------   -----------------  -----------------  -----------------  -----------------
         O           -0.849035205973     0.887180997384     0.266252132061    15.994914619570
         O           -0.311324205973    -1.653489002616     1.303534132061    15.994914619570
         O            2.102479794027    -1.962365002616    -0.186525867939    15.994914619570
         O            2.752994794027     0.774928997384    -0.448399867939    15.994914619570
         O            0.736809794027     2.527454997384     0.573631132061    15.994914619570
         O           -3.483959205973     0.538930997384    -0.461992867939    15.994914619570
         C           -0.237441205973    -1.404784002616    -0.095919867939    12.000000000000
         C            1.158418794027    -0.968041002616    -0.536018867939    12.000000000000
         C           -1.303702605973    -0.302580702616    -0.427148167939    12.000000000000
         C            1.505801794027     0.363457997384     0.105238132061    12.000000000000
         C            0.419930794027     1.387272997384    -0.168553867939    12.000000000000
         C           -2.664184205973    -0.570162002616    -0.115083867939    12.000000000000
         H           -0.491155205973    -2.349511002616    -0.590369867939     1.007825032230
         H            1.141871794027    -0.816714002616    -1.630465867939     1.007825032230
         H           -1.161276205973    -0.077691002616    -1.558931867939     1.007825032230
         H            1.584170794027     0.228929997384     1.193276132061     1.007825032230
         H            0.366092794027     1.604601997384    -1.249640867939     1.007825032230
         H           -2.729849205973    -0.810110002616     0.952941132061     1.007825032230
         H           -3.033745205973    -1.428602002616    -0.682404867939     1.007825032230
         H           -0.391078205973    -0.775534002616     1.722613132061     1.007825032230
         H            2.975529794027    -1.563183002616    -0.360438867939     1.007825032230
         H            3.008164794027     1.591209997384     0.018675132061     1.007825032230
         H            0.118409794027     3.235453997384     0.319773132061     1.007825032230
         H           -3.082382205973     1.301477997384    -0.009181867939     1.007825032230

  Basis Set: AUG-CC-PVTZ
    Blend: AUG-CC-PVTZ
  Basis Set: (AUG-CC-PVTZ AUX)
    Blend: AUG-CC-PVTZ-JKFIT
	 Reference Energy          =    -683.5962233890071502 [Eh]
	 Singles Energy            =      -0.0000000000000000 [Eh]
	 Same-Spin Energy          =      -0.6667765851780536 [Eh]
	 Opposite-Spin Energy      =      -2.0465687199657094 [Eh]
	 Correlation Energy        =      -2.7133453051437630 [Eh]
	 Total Energy              =    -686.3095686941509257 [Eh]

	 ================> DF-SCS-MP2 Energies <==================
	-----------------------------------------------------------
	 SCS Same-Spin Scale       =       0.3333333333333333 [-]
	 SCS Opposite-Spin Scale   =       1.2000000000000000 [-]
	 SCS Same-Spin Energy      =      -0.2222588617260179 [Eh]
	 SCS Opposite-Spin Energy  =      -2.4558824639588512 [Eh]
	 SCS Correlation Energy    =      -2.6781413256848690 [Eh]
	 SCS Total Energy          =    -686.2743647146920694 [Eh]
	-----------------------------------------------------------

  Dipole Moment: [D]
     X:     0.6115      Y:     3.1183      Z:    -1.0408     Total:     3.3438

*** Psi4 exiting successfully. Buy a developer a beer!
