                               Psi4 1.3.2 release

  ==> Input File <==

--------------------------------------------------------------------------
#psi4
#
memory 32 gb

molecule  {
0 1
  O       -0.8456270     0.8862080     0.2793150
  O       -0.3079160    -1.6544620     1.3165970
  O        2.1058880    -1.9633380    -0.1734630
  O        2.7564030     0.7739560    -0.4353370
  O        0.7402180     2.5264820     0.5866940
  O       -3.4805510     0.5379580    -0.4489300
  C       -0.2164095    -1.4081862    -0.0326003
  C        1.1618270    -0.9690140    -0.5229560
  C       -1.2150640    -0.3000600    -0.4685780
  C        1.5092100     0.3624850     0.1183010
  C        0.4233390     1.3863000    -0.1554910
  C       -2.6607760    -0.5711350    -0.1020210
  H       -0.4877470    -2.3504840    -0.5773070
  H        1.1452800    -0.8176870    -1.6174030
  H       -1.1578680    -0.0786640    -1.5458690
  H        1.5875790     0.2279570     1.2063390
  H        0.3695010     1.6036290    -1.2365780
  H       -2.7264410    -0.8110830     0.9660040
  H       -3.0303370    -1.4295750    -0.6693420
  H       -0.3876700    -0.7765070     1.7356760
  H        2.9789380    -1.5641560    -0.3473760
  H        3.0115730     1.5902370     0.0317380
  H        0.1218180     3.2344810     0.3328360
  H       -3.0789740     1.3005050     0.0038810
units angstrom
no_reorient  #important for SAPT in psi4, default
symmetry c1  #important for SAPT in psi4, default
}

set PROPERTIES_ORIGIN ["COM"]
properties('MP2/aug-cc-pvtz', properties = ['dipole'])
--------------------------------------------------------------------------

    Molecular point group: c1
  Charge       = 0
  Multiplicity = 1
  Basis Set: AUG-CC-PVTZ
    Blend: AUG-CC-PVTZ
  Basis Set: (AUG-CC-PVTZ AUX)
    Blend: AUG-CC-PVTZ-JKFIT

    Orbital Energies [Eh]
    ---------------------

    Doubly Occupied:

       1A    -20.599761     2A    -20.593659     3A    -20.584997
       4A    -20.570807     5A    -20.564070     6A    -20.563205
       7A    -11.361989     8A    -11.303410     9A    -11.298274
      10A    -11.297573    11A    -11.293250    12A    -11.285122
      13A     -1.448089    14A     -1.399303    15A     -1.391276
      16A     -1.372747    17A     -1.357736    18A     -1.355175
      19A     -1.069310    20A     -1.048713    21A     -0.947471
      22A     -0.885311    23A     -0.846744    24A     -0.809686
      25A     -0.761718    26A     -0.737931    27A     -0.723534
      28A     -0.713330    29A     -0.689898    30A     -0.667734
      31A     -0.660891    32A     -0.639638    33A     -0.625314
      34A     -0.619177    35A     -0.598916    36A     -0.585557
      37A     -0.576950    38A     -0.561965    39A     -0.542285
      40A     -0.536267    41A     -0.526488    42A     -0.513066
      43A     -0.495288    44A     -0.478899    45A     -0.468449
      46A     -0.460171    47A     -0.442384    48A     -0.425959

  @DF-RHF Final Energy:  -683.60610890321891

   => Energetics <=

    Nuclear Repulsion Energy =            836.3427725249568994
    One-Electron Energy =               -2601.2987886402397635
    Two-Electron Energy =                1081.3499072120639539
    Total Energy =                       -683.6061089032189102
  Basis Set: (AUG-CC-PVTZ AUX)
    Blend: AUG-CC-PVTZ-RI
    Molecular point group: c1

    Geometry (in Angstrom), charge = 0, multiplicity = 1:

       Center              X                  Y                   Z               Mass
    ------------   -----------------  -----------------  -----------------  -----------------
         O           -0.855889718781     0.887110055700     0.266534432647    15.994914619570
         O           -0.318178718781    -1.653559944300     1.303816432647    15.994914619570
         O            2.095625281219    -1.962435944300    -0.186243567353    15.994914619570
         O            2.746140281219     0.774858055700    -0.448117567353    15.994914619570
         O            0.729955281219     2.527384055700     0.573913432647    15.994914619570
         O           -3.490813718781     0.538860055700    -0.461710567353    15.994914619570
         C           -0.226672218781    -1.407284144300    -0.045380867353    12.000000000000
         C            1.151564281219    -0.968111944300    -0.535736567353    12.000000000000
         C           -1.225326718781    -0.299157944300    -0.481358567353    12.000000000000
         C            1.498947281219     0.363387055700     0.105520432647    12.000000000000
         C            0.413076281219     1.387202055700    -0.168271567353    12.000000000000
         C           -2.671038718781    -0.570232944300    -0.114801567353    12.000000000000
         H           -0.498009718781    -2.349581944300    -0.590087567353     1.007825032230
         H            1.135017281219    -0.816784944300    -1.630183567353     1.007825032230
         H           -1.168130718781    -0.077761944300    -1.558649567353     1.007825032230
         H            1.577316281219     0.228859055700     1.193558432647     1.007825032230
         H            0.359238281219     1.604531055700    -1.249358567353     1.007825032230
         H           -2.736703718781    -0.810180944300     0.953223432647     1.007825032230
         H           -3.040599718781    -1.428672944300    -0.682122567353     1.007825032230
         H           -0.397932718781    -0.775604944300     1.722895432647     1.007825032230
         H            2.968675281219    -1.563253944300    -0.360156567353     1.007825032230
         H            3.001310281219     1.591139055700     0.018957432647     1.007825032230
         H            0.111555281219     3.235383055700     0.320055432647     1.007825032230
         H           -3.089236718781     1.301407055700    -0.008899567353     1.007825032230

  Basis Set: AUG-CC-PVTZ
    Blend: AUG-CC-PVTZ
  Basis Set: (AUG-CC-PVTZ AUX)
    Blend: AUG-CC-PVTZ-JKFIT
	 Reference Energy          =    -683.6061089032189102 [Eh]
	 Singles Energy            =      -0.0000000000000000 [Eh]
	 Same-Spin Energy          =      -0.6664537202640124 [Eh]
	 Opposite-Spin Energy      =      -2.0457854463191518 [Eh]
	 Correlation Energy        =      -2.7122391665831644 [Eh]
	 Total Energy              =    -686.3183480698020276 [Eh]

	 ================> DF-SCS-MP2 Energies <==================
	-----------------------------------------------------------
	 SCS Same-Spin Scale       =       0.3333333333333333 [-]
	 SCS Opposite-Spin Scale   =       1.2000000000000000 [-]
	 SCS Same-Spin Energy      =      -0.2221512400880041 [Eh]
	 SCS Opposite-Spin Energy  =      -2.4549425355829819 [Eh]
	 SCS Correlation Energy    =      -2.6770937756709863 [Eh]
	 SCS Total Energy          =    -686.2832026788898929 [Eh]
	-----------------------------------------------------------

  Dipole Moment: [D]
     X:     0.6631      Y:     3.1374      Z:    -0.9562     Total:     3.3462

*** Psi4 exiting successfully. Buy a developer a beer!
