                               Psi4 1.3.2 release

  ==> Input File <==

--------------------------------------------------------------------------
#psi4
#
memory 32 gb

molecule  {
0 1
  O       -0.8456270     0.8862080     0.2793150
  O       -0.3079160    -1.6544620     1.3165970
  O        2.1058880    -1.9633380    -0.1734630
  O        2.7564030     0.7739560    -0.4353370
  O        0.7402180     2.5264820     0.5866940
  O       -3.4805510     0.5379580    -0.4489300
  C       -0.2127705    -1.5357508    -0.1734594
  C        1.1618270    -0.9690140    -0.5229560
  C       -1.2150640    -0.3000600    -0.4685780
  C        1.5092100     0.3624850     0.1183010
  C        0.4233390     1.3863000    -0.1554910
  C       -2.6607760    -0.5711350    -0.1020210
  H       -0.4877470    -2.3504840    -0.5773070
  H        1.1452800    -0.8176870    -1.6174030
  H       -1.1578680    -0.0786640    -1.5458690
  H        1.5875790     0.2279570     1.2063390
  H        0.3695010     1.6036290    -1.2365780
  H       -2.7264410    -0.8110830     0.9660040
  H       -3.0303370    -1.4295750    -0.6693420
  H       -0.3876700    -0.7765070     1.7356760
  H        2.9789380    -1.5641560    -0.3473760
  H        3.0115730     1.5902370     0.0317380
  H        0.1218180     3.2344810     0.3328360
  H       -3.0789740     1.3005050     0.0038810
units angstrom
no_reorient  #important for SAPT in psi4, default
symmetry c1  #important for SAPT in psi4, default
}

set PROPERTIES_ORIGIN ["COM"]
properties('MP2/aug-cc-pvtz', properties = ['dipole'])
--------------------------------------------------------------------------

    Molecular point group: c1
  Charge       = 0
  Multiplicity = 1
  Basis Set: AUG-CC-PVTZ
    Blend: AUG-CC-PVTZ
  Basis Set: (AUG-CC-PVTZ AUX)
    Blend: AUG-CC-PVTZ-JKFIT

    Orbital Energies [Eh]
    ---------------------

    Doubly Occupied:

       1A    -20.600726     2A    -20.598149     3A    -20.588065
       4A    -20.563684     5A    -20.562533     6A    -20.553103
       7A    -11.363291     8A    -11.308493     9A    -11.302938
      10A    -11.299282    11A    -11.298161    12A    -11.283933
      13A     -1.447525    14A     -1.393861    15A     -1.382738
      16A     -1.364265    17A     -1.355507    18A     -1.330711
      19A     -1.070168    20A     -1.047281    21A     -0.954286
      22A     -0.896327    23A     -0.845046    24A     -0.814163
      25A     -0.765565    26A     -0.734953    27A     -0.716013
      28A     -0.711327    29A     -0.688298    30A     -0.668182
      31A     -0.655203    32A     -0.643340    33A     -0.618283
      34A     -0.613842    35A     -0.603842    36A     -0.595042
      37A     -0.568414    38A     -0.563049    39A     -0.536942
      40A     -0.531971    41A     -0.527181    42A     -0.509436
      43A     -0.495165    44A     -0.478962    45A     -0.468717
      46A     -0.457132    47A     -0.448039    48A     -0.421043

  @DF-RHF Final Energy:  -683.57449258848737

   => Energetics <=

    Nuclear Repulsion Energy =            833.0285933976381330
    One-Electron Energy =               -2594.7178121556826227
    Two-Electron Energy =                1078.1147261695571160
    Total Energy =                       -683.5744925884873737
  Basis Set: (AUG-CC-PVTZ AUX)
    Blend: AUG-CC-PVTZ-RI
    Molecular point group: c1

    Geometry (in Angstrom), charge = 0, multiplicity = 1:

       Center              X                  Y                   Z               Mass
    ------------   -----------------  -----------------  -----------------  -----------------
         O           -0.856132233378     0.895611368577     0.275921733518    15.994914619570
         O           -0.318421233378    -1.645058631423     1.313203733518    15.994914619570
         O            2.095382766622    -1.953934631423    -0.176856266482    15.994914619570
         O            2.745897766622     0.783359368577    -0.438730266482    15.994914619570
         O            0.729712766622     2.535885368577     0.583300733518    15.994914619570
         O           -3.491056233378     0.547361368577    -0.452323266482    15.994914619570
         C           -0.223275733378    -1.526347431423    -0.176852666482    12.000000000000
         C            1.151321766622    -0.959610631423    -0.526349266482    12.000000000000
         C           -1.225569233378    -0.290656631423    -0.471971266482    12.000000000000
         C            1.498704766622     0.371888368577     0.114907733518    12.000000000000
         C            0.412833766622     1.395703368577    -0.158884266482    12.000000000000
         C           -2.671281233378    -0.561731631423    -0.105414266482    12.000000000000
         H           -0.498252233378    -2.341080631423    -0.580700266482     1.007825032230
         H            1.134774766622    -0.808283631423    -1.620796266482     1.007825032230
         H           -1.168373233378    -0.069260631423    -1.549262266482     1.007825032230
         H            1.577073766622     0.237360368577     1.202945733518     1.007825032230
         H            0.358995766622     1.613032368577    -1.239971266482     1.007825032230
         H           -2.736946233378    -0.801679631423     0.962610733518     1.007825032230
         H           -3.040842233378    -1.420171631423    -0.672735266482     1.007825032230
         H           -0.398175233378    -0.767103631423     1.732282733518     1.007825032230
         H            2.968432766622    -1.554752631423    -0.350769266482     1.007825032230
         H            3.001067766622     1.599640368577     0.028344733518     1.007825032230
         H            0.111312766622     3.243884368577     0.329442733518     1.007825032230
         H           -3.089479233378     1.309908368577     0.000487733518     1.007825032230

  Basis Set: AUG-CC-PVTZ
    Blend: AUG-CC-PVTZ
  Basis Set: (AUG-CC-PVTZ AUX)
    Blend: AUG-CC-PVTZ-JKFIT
	 Reference Energy          =    -683.5744925884873737 [Eh]
	 Singles Energy            =      -0.0000000000000000 [Eh]
	 Same-Spin Energy          =      -0.6659572107691772 [Eh]
	 Opposite-Spin Energy      =      -2.0476538010655796 [Eh]
	 Correlation Energy        =      -2.7136110118347569 [Eh]
	 Total Energy              =    -686.2881036003220743 [Eh]

	 ================> DF-SCS-MP2 Energies <==================
	-----------------------------------------------------------
	 SCS Same-Spin Scale       =       0.3333333333333333 [-]
	 SCS Opposite-Spin Scale   =       1.2000000000000000 [-]
	 SCS Same-Spin Energy      =      -0.2219857369230591 [Eh]
	 SCS Opposite-Spin Energy  =      -2.4571845612786953 [Eh]
	 SCS Correlation Energy    =      -2.6791702982017545 [Eh]
	 SCS Total Energy          =    -686.2536628866890851 [Eh]
	-----------------------------------------------------------

  Dipole Moment: [D]
     X:     0.7845      Y:     3.1176      Z:    -1.3241     Total:     3.4768

*** Psi4 exiting successfully. Buy a developer a beer!
