                               Psi4 1.3.2 release

  ==> Input File <==

--------------------------------------------------------------------------
#psi4
#
memory 32 gb

molecule  {
0 1
  O       -0.8456270     0.8862080     0.2793150
  O       -0.3079160    -1.6544620     1.3165970
  O        2.1058880    -1.9633380    -0.1734630
  O        2.7564030     0.7739560    -0.4353370
  O        0.7402180     2.5264820     0.5866940
  O       -3.4805510     0.5379580    -0.4489300
  C       -0.2377287    -1.3612904    -0.0536801
  C        1.1618270    -0.9690140    -0.5229560
  C       -1.2150640    -0.3000600    -0.4685780
  C        1.5092100     0.3624850     0.1183010
  C        0.4233390     1.3863000    -0.1554910
  C       -2.6607760    -0.5711350    -0.1020210
  H       -0.4877470    -2.3504840    -0.5773070
  H        1.1452800    -0.8176870    -1.6174030
  H       -1.1578680    -0.0786640    -1.5458690
  H        1.5875790     0.2279570     1.2063390
  H        0.3695010     1.6036290    -1.2365780
  H       -2.7264410    -0.8110830     0.9660040
  H       -3.0303370    -1.4295750    -0.6693420
  H       -0.3876700    -0.7765070     1.7356760
  H        2.9789380    -1.5641560    -0.3473760
  H        3.0115730     1.5902370     0.0317380
  H        0.1218180     3.2344810     0.3328360
  H       -3.0789740     1.3005050     0.0038810
units angstrom
no_reorient  #important for SAPT in psi4, default
symmetry c1  #important for SAPT in psi4, default
}

set PROPERTIES_ORIGIN ["COM"]
properties('MP2/aug-cc-pvtz', properties = ['dipole'])
--------------------------------------------------------------------------

    Molecular point group: c1
  Charge       = 0
  Multiplicity = 1
  Basis Set: AUG-CC-PVTZ
    Blend: AUG-CC-PVTZ
  Basis Set: (AUG-CC-PVTZ AUX)
    Blend: AUG-CC-PVTZ-JKFIT

    Orbital Energies [Eh]
    ---------------------

    Doubly Occupied:

       1A    -20.600151     2A    -20.594133     3A    -20.584725
       4A    -20.569262     5A    -20.565254     6A    -20.564463
       7A    -11.362497     8A    -11.304079     9A    -11.298044
      10A    -11.297961    11A    -11.294507    12A    -11.286581
      13A     -1.449016    14A     -1.393827    15A     -1.391479
      16A     -1.370716    17A     -1.357344    18A     -1.355171
      19A     -1.074822    20A     -1.053258    21A     -0.947786
      22A     -0.885923    23A     -0.849512    24A     -0.808442
      25A     -0.758740    26A     -0.738922    27A     -0.724748
      28A     -0.714692    29A     -0.690337    30A     -0.667343
      31A     -0.658669    32A     -0.638253    33A     -0.626136
      34A     -0.620062    35A     -0.599681    36A     -0.579894
      37A     -0.574674    38A     -0.562891    39A     -0.540914
      40A     -0.537068    41A     -0.526268    42A     -0.512401
      43A     -0.496253    44A     -0.484489    45A     -0.468596
      46A     -0.460525    47A     -0.441406    48A     -0.431900

  @DF-RHF Final Energy:  -683.60435278400496

   => Energetics <=

    Nuclear Repulsion Energy =            836.9130741299060219
    One-Electron Energy =               -2602.4072287278791009
    Two-Electron Energy =                1081.8898018139682335
    Total Energy =                       -683.6043527840049592
  Basis Set: (AUG-CC-PVTZ AUX)
    Blend: AUG-CC-PVTZ-RI
    Molecular point group: c1

    Geometry (in Angstrom), charge = 0, multiplicity = 1:

       Center              X                  Y                   Z               Mass
    ------------   -----------------  -----------------  -----------------  -----------------
         O           -0.854468939117     0.883984769622     0.267939257929    15.994914619570
         O           -0.316757939117    -1.656685230378     1.305221257929    15.994914619570
         O            2.097046060883    -1.965561230378    -0.184838742071    15.994914619570
         O            2.747561060883     0.771732769622    -0.446712742071    15.994914619570
         O            0.731376060883     2.524258769622     0.575318257929    15.994914619570
         O           -3.489392939117     0.535734769622    -0.460305742071    15.994914619570
         C           -0.246570639117    -1.363513630378    -0.065055842071    12.000000000000
         C            1.152985060883    -0.971237230378    -0.534331742071    12.000000000000
         C           -1.223905939117    -0.302283230378    -0.479953742071    12.000000000000
         C            1.500368060883     0.360261769622     0.106925257929    12.000000000000
         C            0.414497060883     1.384076769622    -0.166866742071    12.000000000000
         C           -2.669617939117    -0.573358230378    -0.113396742071    12.000000000000
         H           -0.496588939117    -2.352707230378    -0.588682742071     1.007825032230
         H            1.136438060883    -0.819910230378    -1.628778742071     1.007825032230
         H           -1.166709939117    -0.080887230378    -1.557244742071     1.007825032230
         H            1.578737060883     0.225733769622     1.194963257929     1.007825032230
         H            0.360659060883     1.601405769622    -1.247953742071     1.007825032230
         H           -2.735282939117    -0.813306230378     0.954628257929     1.007825032230
         H           -3.039178939117    -1.431798230378    -0.680717742071     1.007825032230
         H           -0.396511939117    -0.778730230378     1.724300257929     1.007825032230
         H            2.970096060883    -1.566379230378    -0.358751742071     1.007825032230
         H            3.002731060883     1.588013769622     0.020362257929     1.007825032230
         H            0.112976060883     3.232257769622     0.321460257929     1.007825032230
         H           -3.087815939117     1.298281769622    -0.007494742071     1.007825032230

  Basis Set: AUG-CC-PVTZ
    Blend: AUG-CC-PVTZ
  Basis Set: (AUG-CC-PVTZ AUX)
    Blend: AUG-CC-PVTZ-JKFIT
	 Reference Energy          =    -683.6043527840049592 [Eh]
	 Singles Energy            =      -0.0000000000000000 [Eh]
	 Same-Spin Energy          =      -0.6668498545710704 [Eh]
	 Opposite-Spin Energy      =      -2.0466510167411900 [Eh]
	 Correlation Energy        =      -2.7135008713122604 [Eh]
	 Total Energy              =    -686.3178536553172080 [Eh]

	 ================> DF-SCS-MP2 Energies <==================
	-----------------------------------------------------------
	 SCS Same-Spin Scale       =       0.3333333333333333 [-]
	 SCS Opposite-Spin Scale   =       1.2000000000000000 [-]
	 SCS Same-Spin Energy      =      -0.2222832848570234 [Eh]
	 SCS Opposite-Spin Energy  =      -2.4559812200894280 [Eh]
	 SCS Correlation Energy    =      -2.6782645049464513 [Eh]
	 SCS Total Energy          =    -686.2826172889514282 [Eh]
	-----------------------------------------------------------

  Dipole Moment: [D]
     X:     0.6348      Y:     3.1932      Z:    -1.0201     Total:     3.4118

*** Psi4 exiting successfully. Buy a developer a beer!
