                               Psi4 1.3.2 release

  ==> Input File <==

--------------------------------------------------------------------------
#psi4
#
memory 32 gb

molecule  {
0 1
  O       -0.8456270     0.8862080     0.2793150
  O       -0.3079160    -1.6544620     1.3165970
  O        2.1058880    -1.9633380    -0.1734630
  O        2.7564030     0.7739560    -0.4353370
  O        0.7402180     2.5264820     0.5866940
  O       -3.4805510     0.5379580    -0.4489300
  C       -0.2340330    -1.4057570    -0.0828570
  C        1.2532168    -0.9404195    -0.5517702
  C       -1.2150640    -0.3000600    -0.4685780
  C        1.5092100     0.3624850     0.1183010
  C        0.4233390     1.3863000    -0.1554910
  C       -2.6607760    -0.5711350    -0.1020210
  H       -0.4877470    -2.3504840    -0.5773070
  H        1.1452800    -0.8176870    -1.6174030
  H       -1.1578680    -0.0786640    -1.5458690
  H        1.5875790     0.2279570     1.2063390
  H        0.3695010     1.6036290    -1.2365780
  H       -2.7264410    -0.8110830     0.9660040
  H       -3.0303370    -1.4295750    -0.6693420
  H       -0.3876700    -0.7765070     1.7356760
  H        2.9789380    -1.5641560    -0.3473760
  H        3.0115730     1.5902370     0.0317380
  H        0.1218180     3.2344810     0.3328360
  H       -3.0789740     1.3005050     0.0038810
units angstrom
no_reorient  #important for SAPT in psi4, default
symmetry c1  #important for SAPT in psi4, default
}

set PROPERTIES_ORIGIN ["COM"]
properties('MP2/aug-cc-pvtz', properties = ['dipole'])
--------------------------------------------------------------------------

    Molecular point group: c1
  Charge       = 0
  Multiplicity = 1
  Basis Set: AUG-CC-PVTZ
    Blend: AUG-CC-PVTZ
  Basis Set: (AUG-CC-PVTZ AUX)
    Blend: AUG-CC-PVTZ-JKFIT

    Orbital Energies [Eh]
    ---------------------

    Doubly Occupied:

       1A    -20.600844     2A    -20.593667     3A    -20.583839
       4A    -20.570151     5A    -20.563847     6A    -20.563156
       7A    -11.363421     8A    -11.302151     9A    -11.297498
      10A    -11.296416    11A    -11.293023    12A    -11.284166
      13A     -1.447820    14A     -1.399076    15A     -1.388030
      16A     -1.369732    17A     -1.360840    18A     -1.351795
      19A     -1.064446    20A     -1.051140    21A     -0.940048
      22A     -0.891313    23A     -0.845269    24A     -0.810277
      25A     -0.761676    26A     -0.735054    27A     -0.723332
      28A     -0.713637    29A     -0.690141    30A     -0.667210
      31A     -0.659080    32A     -0.638567    33A     -0.618753
      34A     -0.617917    35A     -0.599130    36A     -0.582583
      37A     -0.575919    38A     -0.566135    39A     -0.544817
      40A     -0.534405    41A     -0.527209    42A     -0.510720
      43A     -0.495074    44A     -0.482520    45A     -0.465293
      46A     -0.464039    47A     -0.447263    48A     -0.415159

  @DF-RHF Final Energy:  -683.59832957368656

   => Energetics <=

    Nuclear Repulsion Energy =            835.2590216123077198
    One-Electron Energy =               -2599.1795085807561918
    Two-Electron Energy =                1080.3221573947621437
    Total Energy =                       -683.5983295736864420
  Basis Set: (AUG-CC-PVTZ AUX)
    Blend: AUG-CC-PVTZ-RI
    Molecular point group: c1

    Geometry (in Angstrom), charge = 0, multiplicity = 1:

       Center              X                  Y                   Z               Mass
    ------------   -----------------  -----------------  -----------------  -----------------
         O           -0.860805740907     0.885042537122     0.271803970281    15.994914619570
         O           -0.323094740907    -1.655627462878     1.309085970281    15.994914619570
         O            2.090709259093    -1.964503462878    -0.180974029719    15.994914619570
         O            2.741224259093     0.772790537122    -0.442848029719    15.994914619570
         O            0.725039259093     2.525316537122     0.579182970281    15.994914619570
         O           -3.495729740907     0.536792537122    -0.456441029719    15.994914619570
         C           -0.249211740907    -1.406922462878    -0.090368029719    12.000000000000
         C            1.238038059093    -0.941584962878    -0.559281229719    12.000000000000
         C           -1.230242740907    -0.301225462878    -0.476089029719    12.000000000000
         C            1.494031259093     0.361319537122     0.110789970281    12.000000000000
         C            0.408160259093     1.385134537122    -0.163002029719    12.000000000000
         C           -2.675954740907    -0.572300462878    -0.109532029719    12.000000000000
         H           -0.502925740907    -2.351649462878    -0.584818029719     1.007825032230
         H            1.130101259093    -0.818852462878    -1.624914029719     1.007825032230
         H           -1.173046740907    -0.079829462878    -1.553380029719     1.007825032230
         H            1.572400259093     0.226791537122     1.198827970281     1.007825032230
         H            0.354322259093     1.602463537122    -1.244089029719     1.007825032230
         H           -2.741619740907    -0.812248462878     0.958492970281     1.007825032230
         H           -3.045515740907    -1.430740462878    -0.676853029719     1.007825032230
         H           -0.402848740907    -0.777672462878     1.728164970281     1.007825032230
         H            2.963759259093    -1.565321462878    -0.354887029719     1.007825032230
         H            2.996394259093     1.589071537122     0.024226970281     1.007825032230
         H            0.106639259093     3.233315537122     0.325324970281     1.007825032230
         H           -3.094152740907     1.299339537122    -0.003630029719     1.007825032230

  Basis Set: AUG-CC-PVTZ
    Blend: AUG-CC-PVTZ
  Basis Set: (AUG-CC-PVTZ AUX)
    Blend: AUG-CC-PVTZ-JKFIT
	 Reference Energy          =    -683.5983295736865557 [Eh]
	 Singles Energy            =      -0.0000000000000000 [Eh]
	 Same-Spin Energy          =      -0.6667330013828598 [Eh]
	 Opposite-Spin Energy      =      -2.0469596658672176 [Eh]
	 Correlation Energy        =      -2.7136926672500774 [Eh]
	 Total Energy              =    -686.3120222409365851 [Eh]

	 ================> DF-SCS-MP2 Energies <==================
	-----------------------------------------------------------
	 SCS Same-Spin Scale       =       0.3333333333333333 [-]
	 SCS Opposite-Spin Scale   =       1.2000000000000000 [-]
	 SCS Same-Spin Energy      =      -0.2222443337942866 [Eh]
	 SCS Opposite-Spin Energy  =      -2.4563515990406608 [Eh]
	 SCS Correlation Energy    =      -2.6785959328349476 [Eh]
	 SCS Total Energy          =    -686.2769255065214793 [Eh]
	-----------------------------------------------------------

  Dipole Moment: [D]
     X:     0.8174      Y:     3.0912      Z:    -1.0879     Total:     3.3774

*** Psi4 exiting successfully. Buy a developer a beer!
