                               Psi4 1.3.2 release

  ==> Input File <==

--------------------------------------------------------------------------
#psi4
#
memory 32 gb

molecule  {
0 1
  O       -0.9394987     0.8872586     0.3171685
  O       -0.3079160    -1.6544620     1.3165970
  O        2.1058880    -1.9633380    -0.1734630
  O        2.7564030     0.7739560    -0.4353370
  O        0.7402180     2.5264820     0.5866940
  O       -3.4805510     0.5379580    -0.4489300
  C       -0.2340330    -1.4057570    -0.0828570
  C        1.1618270    -0.9690140    -0.5229560
  C       -1.2150640    -0.3000600    -0.4685780
  C        1.5092100     0.3624850     0.1183010
  C        0.4233390     1.3863000    -0.1554910
  C       -2.6607760    -0.5711350    -0.1020210
  H       -0.4877470    -2.3504840    -0.5773070
  H        1.1452800    -0.8176870    -1.6174030
  H       -1.1578680    -0.0786640    -1.5458690
  H        1.5875790     0.2279570     1.2063390
  H        0.3695010     1.6036290    -1.2365780
  H       -2.7264410    -0.8110830     0.9660040
  H       -3.0303370    -1.4295750    -0.6693420
  H       -0.3876700    -0.7765070     1.7356760
  H        2.9789380    -1.5641560    -0.3473760
  H        3.0115730     1.5902370     0.0317380
  H        0.1218180     3.2344810     0.3328360
  H       -3.0789740     1.3005050     0.0038810
units angstrom
no_reorient  #important for SAPT in psi4, default
symmetry c1  #important for SAPT in psi4, default
}

set PROPERTIES_ORIGIN ["COM"]
properties('MP2/aug-cc-pvtz', properties = ['dipole'])
--------------------------------------------------------------------------

    Molecular point group: c1
  Charge       = 0
  Multiplicity = 1
  Basis Set: AUG-CC-PVTZ
    Blend: AUG-CC-PVTZ
  Basis Set: (AUG-CC-PVTZ AUX)
    Blend: AUG-CC-PVTZ-JKFIT

    Orbital Energies [Eh]
    ---------------------

    Doubly Occupied:

       1A    -20.605401     2A    -20.596719     3A    -20.590688
       4A    -20.565501     5A    -20.564350     6A    -20.559378
       7A    -11.372272     8A    -11.305086     9A    -11.299932
      10A    -11.296986    11A    -11.296309    12A    -11.279960
      13A     -1.437406    14A     -1.394530    15A     -1.388002
      16A     -1.367244    17A     -1.356025    18A     -1.343689
      19A     -1.075343    20A     -1.044970    21A     -0.948821
      22A     -0.890048    23A     -0.840194    24A     -0.808501
      25A     -0.760145    26A     -0.735035    27A     -0.721111
      28A     -0.711241    29A     -0.683987    30A     -0.666947
      31A     -0.660304    32A     -0.636965    33A     -0.623285
      34A     -0.614014    35A     -0.597492    36A     -0.581757
      37A     -0.573272    38A     -0.564249    39A     -0.539037
      40A     -0.535704    41A     -0.528158    42A     -0.512687
      43A     -0.486982    44A     -0.483228    45A     -0.471074
      46A     -0.462258    47A     -0.447185    48A     -0.429684

  @DF-RHF Final Energy:  -683.59602434492444

   => Energetics <=

    Nuclear Repulsion Energy =            833.8333799062372691
    One-Electron Energy =               -2596.3524901031883019
    Two-Electron Energy =                1078.9230858520265883
    Total Energy =                       -683.5960243449244444
  Basis Set: (AUG-CC-PVTZ AUX)
    Blend: AUG-CC-PVTZ-RI
    Molecular point group: c1

    Geometry (in Angstrom), charge = 0, multiplicity = 1:

       Center              X                  Y                   Z               Mass
    ------------   -----------------  -----------------  -----------------  -----------------
         O           -0.940248369822     0.887905441923     0.304374697860    15.994914619570
         O           -0.308665669822    -1.653815158077     1.303803197860    15.994914619570
         O            2.105138330178    -1.962691158077    -0.186256802140    15.994914619570
         O            2.755653330178     0.774602841923    -0.448130802140    15.994914619570
         O            0.739468330178     2.527128841923     0.573900197860    15.994914619570
         O           -3.481300669822     0.538604841923    -0.461723802140    15.994914619570
         C           -0.234782669822    -1.405110158077    -0.095650802140    12.000000000000
         C            1.161077330178    -0.968367158077    -0.535749802140    12.000000000000
         C           -1.215813669822    -0.299413158077    -0.481371802140    12.000000000000
         C            1.508460330178     0.363131841923     0.105507197860    12.000000000000
         C            0.422589330178     1.386946841923    -0.168284802140    12.000000000000
         C           -2.661525669822    -0.570488158077    -0.114814802140    12.000000000000
         H           -0.488496669822    -2.349837158077    -0.590100802140     1.007825032230
         H            1.144530330178    -0.817040158077    -1.630196802140     1.007825032230
         H           -1.158617669822    -0.078017158077    -1.558662802140     1.007825032230
         H            1.586829330178     0.228603841923     1.193545197860     1.007825032230
         H            0.368751330178     1.604275841923    -1.249371802140     1.007825032230
         H           -2.727190669822    -0.810436158077     0.953210197860     1.007825032230
         H           -3.031086669822    -1.428928158077    -0.682135802140     1.007825032230
         H           -0.388419669822    -0.775860158077     1.722882197860     1.007825032230
         H            2.978188330178    -1.563509158077    -0.360169802140     1.007825032230
         H            3.010823330178     1.590883841923     0.018944197860     1.007825032230
         H            0.121068330178     3.235127841923     0.320042197860     1.007825032230
         H           -3.079723669822     1.301151841923    -0.008912802140     1.007825032230

  Basis Set: AUG-CC-PVTZ
    Blend: AUG-CC-PVTZ
  Basis Set: (AUG-CC-PVTZ AUX)
    Blend: AUG-CC-PVTZ-JKFIT
	 Reference Energy          =    -683.5960243449244444 [Eh]
	 Singles Energy            =      -0.0000000000000000 [Eh]
	 Same-Spin Energy          =      -0.6676662752933248 [Eh]
	 Opposite-Spin Energy      =      -2.0501821373614391 [Eh]
	 Correlation Energy        =      -2.7178484126547637 [Eh]
	 Total Energy              =    -686.3138727575792473 [Eh]

	 ================> DF-SCS-MP2 Energies <==================
	-----------------------------------------------------------
	 SCS Same-Spin Scale       =       0.3333333333333333 [-]
	 SCS Opposite-Spin Scale   =       1.2000000000000000 [-]
	 SCS Same-Spin Energy      =      -0.2225554250977749 [Eh]
	 SCS Opposite-Spin Energy  =      -2.4602185648337267 [Eh]
	 SCS Correlation Energy    =      -2.6827739899315017 [Eh]
	 SCS Total Energy          =    -686.2787983348559919 [Eh]
	-----------------------------------------------------------

  Dipole Moment: [D]
     X:     1.1261      Y:     3.3123      Z:    -1.1561     Total:     3.6846

*** Psi4 exiting successfully. Buy a developer a beer!
