                               Psi4 1.4a3.dev225

  ==> Input File <==

--------------------------------------------------------------------------
#psi4
#
memory 32 gb

molecule  {
0 1
  O       -0.8456650     0.8861440     0.2793920
  O       -0.3077290    -1.6543970     1.3165920
  O        2.1058490    -1.9633390    -0.1734930
  O        2.7563870     0.7740080    -0.4352340
  O        0.7401070     2.5265290     0.5865970
  O       -3.4805150     0.5379850    -0.4487790
  C       -0.2340150    -1.4057960    -0.0828600
  C        1.1618410    -0.9690160    -0.5229920
  C       -1.2150830    -0.3001220    -0.4685840
  C        1.5091960     0.3624950     0.1183140
  C        0.4232960     1.3863010    -0.1554910
  C       -2.6608140    -0.5711940    -0.1020800
  H       -0.4877200    -2.3505680    -0.5772350
  H        1.1452880    -0.8176810    -1.6174430
  H       -1.1578130    -0.0786490    -1.5458470
  H        1.5874550     0.2279380     1.2063560
  H        0.3693510     1.6035860    -1.2365730
  H       -2.7265370    -0.8113720     0.9658980
  H       -3.0304070    -1.4295080    -0.6695770
  H       -0.3878110    -0.7763940     1.7355090
  H        2.9968101    -1.5560481    -0.3510090
  H        3.0116250     1.5901680     0.0320000
  H        0.1223170     3.2347930     0.3320250
  H       -3.0786550     1.3004670     0.0038890
units angstrom
no_reorient  #important for SAPT in psi4, default
symmetry c1  #important for SAPT in psi4, default
}

set PROPERTIES_ORIGIN ["COM"]
properties('MP2/aug-cc-pvtz', properties = ['dipole'])
--------------------------------------------------------------------------

    Molecular point group: c1
  Charge       = 0
  Multiplicity = 1
  Basis Set: AUG-CC-PVTZ
    Blend: AUG-CC-PVTZ
  Basis Set: (AUG-CC-PVTZ AUX)
    Blend: AUG-CC-PVTZ-JKFIT

    Orbital Energies [Eh]
    ---------------------

    Doubly Occupied:

       1A    -20.600112     2A    -20.594971     3A    -20.585492
       4A    -20.565559     5A    -20.565104     6A    -20.564449
       7A    -11.362444     8A    -11.304673     9A    -11.298862
      10A    -11.296844    11A    -11.294626    12A    -11.285795
      13A     -1.448173    14A     -1.391211    15A     -1.388618
      16A     -1.367435    17A     -1.355370    18A     -1.350663
      19A     -1.072298    20A     -1.051385    21A     -0.948372
      22A     -0.887211    23A     -0.847878    24A     -0.808582
      25A     -0.758996    26A     -0.736746    27A     -0.721046
      28A     -0.714035    29A     -0.689475    30A     -0.665517
      31A     -0.657102    32A     -0.639420    33A     -0.622980
      34A     -0.618640    35A     -0.598523    36A     -0.580629
      37A     -0.575702    38A     -0.562787    39A     -0.539177
      40A     -0.534772    41A     -0.528130    42A     -0.511839
      43A     -0.495777    44A     -0.483219    45A     -0.470063
      46A     -0.459694    47A     -0.444235    48A     -0.429855

  @DF-RHF Final Energy:  -683.60668511228346

   => Energetics <=

    Nuclear Repulsion Energy =            835.8245192150791354
    One-Electron Energy =               -2600.3134341460336145
    Two-Electron Energy =                1080.8822298186710213
    Total Energy =                       -683.6066851122834578
  Basis Set: (AUG-CC-PVTZ AUX)
    Blend: AUG-CC-PVTZ-RI
    Molecular point group: c1

    Geometry (in Angstrom), charge = 0, multiplicity = 1:

       Center              X                  Y                   Z               Mass
    ------------   -----------------  -----------------  -----------------  -----------------
         O           -0.854851607845     0.886837818604     0.269974867382    15.994914619570
         O           -0.316915607845    -1.653703181396     1.307174867382    15.994914619570
         O            2.096662392155    -1.962645181396    -0.182910132618    15.994914619570
         O            2.747200392155     0.774701818604    -0.444651132618    15.994914619570
         O            0.730920392155     2.527222818604     0.577179867382    15.994914619570
         O           -3.489701607845     0.538678818604    -0.458196132618    15.994914619570
         C           -0.243201607845    -1.405102181396    -0.092277132618    12.000000000000
         C            1.152654392155    -0.968322181396    -0.532409132618    12.000000000000
         C           -1.224269607845    -0.299428181396    -0.478001132618    12.000000000000
         C            1.500009392155     0.363188818604     0.108896867382    12.000000000000
         C            0.414109392155     1.386994818604    -0.164908132618    12.000000000000
         C           -2.670000607845    -0.570500181396    -0.111497132618    12.000000000000
         H           -0.496906607845    -2.349874181396    -0.586652132618     1.007825032230
         H            1.136101392155    -0.816987181396    -1.626860132618     1.007825032230
         H           -1.166999607845    -0.077955181396    -1.555264132618     1.007825032230
         H            1.578268392155     0.228631818604     1.196938867382     1.007825032230
         H            0.360164392155     1.604279818604    -1.245990132618     1.007825032230
         H           -2.735723607845    -0.810678181396     0.956480867382     1.007825032230
         H           -3.039593607845    -1.428814181396    -0.678994132618     1.007825032230
         H           -0.396997607845    -0.775700181396     1.726091867382     1.007825032230
         H            2.987623492155    -1.555354281396    -0.360426132618     1.007825032230
         H            3.002438392155     1.590861818604     0.022582867382     1.007825032230
         H            0.113130392155     3.235486818604     0.322607867382     1.007825032230
         H           -3.087841607845     1.301160818604    -0.005528132618     1.007825032230

  Basis Set: AUG-CC-PVTZ
    Blend: AUG-CC-PVTZ
  Basis Set: (AUG-CC-PVTZ AUX)
    Blend: AUG-CC-PVTZ-JKFIT
	 Reference Energy          =    -683.6066851122834578 [Eh]
	 Singles Energy            =      -0.0000000000000000 [Eh]
	 Same-Spin Energy          =      -0.6665940021383548 [Eh]
	 Opposite-Spin Energy      =      -2.0468156711050272 [Eh]
	 Correlation Energy        =      -2.7134096732433819 [Eh]
	 Total Energy              =    -686.3200947855268623 [Eh]

	 ================> DF-SCS-MP2 Energies <==================
	-----------------------------------------------------------
	 SCS Same-Spin Scale       =       0.3333333333333333 [-]
	 SCS Opposite-Spin Scale   =       1.2000000000000000 [-]
	 SCS Same-Spin Energy      =      -0.2221980007127849 [Eh]
	 SCS Opposite-Spin Energy  =      -2.4561788053260325 [Eh]
	 SCS Correlation Energy    =      -2.6783768060388176 [Eh]
	 SCS Total Energy          =    -686.2850619183222989 [Eh]
	-----------------------------------------------------------

  Dipole Moment: [D]
     X:     0.6852      Y:     3.1617      Z:    -1.1021     Total:     3.4176

*** Psi4 exiting successfully. Buy a developer a beer!
