                               Psi4 1.4a3.dev225

  ==> Input File <==

--------------------------------------------------------------------------
#psi4
#
memory 32 gb

molecule  {
0 1
  O       -0.8456650     0.8861440     0.2793920
  O       -0.3077290    -1.6543970     1.3165920
  O        2.1058490    -1.9633390    -0.1734930
  O        2.7563870     0.7740080    -0.4352340
  O        0.7401070     2.5265290     0.5865970
  O       -3.4805150     0.5379850    -0.4487790
  C       -0.2340150    -1.4057960    -0.0828600
  C        1.1618410    -0.9690160    -0.5229920
  C       -1.2279269    -0.2856468    -0.4736338
  C        1.5091960     0.3624950     0.1183140
  C        0.4232960     1.3863010    -0.1554910
  C       -2.6608140    -0.5711940    -0.1020800
  H       -0.4877200    -2.3505680    -0.5772350
  H        1.1452880    -0.8176810    -1.6174430
  H       -1.1578130    -0.0786490    -1.5458470
  H        1.5874550     0.2279380     1.2063560
  H        0.3693510     1.6035860    -1.2365730
  H       -2.7265370    -0.8113720     0.9658980
  H       -3.0304070    -1.4295080    -0.6695770
  H       -0.3878110    -0.7763940     1.7355090
  H        2.9789120    -1.5642300    -0.3474430
  H        3.0116250     1.5901680     0.0320000
  H        0.1223170     3.2347930     0.3320250
  H       -3.0786550     1.3004670     0.0038890
units angstrom
no_reorient  #important for SAPT in psi4, default
symmetry c1  #important for SAPT in psi4, default
}

set PROPERTIES_ORIGIN ["COM"]
properties('MP2/aug-cc-pvtz', properties = ['dipole'])
--------------------------------------------------------------------------

    Molecular point group: c1
  Charge       = 0
  Multiplicity = 1
  Basis Set: AUG-CC-PVTZ
    Blend: AUG-CC-PVTZ
  Basis Set: (AUG-CC-PVTZ AUX)
    Blend: AUG-CC-PVTZ-JKFIT

    Orbital Energies [Eh]
    ---------------------

    Doubly Occupied:

       1A    -20.600478     2A    -20.595467     3A    -20.585379
       4A    -20.564863     5A    -20.564009     6A    -20.563894
       7A    -11.362988     8A    -11.304324     9A    -11.298923
      10A    -11.297066    11A    -11.294590    12A    -11.285369
      13A     -1.449060    14A     -1.392093    15A     -1.389046
      16A     -1.367832    17A     -1.356862    18A     -1.352162
      19A     -1.070984    20A     -1.051735    21A     -0.949101
      22A     -0.886809    23A     -0.848588    24A     -0.808959
      25A     -0.759616    26A     -0.737073    27A     -0.721824
      28A     -0.714910    29A     -0.689860    30A     -0.665245
      31A     -0.658357    32A     -0.640158    33A     -0.622835
      34A     -0.620302    35A     -0.598849    36A     -0.580501
      37A     -0.575919    38A     -0.562900    39A     -0.539827
      40A     -0.535511    41A     -0.529114    42A     -0.512792
      43A     -0.496281    44A     -0.481085    45A     -0.470219
      46A     -0.460045    47A     -0.444874    48A     -0.428331

  @DF-RHF Final Energy:  -683.60828939064208

   => Energetics <=

    Nuclear Repulsion Energy =            835.8193233580968808
    One-Electron Energy =               -2600.2812179490247217
    Two-Electron Energy =                1080.8536052002857559
    Total Energy =                       -683.6082893906420850
  Basis Set: (AUG-CC-PVTZ AUX)
    Blend: AUG-CC-PVTZ-RI
    Molecular point group: c1

    Geometry (in Angstrom), charge = 0, multiplicity = 1:

       Center              X                  Y                   Z               Mass
    ------------   -----------------  -----------------  -----------------  -----------------
         O           -0.853895472591     0.885918939547     0.270291443098    15.994914619570
         O           -0.315959472591    -1.654622060453     1.307491443098    15.994914619570
         O            2.097618527409    -1.963564060453    -0.182593556902    15.994914619570
         O            2.748156527409     0.773782939547    -0.444334556902    15.994914619570
         O            0.731876527409     2.526303939547     0.577496443098    15.994914619570
         O           -3.488745472591     0.537759939547    -0.457879556902    15.994914619570
         C           -0.242245472591    -1.406021060453    -0.091960556902    12.000000000000
         C            1.153610527409    -0.969241060453    -0.532092556902    12.000000000000
         C           -1.236157372591    -0.285871860453    -0.482734356902    12.000000000000
         C            1.500965527409     0.362269939547     0.109213443098    12.000000000000
         C            0.415065527409     1.386075939547    -0.164591556902    12.000000000000
         C           -2.669044472591    -0.571419060453    -0.111180556902    12.000000000000
         H           -0.495950472591    -2.350793060453    -0.586335556902     1.007825032230
         H            1.137057527409    -0.817906060453    -1.626543556902     1.007825032230
         H           -1.166043472591    -0.078874060453    -1.554947556902     1.007825032230
         H            1.579224527409     0.227712939547     1.197255443098     1.007825032230
         H            0.361120527409     1.603360939547    -1.245673556902     1.007825032230
         H           -2.734767472591    -0.811597060453     0.956797443098     1.007825032230
         H           -3.038637472591    -1.429733060453    -0.678677556902     1.007825032230
         H           -0.396041472591    -0.776619060453     1.726408443098     1.007825032230
         H            2.970681527409    -1.564455060453    -0.356543556902     1.007825032230
         H            3.003394527409     1.589942939547     0.022899443098     1.007825032230
         H            0.114086527409     3.234567939547     0.322924443098     1.007825032230
         H           -3.086885472591     1.300241939547    -0.005211556902     1.007825032230

  Basis Set: AUG-CC-PVTZ
    Blend: AUG-CC-PVTZ
  Basis Set: (AUG-CC-PVTZ AUX)
    Blend: AUG-CC-PVTZ-JKFIT
	 Reference Energy          =    -683.6082893906420850 [Eh]
	 Singles Energy            =      -0.0000000000000000 [Eh]
	 Same-Spin Energy          =      -0.6662284777396181 [Eh]
	 Opposite-Spin Energy      =      -2.0459867750016949 [Eh]
	 Correlation Energy        =      -2.7122152527413128 [Eh]
	 Total Energy              =    -686.3205046433834013 [Eh]

	 ================> DF-SCS-MP2 Energies <==================
	-----------------------------------------------------------
	 SCS Same-Spin Scale       =       0.3333333333333333 [-]
	 SCS Opposite-Spin Scale   =       1.2000000000000000 [-]
	 SCS Same-Spin Energy      =      -0.2220761592465394 [Eh]
	 SCS Opposite-Spin Energy  =      -2.4551841300020336 [Eh]
	 SCS Correlation Energy    =      -2.6772602892485731 [Eh]
	 SCS Total Energy          =    -686.2855496798906643 [Eh]
	-----------------------------------------------------------

  Dipole Moment: [D]
     X:     0.6561      Y:     3.1779      Z:    -1.1022     Total:     3.4270

*** Psi4 exiting successfully. Buy a developer a beer!
