                               Psi4 1.3.2 release

  ==> Input File <==

--------------------------------------------------------------------------
#psi4
#
memory 32 gb

molecule  {
0 1
  O       -0.7993378     0.8835140     0.2590096
  O       -0.3079160    -1.6544620     1.3165970
  O        2.1058880    -1.9633380    -0.1734630
  O        2.7564030     0.7739560    -0.4353370
  O        0.7402180     2.5264820     0.5866940
  O       -3.4805510     0.5379580    -0.4489300
  C       -0.2340330    -1.4057570    -0.0828570
  C        1.1618270    -0.9690140    -0.5229560
  C       -1.2150640    -0.3000600    -0.4685780
  C        1.5092100     0.3624850     0.1183010
  C        0.4233390     1.3863000    -0.1554910
  C       -2.6607760    -0.5711350    -0.1020210
  H       -0.4877470    -2.3504840    -0.5773070
  H        1.1452800    -0.8176870    -1.6174030
  H       -1.1578680    -0.0786640    -1.5458690
  H        1.5875790     0.2279570     1.2063390
  H        0.3695010     1.6036290    -1.2365780
  H       -2.7264410    -0.8110830     0.9660040
  H       -3.0303370    -1.4295750    -0.6693420
  H       -0.3876700    -0.7765070     1.7356760
  H        2.9789380    -1.5641560    -0.3473760
  H        3.0115730     1.5902370     0.0317380
  H        0.1218180     3.2344810     0.3328360
  H       -3.0789740     1.3005050     0.0038810
units angstrom
no_reorient  #important for SAPT in psi4, default
symmetry c1  #important for SAPT in psi4, default
}

set PROPERTIES_ORIGIN ["COM"]
properties('MP2/aug-cc-pvtz', properties = ['dipole'])
--------------------------------------------------------------------------

    Molecular point group: c1
  Charge       = 0
  Multiplicity = 1
  Basis Set: AUG-CC-PVTZ
    Blend: AUG-CC-PVTZ
  Basis Set: (AUG-CC-PVTZ AUX)
    Blend: AUG-CC-PVTZ-JKFIT

    Orbital Energies [Eh]
    ---------------------

    Doubly Occupied:

       1A    -20.597610     2A    -20.593455     3A    -20.582623
       4A    -20.567023     5A    -20.565748     6A    -20.563429
       7A    -11.357727     8A    -11.307604     9A    -11.297129
      10A    -11.295727    11A    -11.294068    12A    -11.288921
      13A     -1.457042    14A     -1.390962    15A     -1.388926
      16A     -1.368356    17A     -1.358879    18A     -1.353524
      19A     -1.073226    20A     -1.054010    21A     -0.948846
      22A     -0.886623    23A     -0.852902    24A     -0.809396
      25A     -0.759754    26A     -0.738473    27A     -0.722533
      28A     -0.716107    29A     -0.692795    30A     -0.665685
      31A     -0.657853    32A     -0.641680    33A     -0.624334
      34A     -0.620255    35A     -0.599841    36A     -0.580139
      37A     -0.577457    38A     -0.562142    39A     -0.541166
      40A     -0.534955    41A     -0.526686    42A     -0.512146
      43A     -0.498006    44A     -0.483522    45A     -0.470670
      46A     -0.458136    47A     -0.443426    48A     -0.428758

  @DF-RHF Final Energy:  -683.60939486813197

   => Energetics <=

    Nuclear Repulsion Energy =            837.0789053690945138
    One-Electron Energy =               -2602.7560540836520886
    Two-Electron Energy =                1082.0677538464256031
    Total Energy =                       -683.6093948681318579
  Basis Set: (AUG-CC-PVTZ AUX)
    Blend: AUG-CC-PVTZ-RI
    Molecular point group: c1

    Geometry (in Angstrom), charge = 0, multiplicity = 1:

       Center              X                  Y                   Z               Mass
    ------------   -----------------  -----------------  -----------------  -----------------
         O           -0.812537872162     0.884493472326     0.251382015433    15.994914619570
         O           -0.321116072162    -1.653482527674     1.308969415433    15.994914619570
         O            2.092687927838    -1.962358527674    -0.181090584567    15.994914619570
         O            2.743202927838     0.774935472326    -0.442964584567    15.994914619570
         O            0.727017927838     2.527461472326     0.579066415433    15.994914619570
         O           -3.493751072162     0.538937472326    -0.456557584567    15.994914619570
         C           -0.247233072162    -1.404777527674    -0.090484584567    12.000000000000
         C            1.148626927838    -0.968034527674    -0.530583584567    12.000000000000
         C           -1.228264072162    -0.299080527674    -0.476205584567    12.000000000000
         C            1.496009927838     0.363464472326     0.110673415433    12.000000000000
         C            0.410138927838     1.387279472326    -0.163118584567    12.000000000000
         C           -2.673976072162    -0.570155527674    -0.109648584567    12.000000000000
         H           -0.500947072162    -2.349504527674    -0.584934584567     1.007825032230
         H            1.132079927838    -0.816707527674    -1.625030584567     1.007825032230
         H           -1.171068072162    -0.077684527674    -1.553496584567     1.007825032230
         H            1.574378927838     0.228936472326     1.198711415433     1.007825032230
         H            0.356300927838     1.604608472326    -1.244205584567     1.007825032230
         H           -2.739641072162    -0.810103527674     0.958376415433     1.007825032230
         H           -3.043537072162    -1.428595527674    -0.676969584567     1.007825032230
         H           -0.400870072162    -0.775527527674     1.728048415433     1.007825032230
         H            2.965737927838    -1.563176527674    -0.355003584567     1.007825032230
         H            2.998372927838     1.591216472326     0.024110415433     1.007825032230
         H            0.108617927838     3.235460472326     0.325208415433     1.007825032230
         H           -3.092174072162     1.301484472326    -0.003746584567     1.007825032230

  Basis Set: AUG-CC-PVTZ
    Blend: AUG-CC-PVTZ
  Basis Set: (AUG-CC-PVTZ AUX)
    Blend: AUG-CC-PVTZ-JKFIT
	 Reference Energy          =    -683.6093948681319716 [Eh]
	 Singles Energy            =      -0.0000000000000000 [Eh]
	 Same-Spin Energy          =      -0.6658919835282494 [Eh]
	 Opposite-Spin Energy      =      -2.0445602683373938 [Eh]
	 Correlation Energy        =      -2.7104522518656431 [Eh]
	 Total Energy              =    -686.3198471199975756 [Eh]

	 ================> DF-SCS-MP2 Energies <==================
	-----------------------------------------------------------
	 SCS Same-Spin Scale       =       0.3333333333333333 [-]
	 SCS Opposite-Spin Scale   =       1.2000000000000000 [-]
	 SCS Same-Spin Energy      =      -0.2219639945094165 [Eh]
	 SCS Opposite-Spin Energy  =      -2.4534723220048726 [Eh]
	 SCS Correlation Energy    =      -2.6754363165142889 [Eh]
	 SCS Total Energy          =    -686.2848311846462366 [Eh]
	-----------------------------------------------------------

  Dipole Moment: [D]
     X:     0.4223      Y:     3.0752      Z:    -1.0621     Total:     3.2807

*** Psi4 exiting successfully. Buy a developer a beer!
