                               Psi4 1.3.2 release

  ==> Input File <==

--------------------------------------------------------------------------
#psi4
#
memory 32 gb

molecule  {
0 1
  O       -0.8456270     0.8862080     0.2793150
  O       -0.3079160    -1.6544620     1.3165970
  O        2.1058880    -1.9633380    -0.1734630
  O        2.7564030     0.7739560    -0.4353370
  O        0.7402180     2.5264820     0.5866940
  O       -3.4805510     0.5379580    -0.4489300
  C       -0.2340330    -1.4057570    -0.0828570
  C        1.1618270    -0.9690140    -0.5229560
  C       -1.2150640    -0.3000600    -0.4685780
  C        1.5092100     0.3624850     0.1183010
  C        0.4233390     1.3863000    -0.1554910
  C       -2.6607760    -0.5711350    -0.1020210
  H       -0.4877470    -2.3504840    -0.5773070
  H        1.1452800    -0.8176870    -1.6174030
  H       -1.1578680    -0.0786640    -1.5458690
  H        1.5875790     0.2279570     1.2063390
  H        0.3695010     1.6036290    -1.2365780
  H       -2.7264410    -0.8110830     0.9660040
  H       -3.0303370    -1.4295750    -0.6693420
  H       -0.3876700    -0.7765070     1.7356760
  H        2.9789380    -1.5641560    -0.3473760
  H        3.0115730     1.5902370     0.0317380
  H        0.1218180     3.2344810     0.3328360
  H       -3.1202232     1.2221777    -0.0426308
units angstrom
no_reorient  #important for SAPT in psi4, default
symmetry c1  #important for SAPT in psi4, default
}

set PROPERTIES_ORIGIN ["COM"]
properties('MP2/aug-cc-pvtz', properties = ['dipole'])
--------------------------------------------------------------------------

    Molecular point group: c1
  Charge       = 0
  Multiplicity = 1
  Basis Set: AUG-CC-PVTZ
    Blend: AUG-CC-PVTZ
  Basis Set: (AUG-CC-PVTZ AUX)
    Blend: AUG-CC-PVTZ-JKFIT

    Orbital Energies [Eh]
    ---------------------

    Doubly Occupied:

       1A    -20.599751     2A    -20.594694     3A    -20.585322
       4A    -20.565464     5A    -20.564208     6A    -20.555734
       7A    -11.362254     8A    -11.305332     9A    -11.298905
      10A    -11.297294    11A    -11.295023    12A    -11.287138
      13A     -1.448230    14A     -1.397269    15A     -1.391428
      16A     -1.381202    17A     -1.360830    18A     -1.353240
      19A     -1.073454    20A     -1.053545    21A     -0.953034
      22A     -0.887684    23A     -0.853653    24A     -0.808800
      25A     -0.759721    26A     -0.740159    27A     -0.723667
      28A     -0.714527    29A     -0.700580    30A     -0.667510
      31A     -0.658774    32A     -0.641383    33A     -0.624638
      34A     -0.619731    35A     -0.601263    36A     -0.581168
      37A     -0.576330    38A     -0.563903    39A     -0.541735
      40A     -0.535576    41A     -0.529157    42A     -0.514049
      43A     -0.497332    44A     -0.483572    45A     -0.471863
      46A     -0.460422    47A     -0.445168    48A     -0.430885

  @DF-RHF Final Energy:  -683.60329475446053

   => Energetics <=

    Nuclear Repulsion Energy =            836.4686311668416465
    One-Electron Energy =               -2601.4306510675037316
    Two-Electron Energy =                1081.3587251462017775
    Total Energy =                       -683.6032947544604212
  Basis Set: (AUG-CC-PVTZ AUX)
    Blend: AUG-CC-PVTZ-RI
    Molecular point group: c1

    Geometry (in Angstrom), charge = 0, multiplicity = 1:

       Center              X                  Y                   Z               Mass
    ------------   -----------------  -----------------  -----------------  -----------------
         O           -0.854484358263     0.887386568400     0.270144029041    15.994914619570
         O           -0.316773358263    -1.653283431600     1.307426029041    15.994914619570
         O            2.097030641737    -1.962159431600    -0.182633970959    15.994914619570
         O            2.747545641737     0.775134568400    -0.444507970959    15.994914619570
         O            0.731360641737     2.527660568400     0.577523029041    15.994914619570
         O           -3.489408358263     0.539136568400    -0.458100970959    15.994914619570
         C           -0.242890358263    -1.404578431600    -0.092027970959    12.000000000000
         C            1.152969641737    -0.967835431600    -0.532126970959    12.000000000000
         C           -1.223921358263    -0.298881431600    -0.477748970959    12.000000000000
         C            1.500352641737     0.363663568400     0.109130029041    12.000000000000
         C            0.414481641737     1.387478568400    -0.164661970959    12.000000000000
         C           -2.669633358263    -0.569956431600    -0.111191970959    12.000000000000
         H           -0.496604358263    -2.349305431600    -0.586477970959     1.007825032230
         H            1.136422641737    -0.816508431600    -1.626573970959     1.007825032230
         H           -1.166725358263    -0.077485431600    -1.555039970959     1.007825032230
         H            1.578721641737     0.229135568400     1.197168029041     1.007825032230
         H            0.360643641737     1.604807568400    -1.245748970959     1.007825032230
         H           -2.735298358263    -0.809904431600     0.956833029041     1.007825032230
         H           -3.039194358263    -1.428396431600    -0.678512970959     1.007825032230
         H           -0.396527358263    -0.775328431600     1.726505029041     1.007825032230
         H            2.970080641737    -1.562977431600    -0.356546970959     1.007825032230
         H            3.002715641737     1.591415568400     0.022567029041     1.007825032230
         H            0.112960641737     3.235659568400     0.323665029041     1.007825032230
         H           -3.129080558263     1.223356268400    -0.051801770959     1.007825032230

  Basis Set: AUG-CC-PVTZ
    Blend: AUG-CC-PVTZ
  Basis Set: (AUG-CC-PVTZ AUX)
    Blend: AUG-CC-PVTZ-JKFIT
	 Reference Energy          =    -683.6032947544605349 [Eh]
	 Singles Energy            =      -0.0000000000000000 [Eh]
	 Same-Spin Energy          =      -0.6651043438335492 [Eh]
	 Opposite-Spin Energy      =      -2.0432521058268858 [Eh]
	 Correlation Energy        =      -2.7083564496604349 [Eh]
	 Total Energy              =    -686.3116512041209489 [Eh]

	 ================> DF-SCS-MP2 Energies <==================
	-----------------------------------------------------------
	 SCS Same-Spin Scale       =       0.3333333333333333 [-]
	 SCS Opposite-Spin Scale   =       1.2000000000000000 [-]
	 SCS Same-Spin Energy      =      -0.2217014479445164 [Eh]
	 SCS Opposite-Spin Energy  =      -2.4519025269922627 [Eh]
	 SCS Correlation Energy    =      -2.6736039749367793 [Eh]
	 SCS Total Energy          =    -686.2768987293973169 [Eh]
	-----------------------------------------------------------

  Dipole Moment: [D]
     X:     0.6346      Y:     3.0777      Z:    -1.1294     Total:     3.3392

*** Psi4 exiting successfully. Buy a developer a beer!
