                               Psi4 1.4a3.dev225

  ==> Input File <==

--------------------------------------------------------------------------
#psi4
#
memory 32 gb

molecule  {
0 1
  O       -0.8456650     0.8861440     0.2793920
  O       -0.3077290    -1.6543970     1.3165920
  O        2.1058490    -1.9633390    -0.1734930
  O        2.7563870     0.7740080    -0.4352340
  O        0.7401070     2.5265290     0.5865970
  O       -3.4805150     0.5379850    -0.4487790
  C       -0.2340150    -1.4057960    -0.0828600
  C        1.1618410    -0.9690160    -0.5229920
  C       -1.2150830    -0.3001220    -0.4685840
  C        1.5091960     0.3624950     0.1183140
  C        0.4232960     1.3863010    -0.1554910
  C       -2.6798883    -0.5747704    -0.0972445
  H       -0.4877200    -2.3505680    -0.5772350
  H        1.1452880    -0.8176810    -1.6174430
  H       -1.1578130    -0.0786490    -1.5458470
  H        1.5874550     0.2279380     1.2063560
  H        0.3693510     1.6035860    -1.2365730
  H       -2.7265370    -0.8113720     0.9658980
  H       -3.0304070    -1.4295080    -0.6695770
  H       -0.3878110    -0.7763940     1.7355090
  H        2.9789120    -1.5642300    -0.3474430
  H        3.0116250     1.5901680     0.0320000
  H        0.1223170     3.2347930     0.3320250
  H       -3.0786550     1.3004670     0.0038890
units angstrom
no_reorient  #important for SAPT in psi4, default
symmetry c1  #important for SAPT in psi4, default
}

set PROPERTIES_ORIGIN ["COM"]
properties('MP2/aug-cc-pvtz', properties = ['dipole'])
--------------------------------------------------------------------------

    Molecular point group: c1
  Charge       = 0
  Multiplicity = 1
  Basis Set: AUG-CC-PVTZ
    Blend: AUG-CC-PVTZ
  Basis Set: (AUG-CC-PVTZ AUX)
    Blend: AUG-CC-PVTZ-JKFIT

    Orbital Energies [Eh]
    ---------------------

    Doubly Occupied:

       1A    -20.599976     2A    -20.594724     3A    -20.585189
       4A    -20.564980     5A    -20.564918     6A    -20.563826
       7A    -11.362268     8A    -11.304687     9A    -11.298719
      10A    -11.296386    11A    -11.294512    12A    -11.285878
      13A     -1.447841    14A     -1.391753    15A     -1.388772
      16A     -1.368703    17A     -1.357440    18A     -1.352169
      19A     -1.072073    20A     -1.048961    21A     -0.947819
      22A     -0.887063    23A     -0.849581    24A     -0.808306
      25A     -0.759323    26A     -0.736630    27A     -0.721471
      28A     -0.713673    29A     -0.690466    30A     -0.665925
      31A     -0.658259    32A     -0.639972    33A     -0.623451
      34A     -0.618329    35A     -0.601248    36A     -0.580760
      37A     -0.575775    38A     -0.563208    39A     -0.539831
      40A     -0.534833    41A     -0.528095    42A     -0.511199
      43A     -0.495911    44A     -0.483168    45A     -0.469819
      46A     -0.459560    47A     -0.443925    48A     -0.428642

  @DF-RHF Final Energy:  -683.60828642093907

   => Energetics <=

    Nuclear Repulsion Energy =            835.5899751197582646
    One-Electron Energy =               -2599.8364849133763528
    Two-Electron Energy =                1080.6382233726790218
    Total Energy =                       -683.6082864209390664
  Basis Set: (AUG-CC-PVTZ AUX)
    Blend: AUG-CC-PVTZ-RI
    Molecular point group: c1

    Geometry (in Angstrom), charge = 0, multiplicity = 1:

       Center              X                  Y                   Z               Mass
    ------------   -----------------  -----------------  -----------------  -----------------
         O           -0.853480258811     0.887121955897     0.269632655094    15.994914619570
         O           -0.315544258811    -1.653419044103     1.306832655094    15.994914619570
         O            2.098033741189    -1.962361044103    -0.183252344906    15.994914619570
         O            2.748571741189     0.774985955897    -0.444993344906    15.994914619570
         O            0.732291741189     2.527506955897     0.576837655094    15.994914619570
         O           -3.488330258811     0.538962955897    -0.458538344906    15.994914619570
         C           -0.241830258811    -1.404818044103    -0.092619344906    12.000000000000
         C            1.154025741189    -0.968038044103    -0.532751344906    12.000000000000
         C           -1.222898258811    -0.299144044103    -0.478343344906    12.000000000000
         C            1.501380741189     0.363472955897     0.108554655094    12.000000000000
         C            0.415480741189     1.387278955897    -0.165250344906    12.000000000000
         C           -2.687703558811    -0.573792444103    -0.107003844906    12.000000000000
         H           -0.495535258811    -2.349590044103    -0.586994344906     1.007825032230
         H            1.137472741189    -0.816703044103    -1.627202344906     1.007825032230
         H           -1.165628258811    -0.077671044103    -1.555606344906     1.007825032230
         H            1.579639741189     0.228915955897     1.196596655094     1.007825032230
         H            0.361535741189     1.604563955897    -1.246332344906     1.007825032230
         H           -2.734352258811    -0.810394044103     0.956138655094     1.007825032230
         H           -3.038222258811    -1.428530044103    -0.679336344906     1.007825032230
         H           -0.395626258811    -0.775416044103     1.725749655094     1.007825032230
         H            2.971096741189    -1.563252044103    -0.357202344906     1.007825032230
         H            3.003809741189     1.591145955897     0.022240655094     1.007825032230
         H            0.114501741189     3.235770955897     0.322265655094     1.007825032230
         H           -3.086470258811     1.301444955897    -0.005870344906     1.007825032230

  Basis Set: AUG-CC-PVTZ
    Blend: AUG-CC-PVTZ
  Basis Set: (AUG-CC-PVTZ AUX)
    Blend: AUG-CC-PVTZ-JKFIT
	 Reference Energy          =    -683.6082864209390664 [Eh]
	 Singles Energy            =      -0.0000000000000000 [Eh]
	 Same-Spin Energy          =      -0.6661984498214291 [Eh]
	 Opposite-Spin Energy      =      -2.0459384260263009 [Eh]
	 Correlation Energy        =      -2.7121368758477300 [Eh]
	 Total Energy              =    -686.3204232967867711 [Eh]

	 ================> DF-SCS-MP2 Energies <==================
	-----------------------------------------------------------
	 SCS Same-Spin Scale       =       0.3333333333333333 [-]
	 SCS Opposite-Spin Scale   =       1.2000000000000000 [-]
	 SCS Same-Spin Energy      =      -0.2220661499404764 [Eh]
	 SCS Opposite-Spin Energy  =      -2.4551261112315612 [Eh]
	 SCS Correlation Energy    =      -2.6771922611720376 [Eh]
	 SCS Total Energy          =    -686.2854786821111475 [Eh]
	-----------------------------------------------------------

  Dipole Moment: [D]
     X:     0.6230      Y:     3.1665      Z:    -1.0974     Total:     3.4087

*** Psi4 exiting successfully. Buy a developer a beer!
