                               Psi4 1.3.2 release

  ==> Input File <==

--------------------------------------------------------------------------
#psi4
#
memory 32 gb

molecule  {
0 1
  O       -0.8456270     0.8862080     0.2793150
  O       -0.3079160    -1.6544620     1.3165970
  O        2.1058880    -1.9633380    -0.1734630
  O        2.7564030     0.7739560    -0.4353370
  O        0.7402180     2.5264820     0.5866940
  O       -3.4805510     0.5379580    -0.4489300
  C       -0.2340330    -1.4057570    -0.0828570
  C        1.1618270    -0.9690140    -0.5229560
  C       -1.2150640    -0.3000600    -0.4685780
  C        1.5092100     0.3624850     0.1183010
  C        0.4233390     1.3863000    -0.1554910
  C       -2.5654056    -0.5532528    -0.1262019
  H       -0.4877470    -2.3504840    -0.5773070
  H        1.1452800    -0.8176870    -1.6174030
  H       -1.1578680    -0.0786640    -1.5458690
  H        1.5875790     0.2279570     1.2063390
  H        0.3695010     1.6036290    -1.2365780
  H       -2.7264410    -0.8110830     0.9660040
  H       -3.0303370    -1.4295750    -0.6693420
  H       -0.3876700    -0.7765070     1.7356760
  H        2.9789380    -1.5641560    -0.3473760
  H        3.0115730     1.5902370     0.0317380
  H        0.1218180     3.2344810     0.3328360
  H       -3.0789740     1.3005050     0.0038810
units angstrom
no_reorient  #important for SAPT in psi4, default
symmetry c1  #important for SAPT in psi4, default
}

set PROPERTIES_ORIGIN ["COM"]
properties('MP2/aug-cc-pvtz', properties = ['dipole'])
--------------------------------------------------------------------------

    Molecular point group: c1
  Charge       = 0
  Multiplicity = 1
  Basis Set: AUG-CC-PVTZ
    Blend: AUG-CC-PVTZ
  Basis Set: (AUG-CC-PVTZ AUX)
    Blend: AUG-CC-PVTZ-JKFIT

    Orbital Energies [Eh]
    ---------------------

    Doubly Occupied:

       1A    -20.601032     2A    -20.596528     3A    -20.586405
       4A    -20.566621     5A    -20.565446     6A    -20.562464
       7A    -11.363675     8A    -11.303595     9A    -11.300198
      10A    -11.299898    11A    -11.296617    12A    -11.287217
      13A     -1.450381    14A     -1.393187    15A     -1.390631
      16A     -1.366395    17A     -1.355527    18A     -1.346111
      19A     -1.081310    20A     -1.063655    21A     -0.954154
      22A     -0.889619    23A     -0.841729    24A     -0.811098
      25A     -0.761428    26A     -0.739969    27A     -0.725170
      28A     -0.716988    29A     -0.687428    30A     -0.666043
      31A     -0.660398    32A     -0.641907    33A     -0.622906
      34A     -0.619845    35A     -0.589635    36A     -0.580061
      37A     -0.574304    38A     -0.560303    39A     -0.541051
      40A     -0.536840    41A     -0.529048    42A     -0.514095
      43A     -0.497878    44A     -0.484318    45A     -0.468493
      46A     -0.461080    47A     -0.445957    48A     -0.434964

  @DF-RHF Final Energy:  -683.59524963535875

   => Energetics <=

    Nuclear Repulsion Energy =            837.7709642313219547
    One-Electron Energy =               -2604.0652265740523035
    Two-Electron Energy =                1082.6990127073713666
    Total Energy =                       -683.5952496353588685
  Basis Set: (AUG-CC-PVTZ AUX)
    Blend: AUG-CC-PVTZ-RI
    Molecular point group: c1

    Geometry (in Angstrom), charge = 0, multiplicity = 1:

       Center              X                  Y                   Z               Mass
    ------------   -----------------  -----------------  -----------------  -----------------
         O           -0.861071020821     0.885756439051     0.271495192352    15.994914619570
         O           -0.323360020821    -1.654913560949     1.308777192352    15.994914619570
         O            2.090443979179    -1.963789560949    -0.181282807648    15.994914619570
         O            2.740958979179     0.773504439051    -0.443156807648    15.994914619570
         O            0.724773979179     2.526030439051     0.578874192352    15.994914619570
         O           -3.495995020821     0.537506439051    -0.456749807648    15.994914619570
         C           -0.249477020821    -1.406208560949    -0.090676807648    12.000000000000
         C            1.146382979179    -0.969465560949    -0.530775807648    12.000000000000
         C           -1.230508020821    -0.300511560949    -0.476397807648    12.000000000000
         C            1.493765979179     0.362033439051     0.110481192352    12.000000000000
         C            0.407894979179     1.385848439051    -0.163310807648    12.000000000000
         C           -2.580849620821    -0.553704360949    -0.134021707648    12.000000000000
         H           -0.503191020821    -2.350935560949    -0.585126807648     1.007825032230
         H            1.129835979179    -0.818138560949    -1.625222807648     1.007825032230
         H           -1.173312020821    -0.079115560949    -1.553688807648     1.007825032230
         H            1.572134979179     0.227505439051     1.198519192352     1.007825032230
         H            0.354056979179     1.603177439051    -1.244397807648     1.007825032230
         H           -2.741885020821    -0.811534560949     0.958184192352     1.007825032230
         H           -3.045781020821    -1.430026560949    -0.677161807648     1.007825032230
         H           -0.403114020821    -0.776958560949     1.727856192352     1.007825032230
         H            2.963493979179    -1.564607560949    -0.355195807648     1.007825032230
         H            2.996128979179     1.589785439051     0.023918192352     1.007825032230
         H            0.106373979179     3.234029439051     0.325016192352     1.007825032230
         H           -3.094418020821     1.300053439051    -0.003938807648     1.007825032230

  Basis Set: AUG-CC-PVTZ
    Blend: AUG-CC-PVTZ
  Basis Set: (AUG-CC-PVTZ AUX)
    Blend: AUG-CC-PVTZ-JKFIT
	 Reference Energy          =    -683.5952496353587549 [Eh]
	 Singles Energy            =      -0.0000000000000000 [Eh]
	 Same-Spin Energy          =      -0.6676510238115800 [Eh]
	 Opposite-Spin Energy      =      -2.0484167138226841 [Eh]
	 Correlation Energy        =      -2.7160677376342641 [Eh]
	 Total Energy              =    -686.3113173729930168 [Eh]

	 ================> DF-SCS-MP2 Energies <==================
	-----------------------------------------------------------
	 SCS Same-Spin Scale       =       0.3333333333333333 [-]
	 SCS Opposite-Spin Scale   =       1.2000000000000000 [-]
	 SCS Same-Spin Energy      =      -0.2225503412705267 [Eh]
	 SCS Opposite-Spin Energy  =      -2.4581000565872206 [Eh]
	 SCS Correlation Energy    =      -2.6806503978577472 [Eh]
	 SCS Total Energy          =    -686.2759000332165442 [Eh]
	-----------------------------------------------------------

  Dipole Moment: [D]
     X:     0.8611      Y:     3.1059      Z:    -1.1108     Total:     3.4091

*** Psi4 exiting successfully. Buy a developer a beer!
