                               Psi4 1.3.2 release

  ==> Input File <==

--------------------------------------------------------------------------
#psi4
#
memory 32 gb

molecule  {
0 1
  O       -0.8456270     0.8862080     0.2793150
  O       -0.3079160    -1.6544620     1.3165970
  O        2.1058880    -1.9633380    -0.1734630
  O        2.7564030     0.7739560    -0.4353370
  O        0.7402180     2.5264820     0.5866940
  O       -3.4805510     0.5379580    -0.4489300
  C       -0.2305847    -1.4547250    -0.0904955
  C        1.1618270    -0.9690140    -0.5229560
  C       -1.2150640    -0.3000600    -0.4685780
  C        1.5092100     0.3624850     0.1183010
  C        0.4233390     1.3863000    -0.1554910
  C       -2.6607760    -0.5711350    -0.1020210
  H       -0.4877470    -2.3504840    -0.5773070
  H        1.1452800    -0.8176870    -1.6174030
  H       -1.1578680    -0.0786640    -1.5458690
  H        1.5875790     0.2279570     1.2063390
  H        0.3695010     1.6036290    -1.2365780
  H       -2.7264410    -0.8110830     0.9660040
  H       -3.0303370    -1.4295750    -0.6693420
  H       -0.3876700    -0.7765070     1.7356760
  H        2.9789380    -1.5641560    -0.3473760
  H        3.0115730     1.5902370     0.0317380
  H        0.1218180     3.2344810     0.3328360
  H       -3.0789740     1.3005050     0.0038810
units angstrom
no_reorient  #important for SAPT in psi4, default
symmetry c1  #important for SAPT in psi4, default
}

set PROPERTIES_ORIGIN ["COM"]
properties('MP2/aug-cc-pvtz', properties = ['dipole'])
--------------------------------------------------------------------------

    Molecular point group: c1
  Charge       = 0
  Multiplicity = 1
  Basis Set: AUG-CC-PVTZ
    Blend: AUG-CC-PVTZ
  Basis Set: (AUG-CC-PVTZ AUX)
    Blend: AUG-CC-PVTZ-JKFIT

    Orbital Energies [Eh]
    ---------------------

    Doubly Occupied:

       1A    -20.600043     2A    -20.595601     3A    -20.585873
       4A    -20.563707     5A    -20.563488     6A    -20.563270
       7A    -11.362360     8A    -11.304914     9A    -11.299627
      10A    -11.296627    11A    -11.295016    12A    -11.284759
      13A     -1.447593    14A     -1.392116    15A     -1.387642
      16A     -1.367126    17A     -1.356158    18A     -1.351250
      19A     -1.068979    20A     -1.049078    21A     -0.948838
      22A     -0.889130    23A     -0.846306    24A     -0.809992
      25A     -0.761398    26A     -0.735772    27A     -0.719901
      28A     -0.713148    29A     -0.689144    30A     -0.665786
      31A     -0.660061    32A     -0.641863    33A     -0.620874
      34A     -0.617445    35A     -0.597679    36A     -0.588790
      37A     -0.574592    38A     -0.562331    39A     -0.540020
      40A     -0.533299    41A     -0.529219    42A     -0.512015
      43A     -0.495266    44A     -0.481368    45A     -0.469847
      46A     -0.459350    47A     -0.445763    48A     -0.425166

  @DF-RHF Final Energy:  -683.60614751764535

   => Energetics <=

    Nuclear Repulsion Energy =            835.0332230949302357
    One-Electron Energy =               -2598.7395530217181658
    Two-Electron Energy =                1080.1001824091426897
    Total Energy =                       -683.6061475176452404
  Basis Set: (AUG-CC-PVTZ AUX)
    Blend: AUG-CC-PVTZ-RI
    Molecular point group: c1

    Geometry (in Angstrom), charge = 0, multiplicity = 1:

       Center              X                  Y                   Z               Mass
    ------------   -----------------  -----------------  -----------------  -----------------
         O           -0.854945038123     0.890211550156     0.270392753916    15.994914619570
         O           -0.317234038123    -1.650458449844     1.307674753916    15.994914619570
         O            2.096569961877    -1.959334449844    -0.182385246084    15.994914619570
         O            2.747084961877     0.777959550156    -0.444259246084    15.994914619570
         O            0.730899961877     2.530485550156     0.577771753916    15.994914619570
         O           -3.489869038123     0.541961550156    -0.457852246084    15.994914619570
         C           -0.239902738123    -1.450721449844    -0.099417746084    12.000000000000
         C            1.152508961877    -0.965010449844    -0.531878246084    12.000000000000
         C           -1.224382038123    -0.296056449844    -0.477500246084    12.000000000000
         C            1.499891961877     0.366488550156     0.109378753916    12.000000000000
         C            0.414020961877     1.390303550156    -0.164413246084    12.000000000000
         C           -2.670094038123    -0.567131449844    -0.110943246084    12.000000000000
         H           -0.497065038123    -2.346480449844    -0.586229246084     1.007825032230
         H            1.135961961877    -0.813683449844    -1.626325246084     1.007825032230
         H           -1.167186038123    -0.074660449844    -1.554791246084     1.007825032230
         H            1.578260961877     0.231960550156     1.197416753916     1.007825032230
         H            0.360182961877     1.607632550156    -1.245500246084     1.007825032230
         H           -2.735759038123    -0.807079449844     0.957081753916     1.007825032230
         H           -3.039655038123    -1.425571449844    -0.678264246084     1.007825032230
         H           -0.396988038123    -0.772503449844     1.726753753916     1.007825032230
         H            2.969619961877    -1.560152449844    -0.356298246084     1.007825032230
         H            3.002254961877     1.594240550156     0.022815753916     1.007825032230
         H            0.112499961877     3.238484550156     0.323913753916     1.007825032230
         H           -3.088292038123     1.304508550156    -0.005041246084     1.007825032230

  Basis Set: AUG-CC-PVTZ
    Blend: AUG-CC-PVTZ
  Basis Set: (AUG-CC-PVTZ AUX)
    Blend: AUG-CC-PVTZ-JKFIT
	 Reference Energy          =    -683.6061475176453541 [Eh]
	 Singles Energy            =      -0.0000000000000000 [Eh]
	 Same-Spin Energy          =      -0.6659711629959839 [Eh]
	 Opposite-Spin Energy      =      -2.0458238650297549 [Eh]
	 Correlation Energy        =      -2.7117950280257386 [Eh]
	 Total Energy              =    -686.3179425456711442 [Eh]

	 ================> DF-SCS-MP2 Energies <==================
	-----------------------------------------------------------
	 SCS Same-Spin Scale       =       0.3333333333333333 [-]
	 SCS Opposite-Spin Scale   =       1.2000000000000000 [-]
	 SCS Same-Spin Energy      =      -0.2219903876653280 [Eh]
	 SCS Opposite-Spin Energy  =      -2.4549886380357058 [Eh]
	 SCS Correlation Energy    =      -2.6769790257010335 [Eh]
	 SCS Total Energy          =    -686.2831265433463841 [Eh]
	-----------------------------------------------------------

  Dipole Moment: [D]
     X:     0.6877      Y:     3.1116      Z:    -1.1129     Total:     3.3754

*** Psi4 exiting successfully. Buy a developer a beer!
