                               Psi4 1.3.2 release

  ==> Input File <==

--------------------------------------------------------------------------
#psi4
#
memory 32 gb

molecule  {
0 1
  O       -0.8456270     0.8862080     0.2793150
  O       -0.3079160    -1.6544620     1.3165970
  O        2.1058880    -1.9633380    -0.1734630
  O        2.7564030     0.7739560    -0.4353370
  O        0.7402180     2.5264820     0.5866940
  O       -3.4805510     0.5379580    -0.4489300
  C       -0.2340330    -1.4057570    -0.0828570
  C        1.1618270    -0.9690140    -0.5229560
  C       -1.2150640    -0.3000600    -0.4685780
  C        1.5092100     0.3624850     0.1183010
  C        0.4233390     1.3863000    -0.1554910
  C       -2.8515168    -0.6068994    -0.0536591
  H       -0.4877470    -2.3504840    -0.5773070
  H        1.1452800    -0.8176870    -1.6174030
  H       -1.1578680    -0.0786640    -1.5458690
  H        1.5875790     0.2279570     1.2063390
  H        0.3695010     1.6036290    -1.2365780
  H       -2.7264410    -0.8110830     0.9660040
  H       -3.0303370    -1.4295750    -0.6693420
  H       -0.3876700    -0.7765070     1.7356760
  H        2.9789380    -1.5641560    -0.3473760
  H        3.0115730     1.5902370     0.0317380
  H        0.1218180     3.2344810     0.3328360
  H       -3.0789740     1.3005050     0.0038810
units angstrom
no_reorient  #important for SAPT in psi4, default
symmetry c1  #important for SAPT in psi4, default
}

set PROPERTIES_ORIGIN ["COM"]
properties('MP2/aug-cc-pvtz', properties = ['dipole'])
--------------------------------------------------------------------------

    Molecular point group: c1
  Charge       = 0
  Multiplicity = 1
  Basis Set: AUG-CC-PVTZ
    Blend: AUG-CC-PVTZ
  Basis Set: (AUG-CC-PVTZ AUX)
    Blend: AUG-CC-PVTZ-JKFIT

    Orbital Energies [Eh]
    ---------------------

    Doubly Occupied:

       1A    -20.598021     2A    -20.591657     3A    -20.582995
       4A    -20.570984     5A    -20.561946     6A    -20.560888
       7A    -11.359610     8A    -11.300144     9A    -11.296051
      10A    -11.291781    11A    -11.291177    12A    -11.290541
      13A     -1.444233    14A     -1.393020    15A     -1.388601
      16A     -1.378042    17A     -1.357644    18A     -1.349653
      19A     -1.066574    20A     -1.030239    21A     -0.942612
      22A     -0.883582    23A     -0.855470    24A     -0.804040
      25A     -0.756079    26A     -0.736059    27A     -0.717839
      28A     -0.712552    29A     -0.697080    30A     -0.664614
      31A     -0.654985    32A     -0.639895    33A     -0.634590
      34A     -0.615179    35A     -0.611782    36A     -0.579119
      37A     -0.574037    38A     -0.563747    39A     -0.538044
      40A     -0.533697    41A     -0.525440    42A     -0.508606
      43A     -0.501308    44A     -0.479839    45A     -0.462118
      46A     -0.453531    47A     -0.436617    48A     -0.400996

  @DF-RHF Final Energy:  -683.58066507695992

   => Energetics <=

    Nuclear Repulsion Energy =            832.4733612172764197
    One-Electron Energy =               -2593.7335419033015569
    Two-Electron Energy =                1077.6795156090652199
    Total Energy =                       -683.5806650769600310
  Basis Set: (AUG-CC-PVTZ AUX)
    Blend: AUG-CC-PVTZ-RI
    Molecular point group: c1

    Geometry (in Angstrom), charge = 0, multiplicity = 1:

       Center              X                  Y                   Z               Mass
    ------------   -----------------  -----------------  -----------------  -----------------
         O           -0.842003655510     0.889331620029     0.266660708179    15.994914619570
         O           -0.304292655510    -1.651338379971     1.303942708179    15.994914619570
         O            2.109511344490    -1.960214379971    -0.186117291821    15.994914619570
         O            2.760026344490     0.777079620029    -0.447991291821    15.994914619570
         O            0.743841344490     2.529605620029     0.574039708179    15.994914619570
         O           -3.476927655510     0.541081620029    -0.461584291821    15.994914619570
         C           -0.230409655510    -1.402633379971    -0.095511291821    12.000000000000
         C            1.165450344490    -0.965890379971    -0.535610291821    12.000000000000
         C           -1.211440655510    -0.296936379971    -0.481232291821    12.000000000000
         C            1.512833344490     0.365608620029     0.105646708179    12.000000000000
         C            0.426962344490     1.389423620029    -0.168145291821    12.000000000000
         C           -2.847893455510    -0.603775779971    -0.066313391821    12.000000000000
         H           -0.484123655510    -2.347360379971    -0.589961291821     1.007825032230
         H            1.148903344490    -0.814563379971    -1.630057291821     1.007825032230
         H           -1.154244655510    -0.075540379971    -1.558523291821     1.007825032230
         H            1.591202344490     0.231080620029     1.193684708179     1.007825032230
         H            0.373124344490     1.606752620029    -1.249232291821     1.007825032230
         H           -2.722817655510    -0.807959379971     0.953349708179     1.007825032230
         H           -3.026713655510    -1.426451379971    -0.681996291821     1.007825032230
         H           -0.384046655510    -0.773383379971     1.723021708179     1.007825032230
         H            2.982561344490    -1.561032379971    -0.360030291821     1.007825032230
         H            3.015196344490     1.593360620029     0.019083708179     1.007825032230
         H            0.125441344490     3.237604620029     0.320181708179     1.007825032230
         H           -3.075350655510     1.303628620029    -0.008773291821     1.007825032230

  Basis Set: AUG-CC-PVTZ
    Blend: AUG-CC-PVTZ
  Basis Set: (AUG-CC-PVTZ AUX)
    Blend: AUG-CC-PVTZ-JKFIT
	 Reference Energy          =    -683.5806650769599173 [Eh]
	 Singles Energy            =      -0.0000000000000000 [Eh]
	 Same-Spin Energy          =      -0.6664657257866839 [Eh]
	 Opposite-Spin Energy      =      -2.0465680087329807 [Eh]
	 Correlation Energy        =      -2.7130337345196649 [Eh]
	 Total Energy              =    -686.2936988114795440 [Eh]

	 ================> DF-SCS-MP2 Energies <==================
	-----------------------------------------------------------
	 SCS Same-Spin Scale       =       0.3333333333333333 [-]
	 SCS Opposite-Spin Scale   =       1.2000000000000000 [-]
	 SCS Same-Spin Energy      =      -0.2221552419288946 [Eh]
	 SCS Opposite-Spin Energy  =      -2.4558816104795769 [Eh]
	 SCS Correlation Energy    =      -2.6780368524084714 [Eh]
	 SCS Total Energy          =    -686.2587019293683852 [Eh]
	-----------------------------------------------------------

  Dipole Moment: [D]
     X:     0.2015      Y:     3.2696      Z:    -1.0683     Total:     3.4456

*** Psi4 exiting successfully. Buy a developer a beer!
