                               Psi4 1.3.2 release

  ==> Input File <==

--------------------------------------------------------------------------
#psi4
#
memory 32 gb

molecule  {
0 1
  O       -0.8224226     0.8850415     0.2692747
  O       -0.3079160    -1.6544620     1.3165970
  O        2.1058880    -1.9633380    -0.1734630
  O        2.7564030     0.7739560    -0.4353370
  O        0.7402180     2.5264820     0.5866940
  O       -3.4805510     0.5379580    -0.4489300
  C       -0.2340330    -1.4057570    -0.0828570
  C        1.1618270    -0.9690140    -0.5229560
  C       -1.2150640    -0.3000600    -0.4685780
  C        1.5092100     0.3624850     0.1183010
  C        0.4233390     1.3863000    -0.1554910
  C       -2.6607760    -0.5711350    -0.1020210
  H       -0.4877470    -2.3504840    -0.5773070
  H        1.1452800    -0.8176870    -1.6174030
  H       -1.1578680    -0.0786640    -1.5458690
  H        1.5875790     0.2279570     1.2063390
  H        0.3695010     1.6036290    -1.2365780
  H       -2.7264410    -0.8110830     0.9660040
  H       -3.0303370    -1.4295750    -0.6693420
  H       -0.3876700    -0.7765070     1.7356760
  H        2.9789380    -1.5641560    -0.3473760
  H        3.0115730     1.5902370     0.0317380
  H        0.1218180     3.2344810     0.3328360
  H       -3.0789740     1.3005050     0.0038810
units angstrom
no_reorient  #important for SAPT in psi4, default
symmetry c1  #important for SAPT in psi4, default
}

set PROPERTIES_ORIGIN ["COM"]
properties('MP2/aug-cc-pvtz', properties = ['dipole'])
--------------------------------------------------------------------------

    Molecular point group: c1
  Charge       = 0
  Multiplicity = 1
  Basis Set: AUG-CC-PVTZ
    Blend: AUG-CC-PVTZ
  Basis Set: (AUG-CC-PVTZ AUX)
    Blend: AUG-CC-PVTZ-JKFIT

    Orbital Energies [Eh]
    ---------------------

    Doubly Occupied:

       1A    -20.598885     2A    -20.594309     3A    -20.584027
       4A    -20.565766     5A    -20.565476     6A    -20.563770
       7A    -11.360115     8A    -11.306132     9A    -11.297370
      10A    -11.297033    11A    -11.294488    12A    -11.287378
      13A     -1.452356    14A     -1.391451    15A     -1.389015
      16A     -1.368047    17A     -1.357647    18A     -1.353118
      19A     -1.072908    20A     -1.052903    21A     -0.948783
      22A     -0.886989    23A     -0.850706    24A     -0.809033
      25A     -0.759687    26A     -0.737757    27A     -0.722263
      28A     -0.715054    29A     -0.691240    30A     -0.665765
      31A     -0.658227    32A     -0.640935    33A     -0.623689
      34A     -0.619650    35A     -0.599236    36A     -0.580442
      37A     -0.576625    38A     -0.562564    39A     -0.540595
      40A     -0.534941    41A     -0.527603    42A     -0.511900
      43A     -0.497204    44A     -0.483437    45A     -0.470447
      46A     -0.459093    47A     -0.443945    48A     -0.429597

  @DF-RHF Final Energy:  -683.60932828460341

   => Energetics <=

    Nuclear Repulsion Energy =            836.5037315432139167
    One-Electron Energy =               -2601.6269211378439650
    Two-Electron Energy =                1081.5138613100266411
    Total Energy =                       -683.6093282846034072
  Basis Set: (AUG-CC-PVTZ AUX)
    Blend: AUG-CC-PVTZ-RI
    Molecular point group: c1

    Geometry (in Angstrom), charge = 0, multiplicity = 1:

       Center              X                  Y                   Z               Mass
    ------------   -----------------  -----------------  -----------------  -----------------
         O           -0.833572064268     0.885885285486     0.260735273222    15.994914619570
         O           -0.319065464268    -1.653618214514     1.308057573222    15.994914619570
         O            2.094738535732    -1.962494214514    -0.182002426778    15.994914619570
         O            2.745253535732     0.774799785486    -0.443876426778    15.994914619570
         O            0.729068535732     2.527325785486     0.578154573222    15.994914619570
         O           -3.491700464268     0.538801785486    -0.457469426778    15.994914619570
         C           -0.245182464268    -1.404913214514    -0.091396426778    12.000000000000
         C            1.150677535732    -0.968170214514    -0.531495426778    12.000000000000
         C           -1.226213464268    -0.299216214514    -0.477117426778    12.000000000000
         C            1.498060535732     0.363328785486     0.109761573222    12.000000000000
         C            0.412189535732     1.387143785486    -0.164030426778    12.000000000000
         C           -2.671925464268    -0.570291214514    -0.110560426778    12.000000000000
         H           -0.498896464268    -2.349640214514    -0.585846426778     1.007825032230
         H            1.134130535732    -0.816843214514    -1.625942426778     1.007825032230
         H           -1.169017464268    -0.077820214514    -1.554408426778     1.007825032230
         H            1.576429535732     0.228800785486     1.197799573222     1.007825032230
         H            0.358351535732     1.604472785486    -1.245117426778     1.007825032230
         H           -2.737590464268    -0.810239214514     0.957464573222     1.007825032230
         H           -3.041486464268    -1.428731214514    -0.677881426778     1.007825032230
         H           -0.398819464268    -0.775663214514     1.727136573222     1.007825032230
         H            2.967788535732    -1.563312214514    -0.355915426778     1.007825032230
         H            3.000423535732     1.591080785486     0.023198573222     1.007825032230
         H            0.110668535732     3.235324785486     0.324296573222     1.007825032230
         H           -3.090123464268     1.301348785486    -0.004658426778     1.007825032230

  Basis Set: AUG-CC-PVTZ
    Blend: AUG-CC-PVTZ
  Basis Set: (AUG-CC-PVTZ AUX)
    Blend: AUG-CC-PVTZ-JKFIT
	 Reference Energy          =    -683.6093282846034072 [Eh]
	 Singles Energy            =      -0.0000000000000000 [Eh]
	 Same-Spin Energy          =      -0.6660961924214317 [Eh]
	 Opposite-Spin Energy      =      -2.0453355172381049 [Eh]
	 Correlation Energy        =      -2.7114317096595366 [Eh]
	 Total Energy              =    -686.3207599942629713 [Eh]

	 ================> DF-SCS-MP2 Energies <==================
	-----------------------------------------------------------
	 SCS Same-Spin Scale       =       0.3333333333333333 [-]
	 SCS Opposite-Spin Scale   =       1.2000000000000000 [-]
	 SCS Same-Spin Energy      =      -0.2220320641404772 [Eh]
	 SCS Opposite-Spin Energy  =      -2.4544026206857259 [Eh]
	 SCS Correlation Energy    =      -2.6764346848262033 [Eh]
	 SCS Total Energy          =    -686.2857629694295838 [Eh]
	-----------------------------------------------------------

  Dipole Moment: [D]
     X:     0.5443      Y:     3.1160      Z:    -1.0809     Total:     3.3428

*** Psi4 exiting successfully. Buy a developer a beer!
