                               Psi4 1.3.2 release

  ==> Input File <==

--------------------------------------------------------------------------
#psi4
#
memory 32 gb

molecule  {
0 1
  O       -0.8456270     0.8862080     0.2793150
  O       -0.3079160    -1.6544620     1.3165970
  O        2.1058880    -1.9633380    -0.1734630
  O        2.7564030     0.7739560    -0.4353370
  O        0.7402180     2.5264820     0.5866940
  O       -3.4805510     0.5379580    -0.4489300
  C       -0.2400022    -1.2709782     0.0029236
  C        1.1618270    -0.9690140    -0.5229560
  C       -1.2150640    -0.3000600    -0.4685780
  C        1.5092100     0.3624850     0.1183010
  C        0.4233390     1.3863000    -0.1554910
  C       -2.6607760    -0.5711350    -0.1020210
  H       -0.4877470    -2.3504840    -0.5773070
  H        1.1452800    -0.8176870    -1.6174030
  H       -1.1578680    -0.0786640    -1.5458690
  H        1.5875790     0.2279570     1.2063390
  H        0.3695010     1.6036290    -1.2365780
  H       -2.7264410    -0.8110830     0.9660040
  H       -3.0303370    -1.4295750    -0.6693420
  H       -0.3876700    -0.7765070     1.7356760
  H        2.9789380    -1.5641560    -0.3473760
  H        3.0115730     1.5902370     0.0317380
  H        0.1218180     3.2344810     0.3328360
  H       -3.0789740     1.3005050     0.0038810
units angstrom
no_reorient  #important for SAPT in psi4, default
symmetry c1  #important for SAPT in psi4, default
}

set PROPERTIES_ORIGIN ["COM"]
properties('MP2/aug-cc-pvtz', properties = ['dipole'])
--------------------------------------------------------------------------

    Molecular point group: c1
  Charge       = 0
  Multiplicity = 1
  Basis Set: AUG-CC-PVTZ
    Blend: AUG-CC-PVTZ
  Basis Set: (AUG-CC-PVTZ AUX)
    Blend: AUG-CC-PVTZ-JKFIT

    Orbital Energies [Eh]
    ---------------------

    Doubly Occupied:

       1A    -20.600494     2A    -20.592714     3A    -20.583762
       4A    -20.577573     5A    -20.566831     6A    -20.565506
       7A    -11.362907     8A    -11.303871     9A    -11.302503
      10A    -11.296881    11A    -11.295259    12A    -11.288110
      13A     -1.451747    14A     -1.406762    15A     -1.391379
      16A     -1.375699    17A     -1.358904    18A     -1.357739
      19A     -1.079729    20A     -1.057073    21A     -0.946903
      22A     -0.884771    23A     -0.851214    24A     -0.809200
      25A     -0.757665    26A     -0.743961    27A     -0.730288
      28A     -0.715747    29A     -0.691701    30A     -0.670703
      31A     -0.660418    32A     -0.635679    33A     -0.630548
      34A     -0.623282    35A     -0.601466    36A     -0.589912
      37A     -0.570220    38A     -0.561556    39A     -0.543988
      40A     -0.538806    41A     -0.522776    42A     -0.512341
      43A     -0.497160    44A     -0.485917    45A     -0.464240
      46A     -0.461511    47A     -0.437886    48A     -0.423683

  @DF-RHF Final Energy:  -683.57800077699972

   => Energetics <=

    Nuclear Repulsion Energy =            838.8117559783727302
    One-Electron Energy =               -2606.0215476126613794
    Two-Electron Energy =                1083.6317908572889337
    Total Energy =                       -683.5780007769997155
  Basis Set: (AUG-CC-PVTZ AUX)
    Blend: AUG-CC-PVTZ-RI
    Molecular point group: c1

    Geometry (in Angstrom), charge = 0, multiplicity = 1:

       Center              X                  Y                   Z               Mass
    ------------   -----------------  -----------------  -----------------  -----------------
         O           -0.854317425807     0.877966075808     0.264167006351    15.994914619570
         O           -0.316606425807    -1.662703924192     1.301449006351    15.994914619570
         O            2.097197574193    -1.971579924192    -0.188610993649    15.994914619570
         O            2.747712574193     0.765714075808    -0.450484993649    15.994914619570
         O            0.731527574193     2.518240075808     0.571546006351    15.994914619570
         O           -3.489241425807     0.529716075808    -0.464077993649    15.994914619570
         C           -0.248692625807    -1.279220124192    -0.012224393649    12.000000000000
         C            1.153136574193    -0.977255924192    -0.538103993649    12.000000000000
         C           -1.223754425807    -0.308301924192    -0.483725993649    12.000000000000
         C            1.500519574193     0.354243075808     0.103153006351    12.000000000000
         C            0.414648574193     1.378058075808    -0.170638993649    12.000000000000
         C           -2.669466425807    -0.579376924192    -0.117168993649    12.000000000000
         H           -0.496437425807    -2.358725924192    -0.592454993649     1.007825032230
         H            1.136589574193    -0.825928924192    -1.632550993649     1.007825032230
         H           -1.166558425807    -0.086905924192    -1.561016993649     1.007825032230
         H            1.578888574193     0.219715075808     1.191191006351     1.007825032230
         H            0.360810574193     1.595387075808    -1.251725993649     1.007825032230
         H           -2.735131425807    -0.819324924192     0.950856006351     1.007825032230
         H           -3.039027425807    -1.437816924192    -0.684489993649     1.007825032230
         H           -0.396360425807    -0.784748924192     1.720528006351     1.007825032230
         H            2.970247574193    -1.572397924192    -0.362523993649     1.007825032230
         H            3.002882574193     1.581995075808     0.016590006351     1.007825032230
         H            0.113127574193     3.226239075808     0.317688006351     1.007825032230
         H           -3.087664425807     1.292263075808    -0.011266993649     1.007825032230

  Basis Set: AUG-CC-PVTZ
    Blend: AUG-CC-PVTZ
  Basis Set: (AUG-CC-PVTZ AUX)
    Blend: AUG-CC-PVTZ-JKFIT
	 Reference Energy          =    -683.5780007769997155 [Eh]
	 Singles Energy            =      -0.0000000000000000 [Eh]
	 Same-Spin Energy          =      -0.6684346396123427 [Eh]
	 Opposite-Spin Energy      =      -2.0489688425675059 [Eh]
	 Correlation Energy        =      -2.7174034821798485 [Eh]
	 Total Energy              =    -686.2954042591795769 [Eh]

	 ================> DF-SCS-MP2 Energies <==================
	-----------------------------------------------------------
	 SCS Same-Spin Scale       =       0.3333333333333333 [-]
	 SCS Opposite-Spin Scale   =       1.2000000000000000 [-]
	 SCS Same-Spin Energy      =      -0.2228115465374476 [Eh]
	 SCS Opposite-Spin Energy  =      -2.4587626110810068 [Eh]
	 SCS Correlation Energy    =      -2.6815741576184542 [Eh]
	 SCS Total Energy          =    -686.2595749346181719 [Eh]
	-----------------------------------------------------------

  Dipole Moment: [D]
     X:     0.5965      Y:     3.3094      Z:    -0.8560     Total:     3.4700

*** Psi4 exiting successfully. Buy a developer a beer!
