                               Psi4 1.4a3.dev225

  ==> Input File <==

--------------------------------------------------------------------------
#psi4
#
memory 32 gb

molecule  {
0 1
  O       -0.8456650     0.8861440     0.2793920
  O       -0.3077290    -1.6543970     1.3165920
  O        2.1058490    -1.9633390    -0.1734930
  O        2.7563870     0.7740080    -0.4352340
  O        0.7401070     2.5265290     0.5865970
  O       -3.4805150     0.5379850    -0.4487790
  C       -0.2340150    -1.4057960    -0.0828600
  C        1.1618410    -0.9690160    -0.5229920
  C       -1.2150830    -0.3001220    -0.4685840
  C        1.5091960     0.3624950     0.1183140
  C        0.4232960     1.3863010    -0.1554910
  C       -2.6608140    -0.5711940    -0.1020800
  H       -0.4877200    -2.3505680    -0.5772350
  H        1.1452880    -0.8176810    -1.6174430
  H       -1.1578130    -0.0786490    -1.5458470
  H        1.5874550     0.2279380     1.2063560
  H        0.3693510     1.6035860    -1.2365730
  H       -2.7265370    -0.8113720     0.9658980
  H       -3.0304070    -1.4295080    -0.6695770
  H       -0.3878110    -0.7763940     1.7355090
  H        2.9341668    -1.5846846    -0.3385279
  H        3.0116250     1.5901680     0.0320000
  H        0.1223170     3.2347930     0.3320250
  H       -3.0786550     1.3004670     0.0038890
units angstrom
no_reorient  #important for SAPT in psi4, default
symmetry c1  #important for SAPT in psi4, default
}

set PROPERTIES_ORIGIN ["COM"]
properties('MP2/aug-cc-pvtz', properties = ['dipole'])
--------------------------------------------------------------------------

    Molecular point group: c1
  Charge       = 0
  Multiplicity = 1
  Basis Set: AUG-CC-PVTZ
    Blend: AUG-CC-PVTZ
  Basis Set: (AUG-CC-PVTZ AUX)
    Blend: AUG-CC-PVTZ-JKFIT

    Orbital Energies [Eh]
    ---------------------

    Doubly Occupied:

       1A    -20.600307     2A    -20.595216     3A    -20.585191
       4A    -20.565494     5A    -20.564635     6A    -20.560114
       7A    -11.362733     8A    -11.304938     9A    -11.299291
      10A    -11.297288    11A    -11.295542    12A    -11.286014
      13A     -1.448473    14A     -1.396009    15A     -1.389532
      16A     -1.369561    17A     -1.361617    18A     -1.353370
      19A     -1.074732    20A     -1.051890    21A     -0.949771
      22A     -0.888197    23A     -0.850193    24A     -0.809279
      25A     -0.761733    26A     -0.738161    27A     -0.724467
      28A     -0.714397    29A     -0.690171    30A     -0.667749
      31A     -0.661788    32A     -0.641498    33A     -0.624082
      34A     -0.619172    35A     -0.599073    36A     -0.581061
      37A     -0.576204    38A     -0.563394    39A     -0.542183
      40A     -0.535303    41A     -0.528858    42A     -0.512137
      43A     -0.496034    44A     -0.483775    45A     -0.470774
      46A     -0.460844    47A     -0.445335    48A     -0.430687

  @DF-RHF Final Energy:  -683.60905065563645

   => Energetics <=

    Nuclear Repulsion Energy =            836.2618143447675720
    One-Electron Energy =               -2601.0851973256339988
    Two-Electron Energy =                1081.2143323252300888
    Total Energy =                       -683.6090506556363380
  Basis Set: (AUG-CC-PVTZ AUX)
    Blend: AUG-CC-PVTZ-RI
    Molecular point group: c1

    Geometry (in Angstrom), charge = 0, multiplicity = 1:

       Center              X                  Y                   Z               Mass
    ------------   -----------------  -----------------  -----------------  -----------------
         O           -0.854500989729     0.886998098725     0.269905009955    15.994914619570
         O           -0.316564989729    -1.653542901275     1.307105009955    15.994914619570
         O            2.097013010271    -1.962484901275    -0.182979990045    15.994914619570
         O            2.747551010271     0.774862098725    -0.444720990045    15.994914619570
         O            0.731271010271     2.527383098725     0.577110009955    15.994914619570
         O           -3.489350989729     0.538839098725    -0.458265990045    15.994914619570
         C           -0.242850989729    -1.404941901275    -0.092346990045    12.000000000000
         C            1.153005010271    -0.968161901275    -0.532478990045    12.000000000000
         C           -1.223918989729    -0.299267901275    -0.478070990045    12.000000000000
         C            1.500360010271     0.363349098725     0.108827009955    12.000000000000
         C            0.414460010271     1.387155098725    -0.164977990045    12.000000000000
         C           -2.669649989729    -0.570339901275    -0.111566990045    12.000000000000
         H           -0.496555989729    -2.349713901275    -0.586721990045     1.007825032230
         H            1.136452010271    -0.816826901275    -1.626929990045     1.007825032230
         H           -1.166648989729    -0.077794901275    -1.555333990045     1.007825032230
         H            1.578619010271     0.228792098725     1.196869009955     1.007825032230
         H            0.360515010271     1.604440098725    -1.246059990045     1.007825032230
         H           -2.735372989729    -0.810517901275     0.956411009955     1.007825032230
         H           -3.039242989729    -1.428653901275    -0.679063990045     1.007825032230
         H           -0.396646989729    -0.775539901275     1.726022009955     1.007825032230
         H            2.925330810271    -1.583830501275    -0.348014890045     1.007825032230
         H            3.002789010271     1.591022098725     0.022513009955     1.007825032230
         H            0.113481010271     3.235647098725     0.322538009955     1.007825032230
         H           -3.087490989729     1.301321098725    -0.005597990045     1.007825032230

  Basis Set: AUG-CC-PVTZ
    Blend: AUG-CC-PVTZ
  Basis Set: (AUG-CC-PVTZ AUX)
    Blend: AUG-CC-PVTZ-JKFIT
	 Reference Energy          =    -683.6090506556364517 [Eh]
	 Singles Energy            =      -0.0000000000000000 [Eh]
	 Same-Spin Energy          =      -0.6656986346863691 [Eh]
	 Opposite-Spin Energy      =      -2.0446365860500615 [Eh]
	 Correlation Energy        =      -2.7103352207364306 [Eh]
	 Total Energy              =    -686.3193858763728485 [Eh]

	 ================> DF-SCS-MP2 Energies <==================
	-----------------------------------------------------------
	 SCS Same-Spin Scale       =       0.3333333333333333 [-]
	 SCS Opposite-Spin Scale   =       1.2000000000000000 [-]
	 SCS Same-Spin Energy      =      -0.2218995448954564 [Eh]
	 SCS Opposite-Spin Energy  =      -2.4535639032600738 [Eh]
	 SCS Correlation Energy    =      -2.6754634481555302 [Eh]
	 SCS Total Energy          =    -686.2845141037919348 [Eh]
	-----------------------------------------------------------

  Dipole Moment: [D]
     X:     0.6148      Y:     3.1445      Z:    -1.0953     Total:     3.3861

*** Psi4 exiting successfully. Buy a developer a beer!
