                               Psi4 1.3.2 release

  ==> Input File <==

--------------------------------------------------------------------------
#psi4
#
memory 32 gb

molecule  {
0 1
  O       -0.8456270     0.8862080     0.2793150
  O       -0.3079160    -1.6544620     1.3165970
  O        2.1058880    -1.9633380    -0.1734630
  O        2.7564030     0.7739560    -0.4353370
  O        0.7402180     2.5264820     0.5866940
  O       -3.4805510     0.5379580    -0.4489300
  C       -0.2340330    -1.4057570    -0.0828570
  C        1.1618270    -0.9690140    -0.5229560
  C       -1.2150640    -0.3000600    -0.4685780
  C        1.5092100     0.3624850     0.1183010
  C        0.4233390     1.3863000    -0.1554910
  C       -2.7184200    -0.4931470    -0.1264146
  H       -0.4877470    -2.3504840    -0.5773070
  H        1.1452800    -0.8176870    -1.6174030
  H       -1.1578680    -0.0786640    -1.5458690
  H        1.5875790     0.2279570     1.2063390
  H        0.3695010     1.6036290    -1.2365780
  H       -2.7264410    -0.8110830     0.9660040
  H       -3.0303370    -1.4295750    -0.6693420
  H       -0.3876700    -0.7765070     1.7356760
  H        2.9789380    -1.5641560    -0.3473760
  H        3.0115730     1.5902370     0.0317380
  H        0.1218180     3.2344810     0.3328360
  H       -3.0789740     1.3005050     0.0038810
units angstrom
no_reorient  #important for SAPT in psi4, default
symmetry c1  #important for SAPT in psi4, default
}

set PROPERTIES_ORIGIN ["COM"]
properties('MP2/aug-cc-pvtz', properties = ['dipole'])
--------------------------------------------------------------------------

    Molecular point group: c1
  Charge       = 0
  Multiplicity = 1
  Basis Set: AUG-CC-PVTZ
    Blend: AUG-CC-PVTZ
  Basis Set: (AUG-CC-PVTZ AUX)
    Blend: AUG-CC-PVTZ-JKFIT

    Orbital Energies [Eh]
    ---------------------

    Doubly Occupied:

       1A    -20.599273     2A    -20.593321     3A    -20.584625
       4A    -20.575135     5A    -20.563359     6A    -20.563005
       7A    -11.361157     8A    -11.301787     9A    -11.298027
      10A    -11.296092    11A    -11.294108    12A    -11.289683
      13A     -1.447821    14A     -1.412666    15A     -1.390740
      16A     -1.382640    17A     -1.360363    18A     -1.351657
      19A     -1.070329    20A     -1.044162    21A     -0.942389
      22A     -0.886209    23A     -0.849024    24A     -0.807172
      25A     -0.758801    26A     -0.742221    27A     -0.721342
      28A     -0.712240    29A     -0.701723    30A     -0.666579
      31A     -0.658931    32A     -0.641439    33A     -0.632156
      34A     -0.623030    35A     -0.609869    36A     -0.581239
      37A     -0.575999    38A     -0.565273    39A     -0.538967
      40A     -0.536275    41A     -0.528587    42A     -0.506372
      43A     -0.483070    44A     -0.481830    45A     -0.465353
      46A     -0.457377    47A     -0.440004    48A     -0.423460

  @DF-RHF Final Energy:  -683.59888402453396

   => Energetics <=

    Nuclear Repulsion Energy =            836.0722326875073804
    One-Electron Energy =               -2600.7084733419392251
    Two-Electron Energy =                1081.0373566298978858
    Total Energy =                       -683.5988840245338451
  Basis Set: (AUG-CC-PVTZ AUX)
    Blend: AUG-CC-PVTZ-RI
    Molecular point group: c1

    Geometry (in Angstrom), charge = 0, multiplicity = 1:

       Center              X                  Y                   Z               Mass
    ------------   -----------------  -----------------  -----------------  -----------------
         O           -0.850873651887     0.881750796329     0.271509367360    15.994914619570
         O           -0.313162651887    -1.658919203671     1.308791367360    15.994914619570
         O            2.100641348113    -1.967795203671    -0.181268632640    15.994914619570
         O            2.751156348113     0.769498796329    -0.443142632640    15.994914619570
         O            0.734971348113     2.522024796329     0.578888367360    15.994914619570
         O           -3.485797651887     0.533500796329    -0.456735632640    15.994914619570
         C           -0.239279651887    -1.410214203671    -0.090662632640    12.000000000000
         C            1.156580348113    -0.973471203671    -0.530761632640    12.000000000000
         C           -1.220310651887    -0.304517203671    -0.476383632640    12.000000000000
         C            1.503963348113     0.358027796329     0.110495367360    12.000000000000
         C            0.418092348113     1.381842796329    -0.163296632640    12.000000000000
         C           -2.723666651887    -0.497604203671    -0.134220232640    12.000000000000
         H           -0.492993651887    -2.354941203671    -0.585112632640     1.007825032230
         H            1.140033348113    -0.822144203671    -1.625208632640     1.007825032230
         H           -1.163114651887    -0.083121203671    -1.553674632640     1.007825032230
         H            1.582332348113     0.223499796329     1.198533367360     1.007825032230
         H            0.364254348113     1.599171796329    -1.244383632640     1.007825032230
         H           -2.731687651887    -0.815540203671     0.958198367360     1.007825032230
         H           -3.035583651887    -1.434032203671    -0.677147632640     1.007825032230
         H           -0.392916651887    -0.780964203671     1.727870367360     1.007825032230
         H            2.973691348113    -1.568613203671    -0.355181632640     1.007825032230
         H            3.006326348113     1.585779796329     0.023932367360     1.007825032230
         H            0.116571348113     3.230023796329     0.325030367360     1.007825032230
         H           -3.084220651887     1.296047796329    -0.003924632640     1.007825032230

  Basis Set: AUG-CC-PVTZ
    Blend: AUG-CC-PVTZ
  Basis Set: (AUG-CC-PVTZ AUX)
    Blend: AUG-CC-PVTZ-JKFIT
	 Reference Energy          =    -683.5988840245339588 [Eh]
	 Singles Energy            =      -0.0000000000000000 [Eh]
	 Same-Spin Energy          =      -0.6665254006837635 [Eh]
	 Opposite-Spin Energy      =      -2.0452357002916042 [Eh]
	 Correlation Energy        =      -2.7117611009753677 [Eh]
	 Total Energy              =    -686.3106451255093816 [Eh]

	 ================> DF-SCS-MP2 Energies <==================
	-----------------------------------------------------------
	 SCS Same-Spin Scale       =       0.3333333333333333 [-]
	 SCS Opposite-Spin Scale   =       1.2000000000000000 [-]
	 SCS Same-Spin Energy      =      -0.2221751335612545 [Eh]
	 SCS Opposite-Spin Energy  =      -2.4542828403499248 [Eh]
	 SCS Correlation Energy    =      -2.6764579739111793 [Eh]
	 SCS Total Energy          =    -686.2753419984451284 [Eh]
	-----------------------------------------------------------

  Dipole Moment: [D]
     X:     0.4055      Y:     3.4406      Z:    -1.1867     Total:     3.6620

*** Psi4 exiting successfully. Buy a developer a beer!
