                               Psi4 1.3.2 release

  ==> Input File <==

--------------------------------------------------------------------------
#psi4
#
memory 32 gb

molecule  {
0 1
  O       -0.8456270     0.8862080     0.2793150
  O       -0.3079160    -1.6544620     1.3165970
  O        2.1058880    -1.9633380    -0.1734630
  O        2.7564030     0.7739560    -0.4353370
  O        0.7402180     2.5264820     0.5866940
  O       -3.4805510     0.5379580    -0.4489300
  C       -0.2397192    -1.3163459    -0.0250750
  C        1.1618270    -0.9690140    -0.5229560
  C       -1.2150640    -0.3000600    -0.4685780
  C        1.5092100     0.3624850     0.1183010
  C        0.4233390     1.3863000    -0.1554910
  C       -2.6607760    -0.5711350    -0.1020210
  H       -0.4877470    -2.3504840    -0.5773070
  H        1.1452800    -0.8176870    -1.6174030
  H       -1.1578680    -0.0786640    -1.5458690
  H        1.5875790     0.2279570     1.2063390
  H        0.3695010     1.6036290    -1.2365780
  H       -2.7264410    -0.8110830     0.9660040
  H       -3.0303370    -1.4295750    -0.6693420
  H       -0.3876700    -0.7765070     1.7356760
  H        2.9789380    -1.5641560    -0.3473760
  H        3.0115730     1.5902370     0.0317380
  H        0.1218180     3.2344810     0.3328360
  H       -3.0789740     1.3005050     0.0038810
units angstrom
no_reorient  #important for SAPT in psi4, default
symmetry c1  #important for SAPT in psi4, default
}

set PROPERTIES_ORIGIN ["COM"]
properties('MP2/aug-cc-pvtz', properties = ['dipole'])
--------------------------------------------------------------------------

    Molecular point group: c1
  Charge       = 0
  Multiplicity = 1
  Basis Set: AUG-CC-PVTZ
    Blend: AUG-CC-PVTZ
  Basis Set: (AUG-CC-PVTZ AUX)
    Blend: AUG-CC-PVTZ-JKFIT

    Orbital Energies [Eh]
    ---------------------

    Doubly Occupied:

       1A    -20.600255     2A    -20.593337     3A    -20.584173
       4A    -20.573370     5A    -20.566031     6A    -20.564926
       7A    -11.362617     8A    -11.303755     9A    -11.299820
      10A    -11.297321    11A    -11.294633    12A    -11.287334
      13A     -1.450145    14A     -1.399872    15A     -1.391357
      16A     -1.373455    17A     -1.358023    18A     -1.356799
      19A     -1.077098    20A     -1.055098    21A     -0.947180
      22A     -0.885033    23A     -0.850421    24A     -0.808615
      25A     -0.758108    26A     -0.741254    27A     -0.727543
      28A     -0.715210    29A     -0.691020    30A     -0.668991
      31A     -0.659214    32A     -0.636537    33A     -0.628768
      34A     -0.621509    35A     -0.600596    36A     -0.584575
      37A     -0.571399    38A     -0.562365    39A     -0.542253
      40A     -0.538270    41A     -0.524144    42A     -0.512564
      43A     -0.496692    44A     -0.485355    45A     -0.466282
      46A     -0.461040    47A     -0.437916    48A     -0.431255

  @DF-RHF Final Energy:  -683.59400939276884

   => Energetics <=

    Nuclear Repulsion Energy =            837.8722309842611367
    One-Electron Energy =               -2604.2454253160590270
    Two-Electron Energy =                1082.7791849390291645
    Total Energy =                       -683.5940093927688395
  Basis Set: (AUG-CC-PVTZ AUX)
    Blend: AUG-CC-PVTZ-RI
    Molecular point group: c1

    Geometry (in Angstrom), charge = 0, multiplicity = 1:

       Center              X                  Y                   Z               Mass
    ------------   -----------------  -----------------  -----------------  -----------------
         O           -0.854336285832     0.880989524416     0.266032922590    15.994914619570
         O           -0.316625285832    -1.659680475584     1.303314922590    15.994914619570
         O            2.097178714168    -1.968556475584    -0.186745077410    15.994914619570
         O            2.747693714168     0.768737524416    -0.448619077410    15.994914619570
         O            0.731508714168     2.521263524416     0.573411922590    15.994914619570
         O           -3.489260285832     0.532739524416    -0.462212077410    15.994914619570
         C           -0.248428485832    -1.321564375584    -0.038357077410    12.000000000000
         C            1.153117714168    -0.974232475584    -0.536238077410    12.000000000000
         C           -1.223773285832    -0.305278475584    -0.481860077410    12.000000000000
         C            1.500500714168     0.357266524416     0.105018922590    12.000000000000
         C            0.414629714168     1.381081524416    -0.168773077410    12.000000000000
         C           -2.669485285832    -0.576353475584    -0.115303077410    12.000000000000
         H           -0.496456285832    -2.355702475584    -0.590589077410     1.007825032230
         H            1.136570714168    -0.822905475584    -1.630685077410     1.007825032230
         H           -1.166577285832    -0.083882475584    -1.559151077410     1.007825032230
         H            1.578869714168     0.222738524416     1.193056922590     1.007825032230
         H            0.360791714168     1.598410524416    -1.249860077410     1.007825032230
         H           -2.735150285832    -0.816301475584     0.952721922590     1.007825032230
         H           -3.039046285832    -1.434793475584    -0.682624077410     1.007825032230
         H           -0.396379285832    -0.781725475584     1.722393922590     1.007825032230
         H            2.970228714168    -1.569374475584    -0.360658077410     1.007825032230
         H            3.002863714168     1.585018524416     0.018455922590     1.007825032230
         H            0.113108714168     3.229262524416     0.319553922590     1.007825032230
         H           -3.087683285832     1.295286524416    -0.009401077410     1.007825032230

  Basis Set: AUG-CC-PVTZ
    Blend: AUG-CC-PVTZ
  Basis Set: (AUG-CC-PVTZ AUX)
    Blend: AUG-CC-PVTZ-JKFIT
	 Reference Energy          =    -683.5940093927688395 [Eh]
	 Singles Energy            =      -0.0000000000000000 [Eh]
	 Same-Spin Energy          =      -0.6675489250323779 [Eh]
	 Opposite-Spin Energy      =      -2.0475843247831573 [Eh]
	 Correlation Energy        =      -2.7151332498155352 [Eh]
	 Total Energy              =    -686.3091426425843338 [Eh]

	 ================> DF-SCS-MP2 Energies <==================
	-----------------------------------------------------------
	 SCS Same-Spin Scale       =       0.3333333333333333 [-]
	 SCS Opposite-Spin Scale   =       1.2000000000000000 [-]
	 SCS Same-Spin Energy      =      -0.2225163083441260 [Eh]
	 SCS Opposite-Spin Energy  =      -2.4571011897397885 [Eh]
	 SCS Correlation Energy    =      -2.6796174980839145 [Eh]
	 SCS Total Energy          =    -686.2736268908527109 [Eh]
	-----------------------------------------------------------

  Dipole Moment: [D]
     X:     0.6120      Y:     3.2440      Z:    -0.9394     Total:     3.4323

*** Psi4 exiting successfully. Buy a developer a beer!
