                               Psi4 1.4a3.dev225

  ==> Input File <==

--------------------------------------------------------------------------
#psi4
#
memory 32 gb

molecule  {
0 1
  O       -0.8456650     0.8861440     0.2793920
  O       -0.3077290    -1.6543970     1.3165920
  O        2.1058490    -1.9633390    -0.1734930
  O        2.7563870     0.7740080    -0.4352340
  O        0.7401070     2.5265290     0.5865970
  O       -3.4805150     0.5379850    -0.4487790
  C       -0.2340150    -1.4057960    -0.0828600
  C        1.1952002    -1.0041532    -0.5106415
  C       -1.2150830    -0.3001220    -0.4685840
  C        1.5091960     0.3624950     0.1183140
  C        0.4232960     1.3863010    -0.1554910
  C       -2.6608140    -0.5711940    -0.1020800
  H       -0.4877200    -2.3505680    -0.5772350
  H        1.1452880    -0.8176810    -1.6174430
  H       -1.1578130    -0.0786490    -1.5458470
  H        1.5874550     0.2279380     1.2063560
  H        0.3693510     1.6035860    -1.2365730
  H       -2.7265370    -0.8113720     0.9658980
  H       -3.0304070    -1.4295080    -0.6695770
  H       -0.3878110    -0.7763940     1.7355090
  H        2.9789120    -1.5642300    -0.3474430
  H        3.0116250     1.5901680     0.0320000
  H        0.1223170     3.2347930     0.3320250
  H       -3.0786550     1.3004670     0.0038890
units angstrom
no_reorient  #important for SAPT in psi4, default
symmetry c1  #important for SAPT in psi4, default
}

set PROPERTIES_ORIGIN ["COM"]
properties('MP2/aug-cc-pvtz', properties = ['dipole'])
--------------------------------------------------------------------------

    Molecular point group: c1
  Charge       = 0
  Multiplicity = 1
  Basis Set: AUG-CC-PVTZ
    Blend: AUG-CC-PVTZ
  Basis Set: (AUG-CC-PVTZ AUX)
    Blend: AUG-CC-PVTZ-JKFIT

    Orbital Energies [Eh]
    ---------------------

    Doubly Occupied:

       1A    -20.599682     2A    -20.593844     3A    -20.584351
       4A    -20.569694     5A    -20.564160     6A    -20.563808
       7A    -11.362000     8A    -11.304318     9A    -11.297508
      10A    -11.296219    11A    -11.295545    12A    -11.285537
      13A     -1.447317    14A     -1.401590    15A     -1.388569
      16A     -1.371085    17A     -1.362559    18A     -1.352484
      19A     -1.066507    20A     -1.048987    21A     -0.946874
      22A     -0.885661    23A     -0.849102    24A     -0.806471
      25A     -0.762220    26A     -0.736193    27A     -0.723570
      28A     -0.713315    29A     -0.689687    30A     -0.666772
      31A     -0.662257    32A     -0.640254    33A     -0.628421
      34A     -0.618615    35A     -0.599185    36A     -0.581544
      37A     -0.575709    38A     -0.565109    39A     -0.542355
      40A     -0.535448    41A     -0.527744    42A     -0.510885
      43A     -0.495446    44A     -0.482286    45A     -0.466754
      46A     -0.455821    47A     -0.440248    48A     -0.427959

  @DF-RHF Final Energy:  -683.60664544642304

   => Energetics <=

    Nuclear Repulsion Energy =            835.6681344043290665
    One-Electron Energy =               -2599.9662220474301648
    Two-Electron Energy =                1080.6914421966780537
    Total Energy =                       -683.6066454464230446
  Basis Set: (AUG-CC-PVTZ AUX)
    Blend: AUG-CC-PVTZ-RI
    Molecular point group: c1

    Geometry (in Angstrom), charge = 0, multiplicity = 1:

       Center              X                  Y                   Z               Mass
    ------------   -----------------  -----------------  -----------------  -----------------
         O           -0.856974594926     0.889225268536     0.269131831462    15.994914619570
         O           -0.319038594926    -1.651315731464     1.306331831462    15.994914619570
         O            2.094539405074    -1.960257731464    -0.183753168538    15.994914619570
         O            2.745077405074     0.777089268536    -0.445494168538    15.994914619570
         O            0.728797405074     2.529610268536     0.576336831462    15.994914619570
         O           -3.491824594926     0.541066268536    -0.459039168538    15.994914619570
         C           -0.245324594926    -1.402714731464    -0.093120168538    12.000000000000
         C            1.183890605074    -1.001071931464    -0.520901668538    12.000000000000
         C           -1.226392594926    -0.297040731464    -0.478844168538    12.000000000000
         C            1.497886405074     0.365576268536     0.108053831462    12.000000000000
         C            0.411986405074     1.389382268536    -0.165751168538    12.000000000000
         C           -2.672123594926    -0.568112731464    -0.112340168538    12.000000000000
         H           -0.499029594926    -2.347486731464    -0.587495168538     1.007825032230
         H            1.133978405074    -0.814599731464    -1.627703168538     1.007825032230
         H           -1.169122594926    -0.075567731464    -1.556107168538     1.007825032230
         H            1.576145405074     0.231019268536     1.196095831462     1.007825032230
         H            0.358041405074     1.606667268536    -1.246833168538     1.007825032230
         H           -2.737846594926    -0.808290731464     0.955637831462     1.007825032230
         H           -3.041716594926    -1.426426731464    -0.679837168538     1.007825032230
         H           -0.399120594926    -0.773312731464     1.725248831462     1.007825032230
         H            2.967602405074    -1.561148731464    -0.357703168538     1.007825032230
         H            3.000315405074     1.593249268536     0.021739831462     1.007825032230
         H            0.111007405074     3.237874268536     0.321764831462     1.007825032230
         H           -3.089964594926     1.303548268536    -0.006371168538     1.007825032230

  Basis Set: AUG-CC-PVTZ
    Blend: AUG-CC-PVTZ
  Basis Set: (AUG-CC-PVTZ AUX)
    Blend: AUG-CC-PVTZ-JKFIT
	 Reference Energy          =    -683.6066454464230446 [Eh]
	 Singles Energy            =      -0.0000000000000000 [Eh]
	 Same-Spin Energy          =      -0.6661898897817990 [Eh]
	 Opposite-Spin Energy      =      -2.0454561865375664 [Eh]
	 Correlation Energy        =      -2.7116460763193655 [Eh]
	 Total Energy              =    -686.3182915227423564 [Eh]

	 ================> DF-SCS-MP2 Energies <==================
	-----------------------------------------------------------
	 SCS Same-Spin Scale       =       0.3333333333333333 [-]
	 SCS Opposite-Spin Scale   =       1.2000000000000000 [-]
	 SCS Same-Spin Energy      =      -0.2220632965939330 [Eh]
	 SCS Opposite-Spin Energy  =      -2.4545474238450797 [Eh]
	 SCS Correlation Energy    =      -2.6766107204390126 [Eh]
	 SCS Total Energy          =    -686.2832561668620883 [Eh]
	-----------------------------------------------------------

  Dipole Moment: [D]
     X:     0.8011      Y:     3.0240      Z:    -1.0647     Total:     3.3045

*** Psi4 exiting successfully. Buy a developer a beer!
