                               Psi4 1.3.2 release

  ==> Input File <==

--------------------------------------------------------------------------
#psi4
#
memory 32 gb

molecule  {
0 1
  O       -0.8456270     0.8862080     0.2793150
  O       -0.3079160    -1.6544620     1.3165970
  O        2.1058880    -1.9633380    -0.1734630
  O        2.7564030     0.7739560    -0.4353370
  O        0.7402180     2.5264820     0.5866940
  O       -3.4805510     0.5379580    -0.4489300
  C       -0.2340330    -1.4057570    -0.0828570
  C        1.1618270    -0.9690140    -0.5229560
  C       -1.2150640    -0.3000600    -0.4685780
  C        1.5092100     0.3624850     0.1183010
  C        0.4233390     1.3863000    -0.1554910
  C       -2.5454880    -0.7271109    -0.0532339
  H       -0.4877470    -2.3504840    -0.5773070
  H        1.1452800    -0.8176870    -1.6174030
  H       -1.1578680    -0.0786640    -1.5458690
  H        1.5875790     0.2279570     1.2063390
  H        0.3695010     1.6036290    -1.2365780
  H       -2.7264410    -0.8110830     0.9660040
  H       -3.0303370    -1.4295750    -0.6693420
  H       -0.3876700    -0.7765070     1.7356760
  H        2.9789380    -1.5641560    -0.3473760
  H        3.0115730     1.5902370     0.0317380
  H        0.1218180     3.2344810     0.3328360
  H       -3.0789740     1.3005050     0.0038810
units angstrom
no_reorient  #important for SAPT in psi4, default
symmetry c1  #important for SAPT in psi4, default
}

set PROPERTIES_ORIGIN ["COM"]
properties('MP2/aug-cc-pvtz', properties = ['dipole'])
--------------------------------------------------------------------------

    Molecular point group: c1
  Charge       = 0
  Multiplicity = 1
  Basis Set: AUG-CC-PVTZ
    Blend: AUG-CC-PVTZ
  Basis Set: (AUG-CC-PVTZ AUX)
    Blend: AUG-CC-PVTZ-JKFIT

    Orbital Energies [Eh]
    ---------------------

    Doubly Occupied:

       1A    -20.601984     2A    -20.598752     3A    -20.587040
       4A    -20.570058     5A    -20.565684     6A    -20.542753
       7A    -11.365214     8A    -11.311035     9A    -11.300978
      10A    -11.299439    11A    -11.296587    12A    -11.290179
      13A     -1.450658    14A     -1.393677    15A     -1.391063
      16A     -1.365333    17A     -1.356652    18A     -1.297545
      19A     -1.083514    20A     -1.062780    21A     -0.958955
      22A     -0.890222    23A     -0.853958    24A     -0.812103
      25A     -0.762365    26A     -0.736053    27A     -0.726393
      28A     -0.719521    29A     -0.681273    30A     -0.660686
      31A     -0.659679    32A     -0.640377    33A     -0.631057
      34A     -0.617189    35A     -0.590751    36A     -0.581939
      37A     -0.567751    38A     -0.562114    39A     -0.542650
      40A     -0.538453    41A     -0.527153    42A     -0.506866
      43A     -0.498461    44A     -0.478775    45A     -0.469667
      46A     -0.461153    47A     -0.448380    48A     -0.431478

  @DF-RHF Final Energy:  -683.57615345253112

   => Energetics <=

    Nuclear Repulsion Energy =            835.9636568745843306
    One-Electron Energy =               -2600.5069288408294597
    Two-Electron Energy =                1080.9671185137140128
    Total Energy =                       -683.5761534525311163
  Basis Set: (AUG-CC-PVTZ AUX)
    Blend: AUG-CC-PVTZ-RI
    Molecular point group: c1

    Geometry (in Angstrom), charge = 0, multiplicity = 1:

       Center              X                  Y                   Z               Mass
    ------------   -----------------  -----------------  -----------------  -----------------
         O           -0.862398393378     0.897342898808     0.266632371491    15.994914619570
         O           -0.324687393378    -1.643327101192     1.303914371491    15.994914619570
         O            2.089116606622    -1.952203101192    -0.186145628509    15.994914619570
         O            2.739631606622     0.785090898808    -0.448019628509    15.994914619570
         O            0.723446606622     2.537616898808     0.574011371491    15.994914619570
         O           -3.497322393378     0.549092898808    -0.461612628509    15.994914619570
         C           -0.250804393378    -1.394622101192    -0.095539628509    12.000000000000
         C            1.145055606622    -0.957879101192    -0.535638628509    12.000000000000
         C           -1.231835393378    -0.288925101192    -0.481260628509    12.000000000000
         C            1.492438606622     0.373619898808     0.105618371491    12.000000000000
         C            0.406567606622     1.397434898808    -0.168173628509    12.000000000000
         C           -2.562259393378    -0.715976001192    -0.065916528509    12.000000000000
         H           -0.504518393378    -2.339349101192    -0.589989628509     1.007825032230
         H            1.128508606622    -0.806552101192    -1.630085628509     1.007825032230
         H           -1.174639393378    -0.067529101192    -1.558551628509     1.007825032230
         H            1.570807606622     0.239091898808     1.193656371491     1.007825032230
         H            0.352729606622     1.614763898808    -1.249260628509     1.007825032230
         H           -2.743212393378    -0.799948101192     0.953321371491     1.007825032230
         H           -3.047108393378    -1.418440101192    -0.682024628509     1.007825032230
         H           -0.404441393378    -0.765372101192     1.722993371491     1.007825032230
         H            2.962166606622    -1.553021101192    -0.360058628509     1.007825032230
         H            2.994801606622     1.601371898808     0.019055371491     1.007825032230
         H            0.105046606622     3.245615898808     0.320153371491     1.007825032230
         H           -3.095745393378     1.311639898808    -0.008801628509     1.007825032230

  Basis Set: AUG-CC-PVTZ
    Blend: AUG-CC-PVTZ
  Basis Set: (AUG-CC-PVTZ AUX)
    Blend: AUG-CC-PVTZ-JKFIT
	 Reference Energy          =    -683.5761534525311163 [Eh]
	 Singles Energy            =      -0.0000000000000000 [Eh]
	 Same-Spin Energy          =      -0.6679093098297288 [Eh]
	 Opposite-Spin Energy      =      -2.0513856545064750 [Eh]
	 Correlation Energy        =      -2.7192949643362039 [Eh]
	 Total Energy              =    -686.2954484168673162 [Eh]

	 ================> DF-SCS-MP2 Energies <==================
	-----------------------------------------------------------
	 SCS Same-Spin Scale       =       0.3333333333333333 [-]
	 SCS Opposite-Spin Scale   =       1.2000000000000000 [-]
	 SCS Same-Spin Energy      =      -0.2226364366099096 [Eh]
	 SCS Opposite-Spin Energy  =      -2.4616627854077699 [Eh]
	 SCS Correlation Energy    =      -2.6842992220176796 [Eh]
	 SCS Total Energy          =    -686.2604526745487874 [Eh]
	-----------------------------------------------------------

  Dipole Moment: [D]
     X:     1.0997      Y:     2.7313      Z:    -0.9810     Total:     3.1035

*** Psi4 exiting successfully. Buy a developer a beer!
