                               Psi4 1.3.2 release

  ==> Input File <==

--------------------------------------------------------------------------
#psi4
#
memory 32 gb

molecule  {
0 1
  O       -0.8456270     0.8862080     0.2793150
  O       -0.3206063    -1.7014617     1.3066926
  O        2.1058880    -1.9633380    -0.1734630
  O        2.7564030     0.7739560    -0.4353370
  O        0.7402180     2.5264820     0.5866940
  O       -3.4805510     0.5379580    -0.4489300
  C       -0.2340330    -1.4057570    -0.0828570
  C        1.1618270    -0.9690140    -0.5229560
  C       -1.2150640    -0.3000600    -0.4685780
  C        1.5092100     0.3624850     0.1183010
  C        0.4233390     1.3863000    -0.1554910
  C       -2.6607760    -0.5711350    -0.1020210
  H       -0.4877470    -2.3504840    -0.5773070
  H        1.1452800    -0.8176870    -1.6174030
  H       -1.1578680    -0.0786640    -1.5458690
  H        1.5875790     0.2279570     1.2063390
  H        0.3695010     1.6036290    -1.2365780
  H       -2.7264410    -0.8110830     0.9660040
  H       -3.0303370    -1.4295750    -0.6693420
  H       -0.3876700    -0.7765070     1.7356760
  H        2.9789380    -1.5641560    -0.3473760
  H        3.0115730     1.5902370     0.0317380
  H        0.1218180     3.2344810     0.3328360
  H       -3.0789740     1.3005050     0.0038810
units angstrom
no_reorient  #important for SAPT in psi4, default
symmetry c1  #important for SAPT in psi4, default
}

set PROPERTIES_ORIGIN ["COM"]
properties('MP2/aug-cc-pvtz', properties = ['dipole'])
--------------------------------------------------------------------------

    Molecular point group: c1
  Charge       = 0
  Multiplicity = 1
  Basis Set: AUG-CC-PVTZ
    Blend: AUG-CC-PVTZ
  Basis Set: (AUG-CC-PVTZ AUX)
    Blend: AUG-CC-PVTZ-JKFIT

    Orbital Energies [Eh]
    ---------------------

    Doubly Occupied:

       1A    -20.600571     2A    -20.595744     3A    -20.585852
       4A    -20.570408     5A    -20.564556     6A    -20.564275
       7A    -11.363025     8A    -11.305017     9A    -11.299577
      10A    -11.296029    11A    -11.295205    12A    -11.285828
      13A     -1.448553    14A     -1.392327    15A     -1.387179
      16A     -1.366368    17A     -1.356776    18A     -1.348808
      19A     -1.072142    20A     -1.051578    21A     -0.948157
      22A     -0.886683    23A     -0.848441    24A     -0.807492
      25A     -0.758590    26A     -0.736313    27A     -0.721494
      28A     -0.713986    29A     -0.689587    30A     -0.666585
      31A     -0.655803    32A     -0.638000    33A     -0.622756
      34A     -0.619053    35A     -0.598583    36A     -0.577567
      37A     -0.576020    38A     -0.563288    39A     -0.540085
      40A     -0.535866    41A     -0.527664    42A     -0.511857
      43A     -0.496093    44A     -0.483903    45A     -0.470084
      46A     -0.460379    47A     -0.444618    48A     -0.430174

  @DF-RHF Final Energy:  -683.60295200943835

   => Energetics <=

    Nuclear Repulsion Energy =            835.0797414601456694
    One-Electron Energy =               -2598.8075093958432262
    Two-Electron Energy =                1080.1248159262593163
    Total Energy =                       -683.6029520094382406
  Basis Set: (AUG-CC-PVTZ AUX)
    Blend: AUG-CC-PVTZ-RI
    Molecular point group: c1

    Geometry (in Angstrom), charge = 0, multiplicity = 1:

       Center              X                  Y                   Z               Mass
    ------------   -----------------  -----------------  -----------------  -----------------
         O           -0.853587961220     0.891123119078     0.270763501312    15.994914619570
         O           -0.328567261220    -1.696546580922     1.298141101312    15.994914619570
         O            2.097927038780    -1.958422880922    -0.182014498688    15.994914619570
         O            2.748442038780     0.778871119078    -0.443888498688    15.994914619570
         O            0.732257038780     2.531397119078     0.578142501312    15.994914619570
         O           -3.488511961220     0.542873119078    -0.457481498688    15.994914619570
         C           -0.241993961220    -1.400841880922    -0.091408498688    12.000000000000
         C            1.153866038780    -0.964098880922    -0.531507498688    12.000000000000
         C           -1.223024961220    -0.295144880922    -0.477129498688    12.000000000000
         C            1.501249038780     0.367400119078     0.109749501312    12.000000000000
         C            0.415378038780     1.391215119078    -0.164042498688    12.000000000000
         C           -2.668736961220    -0.566219880922    -0.110572498688    12.000000000000
         H           -0.495707961220    -2.345568880922    -0.585858498688     1.007825032230
         H            1.137319038780    -0.812771880922    -1.625954498688     1.007825032230
         H           -1.165828961220    -0.073748880922    -1.554420498688     1.007825032230
         H            1.579618038780     0.232872119078     1.197787501312     1.007825032230
         H            0.361540038780     1.608544119078    -1.245129498688     1.007825032230
         H           -2.734401961220    -0.806167880922     0.957452501312     1.007825032230
         H           -3.038297961220    -1.424659880922    -0.677893498688     1.007825032230
         H           -0.395630961220    -0.771591880922     1.727124501312     1.007825032230
         H            2.970977038780    -1.559240880922    -0.355927498688     1.007825032230
         H            3.003612038780     1.595152119078     0.023186501312     1.007825032230
         H            0.113857038780     3.239396119078     0.324284501312     1.007825032230
         H           -3.086934961220     1.305420119078    -0.004670498688     1.007825032230

  Basis Set: AUG-CC-PVTZ
    Blend: AUG-CC-PVTZ
  Basis Set: (AUG-CC-PVTZ AUX)
    Blend: AUG-CC-PVTZ-JKFIT
	 Reference Energy          =    -683.6029520094383543 [Eh]
	 Singles Energy            =      -0.0000000000000000 [Eh]
	 Same-Spin Energy          =      -0.6670514776160906 [Eh]
	 Opposite-Spin Energy      =      -2.0479556299332091 [Eh]
	 Correlation Energy        =      -2.7150071075492996 [Eh]
	 Total Energy              =    -686.3179591169877085 [Eh]

	 ================> DF-SCS-MP2 Energies <==================
	-----------------------------------------------------------
	 SCS Same-Spin Scale       =       0.3333333333333333 [-]
	 SCS Opposite-Spin Scale   =       1.2000000000000000 [-]
	 SCS Same-Spin Energy      =      -0.2223504925386969 [Eh]
	 SCS Opposite-Spin Energy  =      -2.4575467559198509 [Eh]
	 SCS Correlation Energy    =      -2.6798972484585479 [Eh]
	 SCS Total Energy          =    -686.2828492578969417 [Eh]
	-----------------------------------------------------------

  Dipole Moment: [D]
     X:     0.6967      Y:     3.2248      Z:    -1.0868     Total:     3.4736

*** Psi4 exiting successfully. Buy a developer a beer!
