                               Psi4 1.4a3.dev225

  ==> Input File <==

--------------------------------------------------------------------------
#psi4
#
memory 32 gb

molecule  {
0 1
  O       -0.8456650     0.8861440     0.2793920
  O       -0.3077290    -1.6543970     1.3165920
  O        2.1058490    -1.9633390    -0.1734930
  O        2.7563870     0.7740080    -0.4352340
  O        0.7401070     2.5265290     0.5865970
  O       -3.4805150     0.5379850    -0.4487790
  C       -0.2340150    -1.4057960    -0.0828600
  C        1.1618410    -0.9690160    -0.5229920
  C       -1.2150830    -0.3001220    -0.4685840
  C        1.5091960     0.3624950     0.1183140
  C        0.4232960     1.3863010    -0.1554910
  C       -2.6608140    -0.5711940    -0.1020800
  H       -0.4877200    -2.3505680    -0.5772350
  H        1.1452880    -0.8176810    -1.6174430
  H       -1.1578130    -0.0786490    -1.5458470
  H        1.5874550     0.2279380     1.2063560
  H        0.3693510     1.6035860    -1.2365730
  H       -2.7265370    -0.8113720     0.9658980
  H       -3.0304070    -1.4295080    -0.6695770
  H       -0.3878110    -0.7763940     1.7355090
  H        3.0236572    -1.5437754    -0.3563581
  H        3.0116250     1.5901680     0.0320000
  H        0.1223170     3.2347930     0.3320250
  H       -3.0786550     1.3004670     0.0038890
units angstrom
no_reorient  #important for SAPT in psi4, default
symmetry c1  #important for SAPT in psi4, default
}

set PROPERTIES_ORIGIN ["COM"]
properties('MP2/aug-cc-pvtz', properties = ['dipole'])
--------------------------------------------------------------------------

    Molecular point group: c1
  Charge       = 0
  Multiplicity = 1
  Basis Set: AUG-CC-PVTZ
    Blend: AUG-CC-PVTZ
  Basis Set: (AUG-CC-PVTZ AUX)
    Blend: AUG-CC-PVTZ-JKFIT

    Orbital Energies [Eh]
    ---------------------

    Doubly Occupied:

       1A    -20.600035     2A    -20.594874     3A    -20.585625
       4A    -20.567575     5A    -20.564947     6A    -20.564376
       7A    -11.362329     8A    -11.304571     9A    -11.298690
      10A    -11.296676    11A    -11.294247    12A    -11.285709
      13A     -1.448062    14A     -1.390606    15A     -1.387910
      16A     -1.367027    17A     -1.354403    18A     -1.347203
      19A     -1.071383    20A     -1.051177    21A     -0.947850
      22A     -0.886848    23A     -0.847028    24A     -0.808311
      25A     -0.758106    26A     -0.736278    27A     -0.719677
      28A     -0.713854    29A     -0.689216    30A     -0.665029
      31A     -0.654812    32A     -0.638073    33A     -0.622524
      34A     -0.618354    35A     -0.598273    36A     -0.580466
      37A     -0.575498    38A     -0.562548    39A     -0.537921
      40A     -0.534504    41A     -0.527700    42A     -0.511706
      43A     -0.495669    44A     -0.483000    45A     -0.469741
      46A     -0.459256    47A     -0.443762    48A     -0.429479

  @DF-RHF Final Energy:  -683.60315084326226

   => Energetics <=

    Nuclear Repulsion Energy =            835.6505713142931882
    One-Electron Energy =               -2600.0016203348072850
    Two-Electron Energy =                1080.7478981772517272
    Total Energy =                       -683.6031508432622559
  Basis Set: (AUG-CC-PVTZ AUX)
    Blend: AUG-CC-PVTZ-RI
    Molecular point group: c1

    Geometry (in Angstrom), charge = 0, multiplicity = 1:

       Center              X                  Y                   Z               Mass
    ------------   -----------------  -----------------  -----------------  -----------------
         O           -0.855001872592     0.886769127604     0.270004806600    15.994914619570
         O           -0.317065872592    -1.653771872396     1.307204806600    15.994914619570
         O            2.096512127408    -1.962713872396    -0.182880193400    15.994914619570
         O            2.747050127408     0.774633127604    -0.444621193400    15.994914619570
         O            0.730770127408     2.527154127604     0.577209806600    15.994914619570
         O           -3.489851872592     0.538610127604    -0.458166193400    15.994914619570
         C           -0.243351872592    -1.405170872396    -0.092247193400    12.000000000000
         C            1.152504127408    -0.968390872396    -0.532379193400    12.000000000000
         C           -1.224419872592    -0.299496872396    -0.477971193400    12.000000000000
         C            1.499859127408     0.363120127604     0.108926806600    12.000000000000
         C            0.413959127408     1.386926127604    -0.164878193400    12.000000000000
         C           -2.670150872592    -0.570568872396    -0.111467193400    12.000000000000
         H           -0.497056872592    -2.349942872396    -0.586622193400     1.007825032230
         H            1.135951127408    -0.817055872396    -1.626830193400     1.007825032230
         H           -1.167149872592    -0.078023872396    -1.555234193400     1.007825032230
         H            1.578118127408     0.228563127604     1.196968806600     1.007825032230
         H            0.360014127408     1.604211127604    -1.245960193400     1.007825032230
         H           -2.735873872592    -0.810746872396     0.956510806600     1.007825032230
         H           -3.039743872592    -1.428882872396    -0.678964193400     1.007825032230
         H           -0.397147872592    -0.775768872396     1.726121806600     1.007825032230
         H            3.014320327408    -1.543150272396    -0.365745293400     1.007825032230
         H            3.002288127408     1.590793127604     0.022612806600     1.007825032230
         H            0.112980127408     3.235418127604     0.322637806600     1.007825032230
         H           -3.087991872592     1.301092127604    -0.005498193400     1.007825032230

  Basis Set: AUG-CC-PVTZ
    Blend: AUG-CC-PVTZ
  Basis Set: (AUG-CC-PVTZ AUX)
    Blend: AUG-CC-PVTZ-JKFIT
	 Reference Energy          =    -683.6031508432622559 [Eh]
	 Singles Energy            =      -0.0000000000000000 [Eh]
	 Same-Spin Energy          =      -0.6669730844244212 [Eh]
	 Opposite-Spin Energy      =      -2.0477905390151250 [Eh]
	 Correlation Energy        =      -2.7147636234395462 [Eh]
	 Total Energy              =    -686.3179144667018363 [Eh]

	 ================> DF-SCS-MP2 Energies <==================
	-----------------------------------------------------------
	 SCS Same-Spin Scale       =       0.3333333333333333 [-]
	 SCS Opposite-Spin Scale   =       1.2000000000000000 [-]
	 SCS Same-Spin Energy      =      -0.2223243614748071 [Eh]
	 SCS Opposite-Spin Energy  =      -2.4573486468181498 [Eh]
	 SCS Correlation Energy    =      -2.6796730082929567 [Eh]
	 SCS Total Energy          =    -686.2828238515552357 [Eh]
	-----------------------------------------------------------

  Dipole Moment: [D]
     X:     0.7140      Y:     3.1704      Z:    -1.1050     Total:     3.4326

*** Psi4 exiting successfully. Buy a developer a beer!
