                               Psi4 1.3.2 release

  ==> Input File <==

--------------------------------------------------------------------------
#psi4
#
memory 32 gb

molecule  {
0 1
  O       -0.8470477     0.9048491     0.2958910
  O       -0.3079160    -1.6544620     1.3165970
  O        2.1058880    -1.9633380    -0.1734630
  O        2.7564030     0.7739560    -0.4353370
  O        0.7402180     2.5264820     0.5866940
  O       -3.4805510     0.5379580    -0.4489300
  C       -0.2340330    -1.4057570    -0.0828570
  C        1.1618270    -0.9690140    -0.5229560
  C       -1.2150640    -0.3000600    -0.4685780
  C        1.5092100     0.3624850     0.1183010
  C        0.4233390     1.3863000    -0.1554910
  C       -2.6607760    -0.5711350    -0.1020210
  H       -0.4877470    -2.3504840    -0.5773070
  H        1.1452800    -0.8176870    -1.6174030
  H       -1.1578680    -0.0786640    -1.5458690
  H        1.5875790     0.2279570     1.2063390
  H        0.3695010     1.6036290    -1.2365780
  H       -2.7264410    -0.8110830     0.9660040
  H       -3.0303370    -1.4295750    -0.6693420
  H       -0.3876700    -0.7765070     1.7356760
  H        2.9789380    -1.5641560    -0.3473760
  H        3.0115730     1.5902370     0.0317380
  H        0.1218180     3.2344810     0.3328360
  H       -3.0789740     1.3005050     0.0038810
units angstrom
no_reorient  #important for SAPT in psi4, default
symmetry c1  #important for SAPT in psi4, default
}

set PROPERTIES_ORIGIN ["COM"]
properties('MP2/aug-cc-pvtz', properties = ['dipole'])
--------------------------------------------------------------------------

    Molecular point group: c1
  Charge       = 0
  Multiplicity = 1
  Basis Set: AUG-CC-PVTZ
    Blend: AUG-CC-PVTZ
  Basis Set: (AUG-CC-PVTZ AUX)
    Blend: AUG-CC-PVTZ-JKFIT

    Orbital Energies [Eh]
    ---------------------

    Doubly Occupied:

       1A    -20.598160     2A    -20.595528     3A    -20.585460
       4A    -20.565625     5A    -20.564649     6A    -20.564380
       7A    -11.361484     8A    -11.306919     9A    -11.298976
      10A    -11.298338    11A    -11.295284    12A    -11.286593
      13A     -1.445600    14A     -1.391869    15A     -1.386881
      16A     -1.367626    17A     -1.356304    18A     -1.350641
      19A     -1.074251    20A     -1.050176    21A     -0.949209
      22A     -0.886872    23A     -0.847769    24A     -0.808610
      25A     -0.758940    26A     -0.735506    27A     -0.721332
      28A     -0.713848    29A     -0.688522    30A     -0.665452
      31A     -0.658575    32A     -0.639954    33A     -0.623166
      34A     -0.617527    35A     -0.599162    36A     -0.581140
      37A     -0.574359    38A     -0.563301    39A     -0.539949
      40A     -0.535241    41A     -0.526550    42A     -0.511029
      43A     -0.496130    44A     -0.484374    45A     -0.470955
      46A     -0.460281    47A     -0.444851    48A     -0.431277

  @DF-RHF Final Energy:  -683.60684638577982

   => Energetics <=

    Nuclear Repulsion Energy =            835.3562084312534353
    One-Electron Energy =               -2599.3688584227083993
    Two-Electron Energy =                1080.4058036056751462
    Total Energy =                       -683.6068463857798179
  Basis Set: (AUG-CC-PVTZ AUX)
    Blend: AUG-CC-PVTZ-RI
    Molecular point group: c1

    Geometry (in Angstrom), charge = 0, multiplicity = 1:

       Center              X                  Y                   Z               Mass
    ------------   -----------------  -----------------  -----------------  -----------------
         O           -0.856009732519     0.903933389154     0.284987264461    15.994914619570
         O           -0.316878032519    -1.655377710846     1.305693264461    15.994914619570
         O            2.096925967481    -1.964253710846    -0.184366735539    15.994914619570
         O            2.747440967481     0.773040289154    -0.446240735539    15.994914619570
         O            0.731255967481     2.525566289154     0.575790264461    15.994914619570
         O           -3.489513032519     0.537042289154    -0.459833735539    15.994914619570
         C           -0.242995032519    -1.406672710846    -0.093760735539    12.000000000000
         C            1.152864967481    -0.969929710846    -0.533859735539    12.000000000000
         C           -1.224026032519    -0.300975710846    -0.479481735539    12.000000000000
         C            1.500247967481     0.361569289154     0.107397264461    12.000000000000
         C            0.414376967481     1.385384289154    -0.166394735539    12.000000000000
         C           -2.669738032519    -0.572050710846    -0.112924735539    12.000000000000
         H           -0.496709032519    -2.351399710846    -0.588210735539     1.007825032230
         H            1.136317967481    -0.818602710846    -1.628306735539     1.007825032230
         H           -1.166830032519    -0.079579710846    -1.556772735539     1.007825032230
         H            1.578616967481     0.227041289154     1.195435264461     1.007825032230
         H            0.360538967481     1.602713289154    -1.247481735539     1.007825032230
         H           -2.735403032519    -0.811998710846     0.955100264461     1.007825032230
         H           -3.039299032519    -1.430490710846    -0.680245735539     1.007825032230
         H           -0.396632032519    -0.777422710846     1.724772264461     1.007825032230
         H            2.969975967481    -1.565071710846    -0.358279735539     1.007825032230
         H            3.002610967481     1.589321289154     0.020834264461     1.007825032230
         H            0.112855967481     3.233565289154     0.321932264461     1.007825032230
         H           -3.087936032519     1.299589289154    -0.007022735539     1.007825032230

  Basis Set: AUG-CC-PVTZ
    Blend: AUG-CC-PVTZ
  Basis Set: (AUG-CC-PVTZ AUX)
    Blend: AUG-CC-PVTZ-JKFIT
	 Reference Energy          =    -683.6068463857798179 [Eh]
	 Singles Energy            =      -0.0000000000000000 [Eh]
	 Same-Spin Energy          =      -0.6664797938344040 [Eh]
	 Opposite-Spin Energy      =      -2.0468435459656522 [Eh]
	 Correlation Energy        =      -2.7133233398000565 [Eh]
	 Total Energy              =    -686.3201697255798308 [Eh]

	 ================> DF-SCS-MP2 Energies <==================
	-----------------------------------------------------------
	 SCS Same-Spin Scale       =       0.3333333333333333 [-]
	 SCS Opposite-Spin Scale   =       1.2000000000000000 [-]
	 SCS Same-Spin Energy      =      -0.2221599312781347 [Eh]
	 SCS Opposite-Spin Energy  =      -2.4562122551587824 [Eh]
	 SCS Correlation Energy    =      -2.6783721864369170 [Eh]
	 SCS Total Energy          =    -686.2852185722167633 [Eh]
	-----------------------------------------------------------

  Dipole Moment: [D]
     X:     0.6513      Y:     3.0776      Z:    -1.1401     Total:     3.3460

*** Psi4 exiting successfully. Buy a developer a beer!
