                               Psi4 1.4a3.dev225

  ==> Input File <==

--------------------------------------------------------------------------
#psi4
#
memory 32 gb

molecule  {
0 1
  O       -0.8456650     0.8861440     0.2793920
  O       -0.3077290    -1.6543970     1.3165920
  O        2.1058490    -1.9633390    -0.1734930
  O        2.7563870     0.7740080    -0.4352340
  O        0.7401070     2.5265290     0.5865970
  O       -3.4805150     0.5379850    -0.4487790
  C       -0.2340150    -1.4057960    -0.0828600
  C        1.1618410    -0.9690160    -0.5229920
  C       -1.2150830    -0.3001220    -0.4685840
  C        1.5091960     0.3624950     0.1183140
  C        0.4232960     1.3863010    -0.1554910
  C       -2.6608140    -0.5711940    -0.1020800
  H       -0.4877200    -2.3505680    -0.5772350
  H        1.1452880    -0.8176810    -1.6174430
  H       -1.1578130    -0.0786490    -1.5458470
  H        1.5874550     0.2279380     1.2063560
  H        0.3693510     1.6035860    -1.2365730
  H       -2.7265370    -0.8113720     0.9658980
  H       -3.0304070    -1.4295080    -0.6695770
  H       -0.3878110    -0.7763940     1.7355090
  H        2.9610139    -1.5724119    -0.3438770
  H        3.0116250     1.5901680     0.0320000
  H        0.1223170     3.2347930     0.3320250
  H       -3.0786550     1.3004670     0.0038890
units angstrom
no_reorient  #important for SAPT in psi4, default
symmetry c1  #important for SAPT in psi4, default
}

set PROPERTIES_ORIGIN ["COM"]
properties('MP2/aug-cc-pvtz', properties = ['dipole'])
--------------------------------------------------------------------------

    Molecular point group: c1
  Charge       = 0
  Multiplicity = 1
  Basis Set: AUG-CC-PVTZ
    Blend: AUG-CC-PVTZ
  Basis Set: (AUG-CC-PVTZ AUX)
    Blend: AUG-CC-PVTZ-JKFIT

    Orbital Energies [Eh]
    ---------------------

    Doubly Occupied:

       1A    -20.600221     2A    -20.595108     3A    -20.585318
       4A    -20.565324     5A    -20.564553     6A    -20.562578
       7A    -11.362606     8A    -11.304820     9A    -11.299102
      10A    -11.297089    11A    -11.295144    12A    -11.285917
      13A     -1.448335    14A     -1.393210    15A     -1.389278
      16A     -1.368346    17A     -1.358754    18A     -1.352858
      19A     -1.073636    20A     -1.051670    21A     -0.949139
      22A     -0.887748    23A     -0.849141    24A     -0.808969
      25A     -0.760432    26A     -0.737493    27A     -0.722990
      28A     -0.714248    29A     -0.689856    30A     -0.666530
      31A     -0.660042    32A     -0.640751    33A     -0.623603
      34A     -0.618961    35A     -0.598841    36A     -0.580866
      37A     -0.575985    38A     -0.563126    39A     -0.540900
      40A     -0.535083    41A     -0.528580    42A     -0.512010
      43A     -0.495923    44A     -0.483528    45A     -0.470475
      46A     -0.460329    47A     -0.444866    48A     -0.430337

  @DF-RHF Final Energy:  -683.60921585556650

   => Energetics <=

    Nuclear Repulsion Energy =            836.0686238729000479
    One-Electron Energy =               -2600.7464390069417277
    Two-Electron Energy =                1081.0685992784754035
    Total Energy =                       -683.6092158555663900
  Basis Set: (AUG-CC-PVTZ AUX)
    Blend: AUG-CC-PVTZ-RI
    Molecular point group: c1

    Geometry (in Angstrom), charge = 0, multiplicity = 1:

       Center              X                  Y                   Z               Mass
    ------------   -----------------  -----------------  -----------------  -----------------
         O           -0.854651254476     0.886929407724     0.269934949173    15.994914619570
         O           -0.316715254476    -1.653611592276     1.307134949173    15.994914619570
         O            2.096862745524    -1.962553592276    -0.182950050827    15.994914619570
         O            2.747400745524     0.774793407724    -0.444691050827    15.994914619570
         O            0.731120745524     2.527314407724     0.577139949173    15.994914619570
         O           -3.489501254476     0.538770407724    -0.458236050827    15.994914619570
         C           -0.243001254476    -1.405010592276    -0.092317050827    12.000000000000
         C            1.152854745524    -0.968230592276    -0.532449050827    12.000000000000
         C           -1.224069254476    -0.299336592276    -0.478041050827    12.000000000000
         C            1.500209745524     0.363280407724     0.108856949173    12.000000000000
         C            0.414309745524     1.387086407724    -0.164948050827    12.000000000000
         C           -2.669800254476    -0.570408592276    -0.111537050827    12.000000000000
         H           -0.496706254476    -2.349782592276    -0.586692050827     1.007825032230
         H            1.136301745524    -0.816895592276    -1.626900050827     1.007825032230
         H           -1.166799254476    -0.077863592276    -1.555304050827     1.007825032230
         H            1.578468745524     0.228723407724     1.196898949173     1.007825032230
         H            0.360364745524     1.604371407724    -1.246030050827     1.007825032230
         H           -2.735523254476    -0.810586592276     0.956440949173     1.007825032230
         H           -3.039393254476    -1.428722592276    -0.679034050827     1.007825032230
         H           -0.396797254476    -0.775608592276     1.726051949173     1.007825032230
         H            2.952027645524    -1.571626492276    -0.353334050827     1.007825032230
         H            3.002638745524     1.590953407724     0.022542949173     1.007825032230
         H            0.113330745524     3.235578407724     0.322567949173     1.007825032230
         H           -3.087641254476     1.301252407724    -0.005568050827     1.007825032230

  Basis Set: AUG-CC-PVTZ
    Blend: AUG-CC-PVTZ
  Basis Set: (AUG-CC-PVTZ AUX)
    Blend: AUG-CC-PVTZ-JKFIT
	 Reference Energy          =    -683.6092158555665037 [Eh]
	 Singles Energy            =      -0.0000000000000000 [Eh]
	 Same-Spin Energy          =      -0.6660834390954808 [Eh]
	 Opposite-Spin Energy      =      -2.0455533098101046 [Eh]
	 Correlation Energy        =      -2.7116367489055855 [Eh]
	 Total Energy              =    -686.3208526044720657 [Eh]

	 ================> DF-SCS-MP2 Energies <==================
	-----------------------------------------------------------
	 SCS Same-Spin Scale       =       0.3333333333333333 [-]
	 SCS Opposite-Spin Scale   =       1.2000000000000000 [-]
	 SCS Same-Spin Energy      =      -0.2220278130318269 [Eh]
	 SCS Opposite-Spin Energy  =      -2.4546639717721255 [Eh]
	 SCS Correlation Energy    =      -2.6766917848039524 [Eh]
	 SCS Total Energy          =    -686.2859076403705103 [Eh]
	-----------------------------------------------------------

  Dipole Moment: [D]
     X:     0.6455      Y:     3.1513      Z:    -1.0982     Total:     3.3990

*** Psi4 exiting successfully. Buy a developer a beer!
