                               Psi4 1.3.2 release

  ==> Input File <==

--------------------------------------------------------------------------
#psi4
#
memory 32 gb

molecule  {
0 1
  O       -0.8456270     0.8862080     0.2793150
  O       -0.3079160    -1.6544620     1.3165970
  O        2.1058880    -1.9633380    -0.1734630
  O        2.7564030     0.7739560    -0.4353370
  O        0.7402180     2.5264820     0.5866940
  O       -3.4805510     0.5379580    -0.4489300
  C       -0.2340330    -1.4057570    -0.0828570
  C        1.1618270    -0.9690140    -0.5229560
  C       -1.2365567    -0.3014764    -0.4552863
  C        1.5092100     0.3624850     0.1183010
  C        0.4233390     1.3863000    -0.1554910
  C       -2.6607760    -0.5711350    -0.1020210
  H       -0.4877470    -2.3504840    -0.5773070
  H        1.1452800    -0.8176870    -1.6174030
  H       -1.1578680    -0.0786640    -1.5458690
  H        1.5875790     0.2279570     1.2063390
  H        0.3695010     1.6036290    -1.2365780
  H       -2.7264410    -0.8110830     0.9660040
  H       -3.0303370    -1.4295750    -0.6693420
  H       -0.3876700    -0.7765070     1.7356760
  H        2.9789380    -1.5641560    -0.3473760
  H        3.0115730     1.5902370     0.0317380
  H        0.1218180     3.2344810     0.3328360
  H       -3.0789740     1.3005050     0.0038810
units angstrom
no_reorient  #important for SAPT in psi4, default
symmetry c1  #important for SAPT in psi4, default
}

set PROPERTIES_ORIGIN ["COM"]
properties('MP2/aug-cc-pvtz', properties = ['dipole'])
--------------------------------------------------------------------------

    Molecular point group: c1
  Charge       = 0
  Multiplicity = 1
  Basis Set: AUG-CC-PVTZ
    Blend: AUG-CC-PVTZ
  Basis Set: (AUG-CC-PVTZ AUX)
    Blend: AUG-CC-PVTZ-JKFIT

    Orbital Energies [Eh]
    ---------------------

    Doubly Occupied:

       1A    -20.600320     2A    -20.594307     3A    -20.585331
       4A    -20.564809     5A    -20.564711     6A    -20.564415
       7A    -11.362758     8A    -11.305665     9A    -11.298904
      10A    -11.297447    11A    -11.295231    12A    -11.285264
      13A     -1.447921    14A     -1.392004    15A     -1.389053
      16A     -1.368174    17A     -1.356977    18A     -1.351987
      19A     -1.071863    20A     -1.053896    21A     -0.951150
      22A     -0.887244    23A     -0.847851    24A     -0.807651
      25A     -0.759894    26A     -0.737299    27A     -0.721315
      28A     -0.713501    29A     -0.690994    30A     -0.665823
      31A     -0.658713    32A     -0.640156    33A     -0.623247
      34A     -0.620332    35A     -0.599460    36A     -0.580515
      37A     -0.575977    38A     -0.562384    39A     -0.540078
      40A     -0.533802    41A     -0.527864    42A     -0.513061
      43A     -0.497229    44A     -0.480926    45A     -0.470146
      46A     -0.460017    47A     -0.444941    48A     -0.430538

  @DF-RHF Final Energy:  -683.60769378718271

   => Energetics <=

    Nuclear Repulsion Energy =            835.8971713681877418
    One-Electron Energy =               -2600.4234350617289238
    Two-Electron Energy =                1080.9185699063584707
    Total Energy =                       -683.6076937871828250
  Basis Set: (AUG-CC-PVTZ AUX)
    Blend: AUG-CC-PVTZ-RI
    Molecular point group: c1

    Geometry (in Angstrom), charge = 0, multiplicity = 1:

       Center              X                  Y                   Z               Mass
    ------------   -----------------  -----------------  -----------------  -----------------
         O           -0.853282890125     0.887042559469     0.268997898456    15.994914619570
         O           -0.315571890125    -1.653627440531     1.306279898456    15.994914619570
         O            2.098232109875    -1.962503440531    -0.183780101544    15.994914619570
         O            2.748747109875     0.774790559469    -0.445654101544    15.994914619570
         O            0.732562109875     2.527316559469     0.576376898456    15.994914619570
         O           -3.488206890125     0.538792559469    -0.459247101544    15.994914619570
         C           -0.241688890125    -1.404922440531    -0.093174101544    12.000000000000
         C            1.154171109875    -0.968179440531    -0.533273101544    12.000000000000
         C           -1.244212590125    -0.300641840531    -0.465603401544    12.000000000000
         C            1.501554109875     0.363319559469     0.107983898456    12.000000000000
         C            0.415683109875     1.387134559469    -0.165808101544    12.000000000000
         C           -2.668431890125    -0.570300440531    -0.112338101544    12.000000000000
         H           -0.495402890125    -2.349649440531    -0.587624101544     1.007825032230
         H            1.137624109875    -0.816852440531    -1.627720101544     1.007825032230
         H           -1.165523890125    -0.077829440531    -1.556186101544     1.007825032230
         H            1.579923109875     0.228791559469     1.196021898456     1.007825032230
         H            0.361845109875     1.604463559469    -1.246895101544     1.007825032230
         H           -2.734096890125    -0.810248440531     0.955686898456     1.007825032230
         H           -3.037992890125    -1.428740440531    -0.679659101544     1.007825032230
         H           -0.395325890125    -0.775672440531     1.725358898456     1.007825032230
         H            2.971282109875    -1.563321440531    -0.357693101544     1.007825032230
         H            3.003917109875     1.591071559469     0.021420898456     1.007825032230
         H            0.114162109875     3.235315559469     0.322518898456     1.007825032230
         H           -3.086629890125     1.301339559469    -0.006436101544     1.007825032230

  Basis Set: AUG-CC-PVTZ
    Blend: AUG-CC-PVTZ
  Basis Set: (AUG-CC-PVTZ AUX)
    Blend: AUG-CC-PVTZ-JKFIT
	 Reference Energy          =    -683.6076937871827113 [Eh]
	 Singles Energy            =      -0.0000000000000000 [Eh]
	 Same-Spin Energy          =      -0.6663459520634334 [Eh]
	 Opposite-Spin Energy      =      -2.0460897996252116 [Eh]
	 Correlation Energy        =      -2.7124357516886448 [Eh]
	 Total Energy              =    -686.3201295388713561 [Eh]

	 ================> DF-SCS-MP2 Energies <==================
	-----------------------------------------------------------
	 SCS Same-Spin Scale       =       0.3333333333333333 [-]
	 SCS Opposite-Spin Scale   =       1.2000000000000000 [-]
	 SCS Same-Spin Energy      =      -0.2221153173544778 [Eh]
	 SCS Opposite-Spin Energy  =      -2.4553077595502537 [Eh]
	 SCS Correlation Energy    =      -2.6774230769047316 [Eh]
	 SCS Total Energy          =    -686.2851168640873993 [Eh]
	-----------------------------------------------------------

  Dipole Moment: [D]
     X:     0.6524      Y:     3.1463      Z:    -1.0873     Total:     3.3922

*** Psi4 exiting successfully. Buy a developer a beer!
