                               Psi4 1.3.2 release

  ==> Input File <==

--------------------------------------------------------------------------
#psi4
#
memory 32 gb

molecule  {
0 1
  O       -0.8456270     0.8862080     0.2793150
  O       -0.3079160    -1.6544620     1.3165970
  O        2.1058880    -1.9633380    -0.1734630
  O        2.7564030     0.7739560    -0.4353370
  O        0.7402180     2.5264820     0.5866940
  O       -3.4805510     0.5379580    -0.4489300
  C       -0.2239747    -1.5533312    -0.1006224
  C        1.1618270    -0.9690140    -0.5229560
  C       -1.2150640    -0.3000600    -0.4685780
  C        1.5092100     0.3624850     0.1183010
  C        0.4233390     1.3863000    -0.1554910
  C       -2.6607760    -0.5711350    -0.1020210
  H       -0.4877470    -2.3504840    -0.5773070
  H        1.1452800    -0.8176870    -1.6174030
  H       -1.1578680    -0.0786640    -1.5458690
  H        1.5875790     0.2279570     1.2063390
  H        0.3695010     1.6036290    -1.2365780
  H       -2.7264410    -0.8110830     0.9660040
  H       -3.0303370    -1.4295750    -0.6693420
  H       -0.3876700    -0.7765070     1.7356760
  H        2.9789380    -1.5641560    -0.3473760
  H        3.0115730     1.5902370     0.0317380
  H        0.1218180     3.2344810     0.3328360
  H       -3.0789740     1.3005050     0.0038810
units angstrom
no_reorient  #important for SAPT in psi4, default
symmetry c1  #important for SAPT in psi4, default
}

set PROPERTIES_ORIGIN ["COM"]
properties('MP2/aug-cc-pvtz', properties = ['dipole'])
--------------------------------------------------------------------------

    Molecular point group: c1
  Charge       = 0
  Multiplicity = 1
  Basis Set: AUG-CC-PVTZ
    Blend: AUG-CC-PVTZ
  Basis Set: (AUG-CC-PVTZ AUX)
    Blend: AUG-CC-PVTZ-JKFIT

    Orbital Energies [Eh]
    ---------------------

    Doubly Occupied:

       1A    -20.599897     2A    -20.596657     3A    -20.586877
       4A    -20.561728     5A    -20.561595     6A    -20.561387
       7A    -11.362138     8A    -11.304903     9A    -11.301059
      10A    -11.297627    11A    -11.296381    12A    -11.282531
      13A     -1.446613    14A     -1.392501    15A     -1.385361
      16A     -1.366036    17A     -1.354872    18A     -1.349813
      19A     -1.062362    20A     -1.044223    21A     -0.949821
      22A     -0.894522    23A     -0.841648    24A     -0.813483
      25A     -0.764818    26A     -0.733253    27A     -0.716606
      28A     -0.710728    29A     -0.687953    30A     -0.673733
      31A     -0.661101    32A     -0.644234    33A     -0.618290
      34A     -0.613283    35A     -0.602784    36A     -0.594847
      37A     -0.572494    38A     -0.561240    39A     -0.539701
      40A     -0.531250    41A     -0.528771    42A     -0.511867
      43A     -0.494306    44A     -0.477961    45A     -0.467027
      46A     -0.457637    47A     -0.446417    48A     -0.412039

  @DF-RHF Final Energy:  -683.58195403582965

   => Energetics <=

    Nuclear Repulsion Energy =            833.2176867848505708
    One-Electron Energy =               -2595.1265350216212937
    Two-Electron Energy =                1078.3268942009410694
    Total Energy =                       -683.5819540358295399
  Basis Set: (AUG-CC-PVTZ AUX)
    Blend: AUG-CC-PVTZ-RI
    Molecular point group: c1

    Geometry (in Angstrom), charge = 0, multiplicity = 1:

       Center              X                  Y                   Z               Mass
    ------------   -----------------  -----------------  -----------------  -----------------
         O           -0.855385549661     0.896782982652     0.271067642916    15.994914619570
         O           -0.317674549661    -1.643887017348     1.308349642916    15.994914619570
         O            2.096129450339    -1.952763017348    -0.181710357084    15.994914619570
         O            2.746644450339     0.784530982652    -0.443584357084    15.994914619570
         O            0.730459450339     2.537056982652     0.578446642916    15.994914619570
         O           -3.490309549661     0.548532982652    -0.457177357084    15.994914619570
         C           -0.233733249661    -1.542756217348    -0.108869757084    12.000000000000
         C            1.152068450339    -0.958439017348    -0.531203357084    12.000000000000
         C           -1.224822549661    -0.289485017348    -0.476825357084    12.000000000000
         C            1.499451450339     0.373059982652     0.110053642916    12.000000000000
         C            0.413580450339     1.396874982652    -0.163738357084    12.000000000000
         C           -2.670534549661    -0.560560017348    -0.110268357084    12.000000000000
         H           -0.497505549661    -2.339909017348    -0.585554357084     1.007825032230
         H            1.135521450339    -0.807112017348    -1.625650357084     1.007825032230
         H           -1.167626549661    -0.068089017348    -1.554116357084     1.007825032230
         H            1.577820450339     0.238531982652     1.198091642916     1.007825032230
         H            0.359742450339     1.614203982652    -1.244825357084     1.007825032230
         H           -2.736199549661    -0.800508017348     0.957756642916     1.007825032230
         H           -3.040095549661    -1.419000017348    -0.677589357084     1.007825032230
         H           -0.397428549661    -0.765932017348     1.727428642916     1.007825032230
         H            2.969179450339    -1.553581017348    -0.355623357084     1.007825032230
         H            3.001814450339     1.600811982652     0.023490642916     1.007825032230
         H            0.112059450339     3.245055982652     0.324588642916     1.007825032230
         H           -3.088732549661     1.311079982652    -0.004366357084     1.007825032230

  Basis Set: AUG-CC-PVTZ
    Blend: AUG-CC-PVTZ
  Basis Set: (AUG-CC-PVTZ AUX)
    Blend: AUG-CC-PVTZ-JKFIT
	 Reference Energy          =    -683.5819540358296535 [Eh]
	 Singles Energy            =      -0.0000000000000000 [Eh]
	 Same-Spin Energy          =      -0.6658090930249938 [Eh]
	 Opposite-Spin Energy      =      -2.0463904668877873 [Eh]
	 Correlation Energy        =      -2.7121995599127811 [Eh]
	 Total Energy              =    -686.2941535957423866 [Eh]

	 ================> DF-SCS-MP2 Energies <==================
	-----------------------------------------------------------
	 SCS Same-Spin Scale       =       0.3333333333333333 [-]
	 SCS Opposite-Spin Scale   =       1.2000000000000000 [-]
	 SCS Same-Spin Energy      =      -0.2219363643416646 [Eh]
	 SCS Opposite-Spin Energy  =      -2.4556685602653445 [Eh]
	 SCS Correlation Energy    =      -2.6776049246070093 [Eh]
	 SCS Total Energy          =    -686.2595589604366069 [Eh]
	-----------------------------------------------------------

  Dipole Moment: [D]
     X:     0.7411      Y:     3.0360      Z:    -1.1190     Total:     3.3195

*** Psi4 exiting successfully. Buy a developer a beer!
