                               Psi4 1.3.2 release

  ==> Input File <==

--------------------------------------------------------------------------
#psi4
#
memory 32 gb

molecule  {
0 1
  O       -0.8456270     0.8862080     0.2793150
  O       -0.3079160    -1.6544620     1.3165970
  O        2.1058880    -1.9633380    -0.1734630
  O        2.7564030     0.7739560    -0.4353370
  O        0.7402180     2.5264820     0.5866940
  O       -3.4805510     0.5379580    -0.4489300
  C       -0.2340330    -1.4057570    -0.0828570
  C        1.1618270    -0.9690140    -0.5229560
  C       -1.2150640    -0.3000600    -0.4685780
  C        1.5092100     0.3624850     0.1183010
  C        0.4233390     1.3863000    -0.1554910
  C       -2.7561464    -0.5890172    -0.0778401
  H       -0.4877470    -2.3504840    -0.5773070
  H        1.1452800    -0.8176870    -1.6174030
  H       -1.1578680    -0.0786640    -1.5458690
  H        1.5875790     0.2279570     1.2063390
  H        0.3695010     1.6036290    -1.2365780
  H       -2.7264410    -0.8110830     0.9660040
  H       -3.0303370    -1.4295750    -0.6693420
  H       -0.3876700    -0.7765070     1.7356760
  H        2.9789380    -1.5641560    -0.3473760
  H        3.0115730     1.5902370     0.0317380
  H        0.1218180     3.2344810     0.3328360
  H       -3.0789740     1.3005050     0.0038810
units angstrom
no_reorient  #important for SAPT in psi4, default
symmetry c1  #important for SAPT in psi4, default
}

set PROPERTIES_ORIGIN ["COM"]
properties('MP2/aug-cc-pvtz', properties = ['dipole'])
--------------------------------------------------------------------------

    Molecular point group: c1
  Charge       = 0
  Multiplicity = 1
  Basis Set: AUG-CC-PVTZ
    Blend: AUG-CC-PVTZ
  Basis Set: (AUG-CC-PVTZ AUX)
    Blend: AUG-CC-PVTZ-JKFIT

    Orbital Energies [Eh]
    ---------------------

    Doubly Occupied:

       1A    -20.599153     2A    -20.593410     3A    -20.584268
       4A    -20.567259     5A    -20.563674     6A    -20.562603
       7A    -11.361156     8A    -11.303504     9A    -11.297599
      10A    -11.294066    11A    -11.292912    12A    -11.287184
      13A     -1.446226    14A     -1.390888    15A     -1.388461
      16A     -1.373740    17A     -1.358470    18A     -1.351331
      19A     -1.069359    20A     -1.039633    21A     -0.944791
      22A     -0.885484    23A     -0.853042    24A     -0.806425
      25A     -0.757900    26A     -0.735362    27A     -0.719545
      28A     -0.712453    29A     -0.694118    30A     -0.665561
      31A     -0.656773    32A     -0.639561    33A     -0.625659
      34A     -0.616419    35A     -0.610161    36A     -0.580307
      37A     -0.575139    38A     -0.563764    39A     -0.539019
      40A     -0.534523    41A     -0.526932    42A     -0.508702
      43A     -0.498190    44A     -0.481947    45A     -0.466260
      46A     -0.457170    47A     -0.440748    48A     -0.419896

  @DF-RHF Final Energy:  -683.60130582706017

   => Energetics <=

    Nuclear Repulsion Energy =            834.1915870583493415
    One-Electron Energy =               -2597.1042936525091136
    Two-Electron Energy =                1079.3114007670994852
    Total Energy =                       -683.6013058270602869
  Basis Set: (AUG-CC-PVTZ AUX)
    Blend: AUG-CC-PVTZ-RI
    Molecular point group: c1

    Geometry (in Angstrom), charge = 0, multiplicity = 1:

       Center              X                  Y                   Z               Mass
    ------------   -----------------  -----------------  -----------------  -----------------
         O           -0.848359443947     0.888139893036     0.268272207346    15.994914619570
         O           -0.310648443947    -1.652530106964     1.305554207346    15.994914619570
         O            2.103155556053    -1.961406106964    -0.184505792654    15.994914619570
         O            2.753670556053     0.775887893036    -0.446379792654    15.994914619570
         O            0.737485556053     2.528413893036     0.575651207346    15.994914619570
         O           -3.483283443947     0.539889893036    -0.459972792654    15.994914619570
         C           -0.236765443947    -1.403825106964    -0.093899792654    12.000000000000
         C            1.159094556053    -0.967082106964    -0.533998792654    12.000000000000
         C           -1.217796443947    -0.298128106964    -0.479620792654    12.000000000000
         C            1.506477556053     0.364416893036     0.107258207346    12.000000000000
         C            0.420606556053     1.388231893036    -0.166533792654    12.000000000000
         C           -2.758878843947    -0.587085306964    -0.088882892654    12.000000000000
         H           -0.490479443947    -2.348552106964    -0.588349792654     1.007825032230
         H            1.142547556053    -0.815755106964    -1.628445792654     1.007825032230
         H           -1.160600443947    -0.076732106964    -1.556911792654     1.007825032230
         H            1.584846556053     0.229888893036     1.195296207346     1.007825032230
         H            0.366768556053     1.605560893036    -1.247620792654     1.007825032230
         H           -2.729173443947    -0.809151106964     0.954961207346     1.007825032230
         H           -3.033069443947    -1.427643106964    -0.680384792654     1.007825032230
         H           -0.390402443947    -0.774575106964     1.724633207346     1.007825032230
         H            2.976205556053    -1.562224106964    -0.358418792654     1.007825032230
         H            3.008840556053     1.592168893036     0.020695207346     1.007825032230
         H            0.119085556053     3.236412893036     0.321793207346     1.007825032230
         H           -3.081706443947     1.302436893036    -0.007161792654     1.007825032230

  Basis Set: AUG-CC-PVTZ
    Blend: AUG-CC-PVTZ
  Basis Set: (AUG-CC-PVTZ AUX)
    Blend: AUG-CC-PVTZ-JKFIT
	 Reference Energy          =    -683.6013058270601732 [Eh]
	 Singles Energy            =      -0.0000000000000000 [Eh]
	 Same-Spin Energy          =      -0.6659958098168011 [Eh]
	 Opposite-Spin Energy      =      -2.0456171344088778 [Eh]
	 Correlation Energy        =      -2.7116129442256787 [Eh]
	 Total Energy              =    -686.3129187712858084 [Eh]

	 ================> DF-SCS-MP2 Energies <==================
	-----------------------------------------------------------
	 SCS Same-Spin Scale       =       0.3333333333333333 [-]
	 SCS Opposite-Spin Scale   =       1.2000000000000000 [-]
	 SCS Same-Spin Energy      =      -0.2219986032722670 [Eh]
	 SCS Opposite-Spin Energy  =      -2.4547405612906532 [Eh]
	 SCS Correlation Energy    =      -2.6767391645629202 [Eh]
	 SCS Total Energy          =    -686.2780449916231191 [Eh]
	-----------------------------------------------------------

  Dipole Moment: [D]
     X:     0.4409      Y:     3.2090      Z:    -1.0839     Total:     3.4157

*** Psi4 exiting successfully. Buy a developer a beer!
