                               Psi4 1.3.2 release

  ==> Input File <==

--------------------------------------------------------------------------
#psi4
#
memory 32 gb

molecule  {
0 1
  O       -0.8456270     0.8862080     0.2793150
  O       -0.3079160    -1.6544620     1.3165970
  O        2.1058880    -1.9633380    -0.1734630
  O        2.7564030     0.7739560    -0.4353370
  O        0.7402180     2.5264820     0.5866940
  O       -3.4805510     0.5379580    -0.4489300
  C       -0.2340330    -1.4057570    -0.0828570
  C        1.0704372    -0.9976085    -0.4941418
  C       -1.2150640    -0.3000600    -0.4685780
  C        1.5092100     0.3624850     0.1183010
  C        0.4233390     1.3863000    -0.1554910
  C       -2.6607760    -0.5711350    -0.1020210
  H       -0.4877470    -2.3504840    -0.5773070
  H        1.1452800    -0.8176870    -1.6174030
  H       -1.1578680    -0.0786640    -1.5458690
  H        1.5875790     0.2279570     1.2063390
  H        0.3695010     1.6036290    -1.2365780
  H       -2.7264410    -0.8110830     0.9660040
  H       -3.0303370    -1.4295750    -0.6693420
  H       -0.3876700    -0.7765070     1.7356760
  H        2.9789380    -1.5641560    -0.3473760
  H        3.0115730     1.5902370     0.0317380
  H        0.1218180     3.2344810     0.3328360
  H       -3.0789740     1.3005050     0.0038810
units angstrom
no_reorient  #important for SAPT in psi4, default
symmetry c1  #important for SAPT in psi4, default
}

set PROPERTIES_ORIGIN ["COM"]
properties('MP2/aug-cc-pvtz', properties = ['dipole'])
--------------------------------------------------------------------------

    Molecular point group: c1
  Charge       = 0
  Multiplicity = 1
  Basis Set: AUG-CC-PVTZ
    Blend: AUG-CC-PVTZ
  Basis Set: (AUG-CC-PVTZ AUX)
    Blend: AUG-CC-PVTZ-JKFIT

    Orbital Energies [Eh]
    ---------------------

    Doubly Occupied:

       1A    -20.599570     2A    -20.596549     3A    -20.587092
       4A    -20.566799     5A    -20.565886     6A    -20.558024
       7A    -11.361752     8A    -11.307703     9A    -11.301634
      10A    -11.299253    11A    -11.295315    12A    -11.287545
      13A     -1.448971    14A     -1.391047    15A     -1.388051
      16A     -1.369127    17A     -1.355529    18A     -1.343004
      19A     -1.086837    20A     -1.050912    21A     -0.958864
      22A     -0.883237    23A     -0.852238    24A     -0.806702
      25A     -0.758395    26A     -0.739893    27A     -0.720936
      28A     -0.714834    29A     -0.689369    30A     -0.666739
      31A     -0.656879    32A     -0.643524    33A     -0.630190
      34A     -0.619725    35A     -0.599692    36A     -0.579782
      37A     -0.575597    38A     -0.558480    39A     -0.537030
      40A     -0.531640    41A     -0.529168    42A     -0.512883
      43A     -0.496812    44A     -0.482588    45A     -0.475845
      46A     -0.458019    47A     -0.441734    48A     -0.432880

  @DF-RHF Final Energy:  -683.59615248033833

   => Energetics <=

    Nuclear Repulsion Energy =            836.6649478284065253
    One-Electron Energy =               -2601.8936536375576907
    Two-Electron Energy =                1081.6325533288127190
    Total Energy =                       -683.5961524803383327
  Basis Set: (AUG-CC-PVTZ AUX)
    Blend: AUG-CC-PVTZ-RI
    Molecular point group: c1

    Geometry (in Angstrom), charge = 0, multiplicity = 1:

       Center              X                  Y                   Z               Mass
    ------------   -----------------  -----------------  -----------------  -----------------
         O           -0.848624723860     0.888853794964     0.267963429417    15.994914619570
         O           -0.310913723860    -1.651816205036     1.305245429417    15.994914619570
         O            2.102890276140    -1.960692205036    -0.184814570583    15.994914619570
         O            2.753405276140     0.776601794964    -0.446688570583    15.994914619570
         O            0.737220276140     2.529127794964     0.575342429417    15.994914619570
         O           -3.483548723860     0.540603794964    -0.460281570583    15.994914619570
         C           -0.237030723860    -1.403111205036    -0.094208570583    12.000000000000
         C            1.067439476140    -0.994962705036    -0.505493370583    12.000000000000
         C           -1.218061723860    -0.297414205036    -0.479929570583    12.000000000000
         C            1.506212276140     0.365130794964     0.106949429417    12.000000000000
         C            0.420341276140     1.388945794964    -0.166842570583    12.000000000000
         C           -2.663773723860    -0.568489205036    -0.113372570583    12.000000000000
         H           -0.490744723860    -2.347838205036    -0.588658570583     1.007825032230
         H            1.142282276140    -0.815041205036    -1.628754570583     1.007825032230
         H           -1.160865723860    -0.076018205036    -1.557220570583     1.007825032230
         H            1.584581276140     0.230602794964     1.194987429417     1.007825032230
         H            0.366503276140     1.606274794964    -1.247929570583     1.007825032230
         H           -2.729438723860    -0.808437205036     0.954652429417     1.007825032230
         H           -3.033334723860    -1.426929205036    -0.680693570583     1.007825032230
         H           -0.390667723860    -0.773861205036     1.724324429417     1.007825032230
         H            2.975940276140    -1.561510205036    -0.358727570583     1.007825032230
         H            3.008575276140     1.592882794964     0.020386429417     1.007825032230
         H            0.118820276140     3.237126794964     0.321484429417     1.007825032230
         H           -3.081971723860     1.303150794964    -0.007470570583     1.007825032230

  Basis Set: AUG-CC-PVTZ
    Blend: AUG-CC-PVTZ
  Basis Set: (AUG-CC-PVTZ AUX)
    Blend: AUG-CC-PVTZ-JKFIT
	 Reference Energy          =    -683.5961524803383327 [Eh]
	 Singles Energy            =      -0.0000000000000000 [Eh]
	 Same-Spin Energy          =      -0.6670562075316695 [Eh]
	 Opposite-Spin Energy      =      -2.0474259069341869 [Eh]
	 Correlation Energy        =      -2.7144821144658566 [Eh]
	 Total Energy              =    -686.3106345948042417 [Eh]

	 ================> DF-SCS-MP2 Energies <==================
	-----------------------------------------------------------
	 SCS Same-Spin Scale       =       0.3333333333333333 [-]
	 SCS Opposite-Spin Scale   =       1.2000000000000000 [-]
	 SCS Same-Spin Energy      =      -0.2223520691772232 [Eh]
	 SCS Opposite-Spin Energy  =      -2.4569110883210241 [Eh]
	 SCS Correlation Energy    =      -2.6792631574982471 [Eh]
	 SCS Total Energy          =    -686.2754156378365451 [Eh]
	-----------------------------------------------------------

  Dipole Moment: [D]
     X:     0.4920      Y:     3.2266      Z:    -1.1022     Total:     3.4450

*** Psi4 exiting successfully. Buy a developer a beer!
