                               Psi4 1.3.2 release

  ==> Input File <==

--------------------------------------------------------------------------
#psi4
#
memory 32 gb

molecule  {
0 1
  O       -0.8456270     0.8862080     0.2793150
  O       -0.3079160    -1.6544620     1.3165970
  O        2.1058880    -1.9633380    -0.1734630
  O        2.7564030     0.7739560    -0.4353370
  O        0.7402180     2.5264820     0.5866940
  O       -3.4805510     0.5379580    -0.4489300
  C       -0.2641587    -1.3993059    -0.1849171
  C        1.1618270    -0.9690140    -0.5229560
  C       -1.2150640    -0.3000600    -0.4685780
  C        1.5092100     0.3624850     0.1183010
  C        0.4233390     1.3863000    -0.1554910
  C       -2.6607760    -0.5711350    -0.1020210
  H       -0.4877470    -2.3504840    -0.5773070
  H        1.1452800    -0.8176870    -1.6174030
  H       -1.1578680    -0.0786640    -1.5458690
  H        1.5875790     0.2279570     1.2063390
  H        0.3695010     1.6036290    -1.2365780
  H       -2.7264410    -0.8110830     0.9660040
  H       -3.0303370    -1.4295750    -0.6693420
  H       -0.3876700    -0.7765070     1.7356760
  H        2.9789380    -1.5641560    -0.3473760
  H        3.0115730     1.5902370     0.0317380
  H        0.1218180     3.2344810     0.3328360
  H       -3.0789740     1.3005050     0.0038810
units angstrom
no_reorient  #important for SAPT in psi4, default
symmetry c1  #important for SAPT in psi4, default
}

set PROPERTIES_ORIGIN ["COM"]
properties('MP2/aug-cc-pvtz', properties = ['dipole'])
--------------------------------------------------------------------------

    Molecular point group: c1
  Charge       = 0
  Multiplicity = 1
  Basis Set: AUG-CC-PVTZ
    Blend: AUG-CC-PVTZ
  Basis Set: (AUG-CC-PVTZ AUX)
    Blend: AUG-CC-PVTZ-JKFIT

    Orbital Energies [Eh]
    ---------------------

    Doubly Occupied:

       1A    -20.601068     2A    -20.597913     3A    -20.586381
       4A    -20.566208     5A    -20.565264     6A    -20.553482
       7A    -11.363732     8A    -11.307280     9A    -11.300731
      10A    -11.299283    11A    -11.298499    12A    -11.287284
      13A     -1.449305    14A     -1.393064    15A     -1.384789
      16A     -1.364173    17A     -1.357585    18A     -1.326758
      19A     -1.082730    20A     -1.055513    21A     -0.951526
      22A     -0.892403    23A     -0.852476    24A     -0.808570
      25A     -0.759299    26A     -0.737202    27A     -0.719798
      28A     -0.715553    29A     -0.690077    30A     -0.665382
      31A     -0.654769    32A     -0.638463    33A     -0.622547
      34A     -0.617322    35A     -0.597920    36A     -0.584493
      37A     -0.568493    38A     -0.564562    39A     -0.538267
      40A     -0.533185    41A     -0.526389    42A     -0.507771
      43A     -0.497243    44A     -0.485175    45A     -0.471748
      46A     -0.458856    47A     -0.447522    48A     -0.434429

  @DF-RHF Final Energy:  -683.59645390072342

   => Energetics <=

    Nuclear Repulsion Energy =            835.1677679098680755
    One-Electron Energy =               -2598.9634794778985452
    Two-Electron Energy =                1080.1992576673071653
    Total Energy =                       -683.5964539007234180
  Basis Set: (AUG-CC-PVTZ AUX)
    Blend: AUG-CC-PVTZ-RI
    Molecular point group: c1

    Geometry (in Angstrom), charge = 0, multiplicity = 1:

       Center              X                  Y                   Z               Mass
    ------------   -----------------  -----------------  -----------------  -----------------
         O           -0.852707559398     0.886518244110     0.276685311286    15.994914619570
         O           -0.314996559398    -1.654151755890     1.313967311286    15.994914619570
         O            2.098807440602    -1.963027755890    -0.176092688714    15.994914619570
         O            2.749322440602     0.774266244110    -0.437966688714    15.994914619570
         O            0.733137440602     2.526792244110     0.584064311286    15.994914619570
         O           -3.487631559398     0.538268244110    -0.451559688714    15.994914619570
         C           -0.271239259398    -1.398995655890    -0.187546788714    12.000000000000
         C            1.154746440602    -0.968703755890    -0.525585688714    12.000000000000
         C           -1.222144559398    -0.299749755890    -0.471207688714    12.000000000000
         C            1.502129440602     0.362795244110     0.115671311286    12.000000000000
         C            0.416258440602     1.386610244110    -0.158120688714    12.000000000000
         C           -2.667856559398    -0.570824755890    -0.104650688714    12.000000000000
         H           -0.494827559398    -2.350173755890    -0.579936688714     1.007825032230
         H            1.138199440602    -0.817376755890    -1.620032688714     1.007825032230
         H           -1.164948559398    -0.078353755890    -1.548498688714     1.007825032230
         H            1.580498440602     0.228267244110     1.203709311286     1.007825032230
         H            0.362420440602     1.603939244110    -1.239207688714     1.007825032230
         H           -2.733521559398    -0.810772755890     0.963374311286     1.007825032230
         H           -3.037417559398    -1.429264755890    -0.671971688714     1.007825032230
         H           -0.394750559398    -0.776196755890     1.733046311286     1.007825032230
         H            2.971857440602    -1.563845755890    -0.350005688714     1.007825032230
         H            3.004492440602     1.590547244110     0.029108311286     1.007825032230
         H            0.114737440602     3.234791244110     0.330206311286     1.007825032230
         H           -3.086054559398     1.300815244110     0.001251311286     1.007825032230

  Basis Set: AUG-CC-PVTZ
    Blend: AUG-CC-PVTZ
  Basis Set: (AUG-CC-PVTZ AUX)
    Blend: AUG-CC-PVTZ-JKFIT
	 Reference Energy          =    -683.5964539007234180 [Eh]
	 Singles Energy            =      -0.0000000000000000 [Eh]
	 Same-Spin Energy          =      -0.6667532633027260 [Eh]
	 Opposite-Spin Energy      =      -2.0481782720805648 [Eh]
	 Correlation Energy        =      -2.7149315353832906 [Eh]
	 Total Energy              =    -686.3113854361066615 [Eh]

	 ================> DF-SCS-MP2 Energies <==================
	-----------------------------------------------------------
	 SCS Same-Spin Scale       =       0.3333333333333333 [-]
	 SCS Opposite-Spin Scale   =       1.2000000000000000 [-]
	 SCS Same-Spin Energy      =      -0.2222510877675753 [Eh]
	 SCS Opposite-Spin Energy  =      -2.4578139264966778 [Eh]
	 SCS Correlation Energy    =      -2.6800650142642533 [Eh]
	 SCS Total Energy          =    -686.2765189149877187 [Eh]
	-----------------------------------------------------------

  Dipole Moment: [D]
     X:     0.6850      Y:     3.2017      Z:    -1.3563     Total:     3.5440

*** Psi4 exiting successfully. Buy a developer a beer!
