                               Psi4 1.3.2 release

  ==> Input File <==

--------------------------------------------------------------------------
#psi4
#
memory 32 gb

molecule  {
0 1
  O       -0.8360851     0.8132230     0.2117374
  O       -0.3079160    -1.6544620     1.3165970
  O        2.1058880    -1.9633380    -0.1734630
  O        2.7564030     0.7739560    -0.4353370
  O        0.7402180     2.5264820     0.5866940
  O       -3.4805510     0.5379580    -0.4489300
  C       -0.2340330    -1.4057570    -0.0828570
  C        1.1618270    -0.9690140    -0.5229560
  C       -1.2150640    -0.3000600    -0.4685780
  C        1.5092100     0.3624850     0.1183010
  C        0.4233390     1.3863000    -0.1554910
  C       -2.6607760    -0.5711350    -0.1020210
  H       -0.4877470    -2.3504840    -0.5773070
  H        1.1452800    -0.8176870    -1.6174030
  H       -1.1578680    -0.0786640    -1.5458690
  H        1.5875790     0.2279570     1.2063390
  H        0.3695010     1.6036290    -1.2365780
  H       -2.7264410    -0.8110830     0.9660040
  H       -3.0303370    -1.4295750    -0.6693420
  H       -0.3876700    -0.7765070     1.7356760
  H        2.9789380    -1.5641560    -0.3473760
  H        3.0115730     1.5902370     0.0317380
  H        0.1218180     3.2344810     0.3328360
  H       -3.0789740     1.3005050     0.0038810
units angstrom
no_reorient  #important for SAPT in psi4, default
symmetry c1  #important for SAPT in psi4, default
}

set PROPERTIES_ORIGIN ["COM"]
properties('MP2/aug-cc-pvtz', properties = ['dipole'])
--------------------------------------------------------------------------

    Molecular point group: c1
  Charge       = 0
  Multiplicity = 1
  Basis Set: AUG-CC-PVTZ
    Blend: AUG-CC-PVTZ
  Basis Set: (AUG-CC-PVTZ AUX)
    Blend: AUG-CC-PVTZ-JKFIT

    Orbital Energies [Eh]
    ---------------------

    Doubly Occupied:

       1A    -20.608227     2A    -20.591945     3A    -20.585244
       4A    -20.564069     5A    -20.563686     6A    -20.563076
       7A    -11.367425     8A    -11.299134     9A    -11.296295
      10A    -11.293458    11A    -11.291029    12A    -11.282912
      13A     -1.463069    14A     -1.402094    15A     -1.391370
      16A     -1.368464    17A     -1.359743    18A     -1.352855
      19A     -1.068485    20A     -1.057647    21A     -0.947260
      22A     -0.890918    23A     -0.851483    24A     -0.810018
      25A     -0.763960    26A     -0.743231    27A     -0.725424
      28A     -0.715820    29A     -0.694662    30A     -0.668182
      31A     -0.658847    32A     -0.640669    33A     -0.626352
      34A     -0.621873    35A     -0.597358    36A     -0.582629
      37A     -0.578320    38A     -0.561037    39A     -0.541299
      40A     -0.536643    41A     -0.532279    42A     -0.514644
      43A     -0.492955    44A     -0.479871    45A     -0.466827
      46A     -0.458186    47A     -0.442580    48A     -0.424219

  @DF-RHF Final Energy:  -683.60500348241226

   => Energetics <=

    Nuclear Repulsion Energy =            838.3538611880823055
    One-Electron Energy =               -2605.2421779546389189
    Two-Electron Energy =                1083.2833132841444694
    Total Energy =                       -683.6050034824122577
  Basis Set: (AUG-CC-PVTZ AUX)
    Blend: AUG-CC-PVTZ-RI
    Molecular point group: c1

    Geometry (in Angstrom), charge = 0, multiplicity = 1:

       Center              X                  Y                   Z               Mass
    ------------   -----------------  -----------------  -----------------  -----------------
         O           -0.846020933206     0.820446376516     0.208308974468    15.994914619570
         O           -0.317851833206    -1.647238623484     1.313168574468    15.994914619570
         O            2.095952166794    -1.956114623484    -0.176891425532    15.994914619570
         O            2.746467166794     0.781179376516    -0.438765425532    15.994914619570
         O            0.730282166794     2.533705376516     0.583265574468    15.994914619570
         O           -3.490486833206     0.545181376516    -0.452358425532    15.994914619570
         C           -0.243968833206    -1.398533623484    -0.086285425532    12.000000000000
         C            1.151891166794    -0.961790623484    -0.526384425532    12.000000000000
         C           -1.224999833206    -0.292836623484    -0.472006425532    12.000000000000
         C            1.499274166794     0.369708376516     0.114872574468    12.000000000000
         C            0.413403166794     1.393523376516    -0.158919425532    12.000000000000
         C           -2.670711833206    -0.563911623484    -0.105449425532    12.000000000000
         H           -0.497682833206    -2.343260623484    -0.580735425532     1.007825032230
         H            1.135344166794    -0.810463623484    -1.620831425532     1.007825032230
         H           -1.167803833206    -0.071440623484    -1.549297425532     1.007825032230
         H            1.577643166794     0.235180376516     1.202910574468     1.007825032230
         H            0.359565166794     1.610852376516    -1.240006425532     1.007825032230
         H           -2.736376833206    -0.803859623484     0.962575574468     1.007825032230
         H           -3.040272833206    -1.422351623484    -0.672770425532     1.007825032230
         H           -0.397605833206    -0.769283623484     1.732247574468     1.007825032230
         H            2.969002166794    -1.556932623484    -0.350804425532     1.007825032230
         H            3.001637166794     1.597460376516     0.028309574468     1.007825032230
         H            0.111882166794     3.241704376516     0.329407574468     1.007825032230
         H           -3.088909833206     1.307728376516     0.000452574468     1.007825032230

  Basis Set: AUG-CC-PVTZ
    Blend: AUG-CC-PVTZ
  Basis Set: (AUG-CC-PVTZ AUX)
    Blend: AUG-CC-PVTZ-JKFIT
	 Reference Energy          =    -683.6050034824122577 [Eh]
	 Singles Energy            =      -0.0000000000000000 [Eh]
	 Same-Spin Energy          =      -0.6660995491148032 [Eh]
	 Opposite-Spin Energy      =      -2.0441164950892858 [Eh]
	 Correlation Energy        =      -2.7102160442040892 [Eh]
	 Total Energy              =    -686.3152195266163744 [Eh]

	 ================> DF-SCS-MP2 Energies <==================
	-----------------------------------------------------------
	 SCS Same-Spin Scale       =       0.3333333333333333 [-]
	 SCS Opposite-Spin Scale   =       1.2000000000000000 [-]
	 SCS Same-Spin Energy      =      -0.2220331830382677 [Eh]
	 SCS Opposite-Spin Energy  =      -2.4529397941071429 [Eh]
	 SCS Correlation Energy    =      -2.6749729771454107 [Eh]
	 SCS Total Energy          =    -686.2799764595577017 [Eh]
	-----------------------------------------------------------

  Dipole Moment: [D]
     X:     0.7205      Y:     3.4852      Z:    -0.9160     Total:     3.6749

*** Psi4 exiting successfully. Buy a developer a beer!
