                               Psi4 1.3.2 release

  ==> Input File <==

--------------------------------------------------------------------------
#psi4
#
memory 32 gb

molecule  {
0 1
  O       -0.8456270     0.8862080     0.2793150
  O       -0.2822810    -1.5596113     1.3312807
  O        2.1058880    -1.9633380    -0.1734630
  O        2.7564030     0.7739560    -0.4353370
  O        0.7402180     2.5264820     0.5866940
  O       -3.4805510     0.5379580    -0.4489300
  C       -0.2340330    -1.4057570    -0.0828570
  C        1.1618270    -0.9690140    -0.5229560
  C       -1.2150640    -0.3000600    -0.4685780
  C        1.5092100     0.3624850     0.1183010
  C        0.4233390     1.3863000    -0.1554910
  C       -2.6607760    -0.5711350    -0.1020210
  H       -0.4877470    -2.3504840    -0.5773070
  H        1.1452800    -0.8176870    -1.6174030
  H       -1.1578680    -0.0786640    -1.5458690
  H        1.5875790     0.2279570     1.2063390
  H        0.3695010     1.6036290    -1.2365780
  H       -2.7264410    -0.8110830     0.9660040
  H       -3.0303370    -1.4295750    -0.6693420
  H       -0.3876700    -0.7765070     1.7356760
  H        2.9789380    -1.5641560    -0.3473760
  H        3.0115730     1.5902370     0.0317380
  H        0.1218180     3.2344810     0.3328360
  H       -3.0789740     1.3005050     0.0038810
units angstrom
no_reorient  #important for SAPT in psi4, default
symmetry c1  #important for SAPT in psi4, default
}

set PROPERTIES_ORIGIN ["COM"]
properties('MP2/aug-cc-pvtz', properties = ['dipole'])
--------------------------------------------------------------------------

    Molecular point group: c1
  Charge       = 0
  Multiplicity = 1
  Basis Set: AUG-CC-PVTZ
    Blend: AUG-CC-PVTZ
  Basis Set: (AUG-CC-PVTZ AUX)
    Blend: AUG-CC-PVTZ-JKFIT

    Orbital Energies [Eh]
    ---------------------

    Doubly Occupied:

       1A    -20.599290     2A    -20.593610     3A    -20.584440
       4A    -20.564463     5A    -20.563862     6A    -20.553740
       7A    -11.361469     8A    -11.304305     9A    -11.299777
      10A    -11.297668    11A    -11.294220    12A    -11.286010
      13A     -1.447945    14A     -1.397488    15A     -1.391019
      16A     -1.371829    17A     -1.357874    18A     -1.354894
      19A     -1.075660    20A     -1.051430    21A     -0.950522
      22A     -0.889518    23A     -0.848769    24A     -0.812811
      25A     -0.762487    26A     -0.738662    27A     -0.723346
      28A     -0.714455    29A     -0.690081    30A     -0.666775
      31A     -0.664345    32A     -0.642760    33A     -0.624144
      34A     -0.618137    35A     -0.598990    36A     -0.586958
      37A     -0.573668    38A     -0.562314    39A     -0.539958
      40A     -0.532893    41A     -0.528840    42A     -0.511886
      43A     -0.495348    44A     -0.481565    45A     -0.470551
      46A     -0.459128    47A     -0.444448    48A     -0.430053

  @DF-RHF Final Energy:  -683.60466490386727

   => Energetics <=

    Nuclear Repulsion Energy =            837.7978456862834946
    One-Electron Energy =               -2604.1762165069553703
    Two-Electron Energy =                1082.7737059168048290
    Total Energy =                       -683.6046649038671603
  Basis Set: (AUG-CC-PVTZ AUX)
    Blend: AUG-CC-PVTZ-RI
    Molecular point group: c1

    Geometry (in Angstrom), charge = 0, multiplicity = 1:

       Center              X                  Y                   Z               Mass
    ------------   -----------------  -----------------  -----------------  -----------------
         O           -0.856992372898     0.878522639544     0.268579356249    15.994914619570
         O           -0.293646372898    -1.567296660456     1.320545056249    15.994914619570
         O            2.094522627102    -1.971023360456    -0.184198643751    15.994914619570
         O            2.745037627102     0.766270639544    -0.446072643751    15.994914619570
         O            0.728852627102     2.518796639544     0.575958356249    15.994914619570
         O           -3.491916372898     0.530272639544    -0.459665643751    15.994914619570
         C           -0.245398372898    -1.413442360456    -0.093592643751    12.000000000000
         C            1.150461627102    -0.976699360456    -0.533691643751    12.000000000000
         C           -1.226429372898    -0.307745360456    -0.479313643751    12.000000000000
         C            1.497844627102     0.354799639544     0.107565356249    12.000000000000
         C            0.411973627102     1.378614639544    -0.166226643751    12.000000000000
         C           -2.672141372898    -0.578820360456    -0.112756643751    12.000000000000
         H           -0.499112372898    -2.358169360456    -0.588042643751     1.007825032230
         H            1.133914627102    -0.825372360456    -1.628138643751     1.007825032230
         H           -1.169233372898    -0.086349360456    -1.556604643751     1.007825032230
         H            1.576213627102     0.220271639544     1.195603356249     1.007825032230
         H            0.358135627102     1.595943639544    -1.247313643751     1.007825032230
         H           -2.737806372898    -0.818768360456     0.955268356249     1.007825032230
         H           -3.041702372898    -1.437260360456    -0.680077643751     1.007825032230
         H           -0.399035372898    -0.784192360456     1.724940356249     1.007825032230
         H            2.967572627102    -1.571841360456    -0.358111643751     1.007825032230
         H            3.000207627102     1.582551639544     0.021002356249     1.007825032230
         H            0.110452627102     3.226795639544     0.322100356249     1.007825032230
         H           -3.090339372898     1.292819639544    -0.006854643751     1.007825032230

  Basis Set: AUG-CC-PVTZ
    Blend: AUG-CC-PVTZ
  Basis Set: (AUG-CC-PVTZ AUX)
    Blend: AUG-CC-PVTZ-JKFIT
	 Reference Energy          =    -683.6046649038672740 [Eh]
	 Singles Energy            =      -0.0000000000000000 [Eh]
	 Same-Spin Energy          =      -0.6650845990699441 [Eh]
	 Opposite-Spin Energy      =      -2.0431872362591470 [Eh]
	 Correlation Energy        =      -2.7082718353290911 [Eh]
	 Total Energy              =    -686.3129367391964024 [Eh]

	 ================> DF-SCS-MP2 Energies <==================
	-----------------------------------------------------------
	 SCS Same-Spin Scale       =       0.3333333333333333 [-]
	 SCS Opposite-Spin Scale   =       1.2000000000000000 [-]
	 SCS Same-Spin Energy      =      -0.2216948663566480 [Eh]
	 SCS Opposite-Spin Energy  =      -2.4518246835109765 [Eh]
	 SCS Correlation Energy    =      -2.6735195498676245 [Eh]
	 SCS Total Energy          =    -686.2781844537348661 [Eh]
	-----------------------------------------------------------

  Dipole Moment: [D]
     X:     0.5935      Y:     3.0079      Z:    -1.1270     Total:     3.2665

*** Psi4 exiting successfully. Buy a developer a beer!
