                               Psi4 1.3.2 release

  ==> Input File <==

--------------------------------------------------------------------------
#psi4
#
memory 32 gb

molecule  {
0 1
  O       -0.8456270     0.8862080     0.2793150
  O       -0.3079160    -1.6544620     1.3165970
  O        2.1058880    -1.9633380    -0.1734630
  O        2.7564030     0.7739560    -0.4353370
  O        0.7402180     2.5264820     0.5866940
  O       -3.4805510     0.5379580    -0.4489300
  C       -0.2315471    -1.4277941    -0.0976488
  C        1.1618270    -0.9690140    -0.5229560
  C       -1.2150640    -0.3000600    -0.4685780
  C        1.5092100     0.3624850     0.1183010
  C        0.4233390     1.3863000    -0.1554910
  C       -2.6607760    -0.5711350    -0.1020210
  H       -0.4877470    -2.3504840    -0.5773070
  H        1.1452800    -0.8176870    -1.6174030
  H       -1.1578680    -0.0786640    -1.5458690
  H        1.5875790     0.2279570     1.2063390
  H        0.3695010     1.6036290    -1.2365780
  H       -2.7264410    -0.8110830     0.9660040
  H       -3.0303370    -1.4295750    -0.6693420
  H       -0.3876700    -0.7765070     1.7356760
  H        2.9789380    -1.5641560    -0.3473760
  H        3.0115730     1.5902370     0.0317380
  H        0.1218180     3.2344810     0.3328360
  H       -3.0789740     1.3005050     0.0038810
units angstrom
no_reorient  #important for SAPT in psi4, default
symmetry c1  #important for SAPT in psi4, default
}

set PROPERTIES_ORIGIN ["COM"]
properties('MP2/aug-cc-pvtz', properties = ['dipole'])
--------------------------------------------------------------------------

    Molecular point group: c1
  Charge       = 0
  Multiplicity = 1
  Basis Set: AUG-CC-PVTZ
    Blend: AUG-CC-PVTZ
  Basis Set: (AUG-CC-PVTZ AUX)
    Blend: AUG-CC-PVTZ-JKFIT

    Orbital Energies [Eh]
    ---------------------

    Doubly Occupied:

       1A    -20.600203     2A    -20.595534     3A    -20.585786
       4A    -20.564146     5A    -20.563978     6A    -20.563214
       7A    -11.362583     8A    -11.305196     9A    -11.299530
      10A    -11.296771    11A    -11.295259    12A    -11.285509
      13A     -1.447995    14A     -1.392196    15A     -1.387278
      16A     -1.366582    17A     -1.356532    18A     -1.349777
      19A     -1.072203    20A     -1.050718    21A     -0.949382
      22A     -0.888509    23A     -0.847949    24A     -0.809156
      25A     -0.760294    26A     -0.736405    27A     -0.720700
      28A     -0.713807    29A     -0.689352    30A     -0.665522
      31A     -0.658592    32A     -0.641021    33A     -0.621942
      34A     -0.618192    35A     -0.598162    36A     -0.584371
      37A     -0.574280    38A     -0.562907    39A     -0.539638
      40A     -0.533633    41A     -0.529246    42A     -0.511609
      43A     -0.495688    44A     -0.482743    45A     -0.470689
      46A     -0.459724    47A     -0.445632    48A     -0.428933

  @DF-RHF Final Energy:  -683.60764763674365

   => Energetics <=

    Nuclear Repulsion Energy =            835.4540288415439591
    One-Electron Energy =               -2599.5652175751624782
    Two-Electron Energy =                1080.5035410968748693
    Total Energy =                       -683.6076476367436499
  Basis Set: (AUG-CC-PVTZ AUX)
    Blend: AUG-CC-PVTZ-RI
    Molecular point group: c1

    Geometry (in Angstrom), charge = 0, multiplicity = 1:

       Center              X                  Y                   Z               Mass
    ------------   -----------------  -----------------  -----------------  -----------------
         O           -0.854880900709     0.888416788859     0.270869472703    15.994914619570
         O           -0.317169900709    -1.652253211141     1.308151472703    15.994914619570
         O            2.096634099291    -1.961129211141    -0.181908527297    15.994914619570
         O            2.747149099291     0.776164788859    -0.443782527297    15.994914619570
         O            0.730964099291     2.528690788859     0.578248472703    15.994914619570
         O           -3.489804900709     0.540166788859    -0.457375527297    15.994914619570
         C           -0.240801000709    -1.425585311141    -0.106094327297    12.000000000000
         C            1.152573099291    -0.966805211141    -0.531401527297    12.000000000000
         C           -1.224317900709    -0.297851211141    -0.477023527297    12.000000000000
         C            1.499956099291     0.364693788859     0.109855472703    12.000000000000
         C            0.414085099291     1.388508788859    -0.163936527297    12.000000000000
         C           -2.670029900709    -0.568926211141    -0.110466527297    12.000000000000
         H           -0.497000900709    -2.348275211141    -0.585752527297     1.007825032230
         H            1.136026099291    -0.815478211141    -1.625848527297     1.007825032230
         H           -1.167121900709    -0.076455211141    -1.554314527297     1.007825032230
         H            1.578325099291     0.230165788859     1.197893472703     1.007825032230
         H            0.360247099291     1.605837788859    -1.245023527297     1.007825032230
         H           -2.735694900709    -0.808874211141     0.957558472703     1.007825032230
         H           -3.039590900709    -1.427366211141    -0.677787527297     1.007825032230
         H           -0.396923900709    -0.774298211141     1.727230472703     1.007825032230
         H            2.969684099291    -1.561947211141    -0.355821527297     1.007825032230
         H            3.002319099291     1.592445788859     0.023292472703     1.007825032230
         H            0.112564099291     3.236689788859     0.324390472703     1.007825032230
         H           -3.088227900709     1.302713788859    -0.004564527297     1.007825032230

  Basis Set: AUG-CC-PVTZ
    Blend: AUG-CC-PVTZ
  Basis Set: (AUG-CC-PVTZ AUX)
    Blend: AUG-CC-PVTZ-JKFIT
	 Reference Energy          =    -683.6076476367436499 [Eh]
	 Singles Energy            =      -0.0000000000000000 [Eh]
	 Same-Spin Energy          =      -0.6661538060139038 [Eh]
	 Opposite-Spin Energy      =      -2.0461196177953309 [Eh]
	 Correlation Energy        =      -2.7122734238092345 [Eh]
	 Total Energy              =    -686.3199210605529288 [Eh]

	 ================> DF-SCS-MP2 Energies <==================
	-----------------------------------------------------------
	 SCS Same-Spin Scale       =       0.3333333333333333 [-]
	 SCS Opposite-Spin Scale   =       1.2000000000000000 [-]
	 SCS Same-Spin Energy      =      -0.2220512686713013 [Eh]
	 SCS Opposite-Spin Energy  =      -2.4553435413543969 [Eh]
	 SCS Correlation Energy    =      -2.6773948100256981 [Eh]
	 SCS Total Energy          =    -686.2850424467693529 [Eh]
	-----------------------------------------------------------

  Dipole Moment: [D]
     X:     0.6812      Y:     3.1423      Z:    -1.1370     Total:     3.4104

*** Psi4 exiting successfully. Buy a developer a beer!
