                               Psi4 1.3.2 release

  ==> Input File <==

--------------------------------------------------------------------------
#psi4
#
memory 32 gb

molecule  {
0 1
  O       -0.8456270     0.8862080     0.2793150
  O       -0.3079160    -1.6544620     1.3165970
  O        2.1058880    -1.9633380    -0.1734630
  O        2.7564030     0.7739560    -0.4353370
  O        0.7402180     2.5264820     0.5866940
  O       -3.4805510     0.5379580    -0.4489300
  C       -0.2340330    -1.4057570    -0.0828570
  C        1.1618270    -0.9690140    -0.5229560
  C       -1.2150640    -0.3000600    -0.4685780
  C        1.5092100     0.3624850     0.1183010
  C        0.4233390     1.3863000    -0.1554910
  C       -2.4700352    -0.5353706    -0.1503829
  H       -0.4877470    -2.3504840    -0.5773070
  H        1.1452800    -0.8176870    -1.6174030
  H       -1.1578680    -0.0786640    -1.5458690
  H        1.5875790     0.2279570     1.2063390
  H        0.3695010     1.6036290    -1.2365780
  H       -2.7264410    -0.8110830     0.9660040
  H       -3.0303370    -1.4295750    -0.6693420
  H       -0.3876700    -0.7765070     1.7356760
  H        2.9789380    -1.5641560    -0.3473760
  H        3.0115730     1.5902370     0.0317380
  H        0.1218180     3.2344810     0.3328360
  H       -3.0789740     1.3005050     0.0038810
units angstrom
no_reorient  #important for SAPT in psi4, default
symmetry c1  #important for SAPT in psi4, default
}

set PROPERTIES_ORIGIN ["COM"]
properties('MP2/aug-cc-pvtz', properties = ['dipole'])
--------------------------------------------------------------------------

    Molecular point group: c1
  Charge       = 0
  Multiplicity = 1
  Basis Set: AUG-CC-PVTZ
    Blend: AUG-CC-PVTZ
  Basis Set: (AUG-CC-PVTZ AUX)
    Blend: AUG-CC-PVTZ-JKFIT

    Orbital Energies [Eh]
    ---------------------

    Doubly Occupied:

       1A    -20.601810     2A    -20.597909     3A    -20.587334
       4A    -20.568009     5A    -20.566721     6A    -20.560583
       7A    -11.364648     8A    -11.303267     9A    -11.301322
      10A    -11.300113    11A    -11.298269    12A    -11.290160
      13A     -1.452758    14A     -1.394506    15A     -1.392730
      16A     -1.367214    17A     -1.356632    18A     -1.334893
      19A     -1.102036    20A     -1.069810    21A     -0.960198
      22A     -0.892006    23A     -0.833185    24A     -0.813450
      25A     -0.763247    26A     -0.743184    27A     -0.729672
      28A     -0.719913    29A     -0.688420    30A     -0.666921
      31A     -0.662060    32A     -0.645016    33A     -0.624551
      34A     -0.616087    35A     -0.587963    36A     -0.580746
      37A     -0.571754    38A     -0.555427    39A     -0.542554
      40A     -0.540917    41A     -0.526407    42A     -0.510606
      43A     -0.499671    44A     -0.485083    45A     -0.466274
      46A     -0.459178    47A     -0.442694    48A     -0.437370

  @DF-RHF Final Energy:  -683.55448933523121

   => Energetics <=

    Nuclear Repulsion Energy =            839.7315224182057136
    One-Electron Energy =               -2607.8214639160132720
    Two-Electron Energy =                1084.5354521625763482
    Total Energy =                       -683.5544893352312101
  Basis Set: (AUG-CC-PVTZ AUX)
    Blend: AUG-CC-PVTZ-RI
    Molecular point group: c1

    Geometry (in Angstrom), charge = 0, multiplicity = 1:

       Center              X                  Y                   Z               Mass
    ------------   -----------------  -----------------  -----------------  -----------------
         O           -0.867426809257     0.884564712058     0.273106691519    15.994914619570
         O           -0.329715809257    -1.656105287942     1.310388691519    15.994914619570
         O            2.084088190743    -1.964981287942    -0.179671308481    15.994914619570
         O            2.734603190743     0.772312712058    -0.441545308481    15.994914619570
         O            0.718418190743     2.524838712058     0.580485691519    15.994914619570
         O           -3.502350809257     0.536314712058    -0.455138308481    15.994914619570
         C           -0.255832809257    -1.407400287942    -0.089065308481    12.000000000000
         C            1.140027190743    -0.970657287942    -0.529164308481    12.000000000000
         C           -1.236863809257    -0.301703287942    -0.474786308481    12.000000000000
         C            1.487410190743     0.360841712058     0.112092691519    12.000000000000
         C            0.401539190743     1.384656712058    -0.161699308481    12.000000000000
         C           -2.491835009257    -0.537013887942    -0.156591208481    12.000000000000
         H           -0.509546809257    -2.352127287942    -0.583515308481     1.007825032230
         H            1.123480190743    -0.819330287942    -1.623611308481     1.007825032230
         H           -1.179667809257    -0.080307287942    -1.552077308481     1.007825032230
         H            1.565779190743     0.226313712058     1.200130691519     1.007825032230
         H            0.347701190743     1.601985712058    -1.242786308481     1.007825032230
         H           -2.748240809257    -0.812726287942     0.959795691519     1.007825032230
         H           -3.052136809257    -1.431218287942    -0.675550308481     1.007825032230
         H           -0.409469809257    -0.778150287942     1.729467691519     1.007825032230
         H            2.957138190743    -1.565799287942    -0.353584308481     1.007825032230
         H            2.989773190743     1.588593712058     0.025529691519     1.007825032230
         H            0.100018190743     3.232837712058     0.326627691519     1.007825032230
         H           -3.100773809257     1.298861712058    -0.002327308481     1.007825032230

  Basis Set: AUG-CC-PVTZ
    Blend: AUG-CC-PVTZ
  Basis Set: (AUG-CC-PVTZ AUX)
    Blend: AUG-CC-PVTZ-JKFIT
	 Reference Energy          =    -683.5544893352312101 [Eh]
	 Singles Energy            =      -0.0000000000000000 [Eh]
	 Same-Spin Energy          =      -0.6701176826683846 [Eh]
	 Opposite-Spin Energy      =      -2.0525580712812586 [Eh]
	 Correlation Energy        =      -2.7226757539496429 [Eh]
	 Total Energy              =    -686.2771650891808122 [Eh]

	 ================> DF-SCS-MP2 Energies <==================
	-----------------------------------------------------------
	 SCS Same-Spin Scale       =       0.3333333333333333 [-]
	 SCS Opposite-Spin Scale   =       1.2000000000000000 [-]
	 SCS Same-Spin Energy      =      -0.2233725608894615 [Eh]
	 SCS Opposite-Spin Energy  =      -2.4630696855375103 [Eh]
	 SCS Correlation Energy    =      -2.6864422464269717 [Eh]
	 SCS Total Energy          =    -686.2409315816581739 [Eh]
	-----------------------------------------------------------

  Dipole Moment: [D]
     X:     1.0413      Y:     3.0527      Z:    -1.1218     Total:     3.4149

*** Psi4 exiting successfully. Buy a developer a beer!
