                               Psi4 1.3.2 release

  ==> Input File <==

--------------------------------------------------------------------------
#psi4
#
memory 32 gb

molecule  {
0 1
  O       -0.8456270     0.8862080     0.2793150
  O       -0.3079160    -1.6544620     1.3165970
  O        2.1058880    -1.9633380    -0.1734630
  O        2.7564030     0.7739560    -0.4353370
  O        0.7402180     2.5264820     0.5866940
  O       -3.5581483     0.4872791    -0.4133835
  C       -0.2340330    -1.4057570    -0.0828570
  C        1.1618270    -0.9690140    -0.5229560
  C       -1.2150640    -0.3000600    -0.4685780
  C        1.5092100     0.3624850     0.1183010
  C        0.4233390     1.3863000    -0.1554910
  C       -2.6607760    -0.5711350    -0.1020210
  H       -0.4877470    -2.3504840    -0.5773070
  H        1.1452800    -0.8176870    -1.6174030
  H       -1.1578680    -0.0786640    -1.5458690
  H        1.5875790     0.2279570     1.2063390
  H        0.3695010     1.6036290    -1.2365780
  H       -2.7264410    -0.8110830     0.9660040
  H       -3.0303370    -1.4295750    -0.6693420
  H       -0.3876700    -0.7765070     1.7356760
  H        2.9789380    -1.5641560    -0.3473760
  H        3.0115730     1.5902370     0.0317380
  H        0.1218180     3.2344810     0.3328360
  H       -3.0789740     1.3005050     0.0038810
units angstrom
no_reorient  #important for SAPT in psi4, default
symmetry c1  #important for SAPT in psi4, default
}

set PROPERTIES_ORIGIN ["COM"]
properties('MP2/aug-cc-pvtz', properties = ['dipole'])
--------------------------------------------------------------------------

    Molecular point group: c1
  Charge       = 0
  Multiplicity = 1
  Basis Set: AUG-CC-PVTZ
    Blend: AUG-CC-PVTZ
  Basis Set: (AUG-CC-PVTZ AUX)
    Blend: AUG-CC-PVTZ-JKFIT

    Orbital Energies [Eh]
    ---------------------

    Doubly Occupied:

       1A    -20.601143     2A    -20.596906     3A    -20.586259
       4A    -20.570669     5A    -20.565805     6A    -20.565020
       7A    -11.363737     8A    -11.307262     9A    -11.299987
      10A    -11.298642    11A    -11.296078    12A    -11.284145
      13A     -1.449434    14A     -1.392779    15A     -1.389109
      16A     -1.365588    17A     -1.355022    18A     -1.349018
      19A     -1.074024    20A     -1.052051    21A     -0.946894
      22A     -0.888489    23A     -0.846241    24A     -0.809879
      25A     -0.760619    26A     -0.737405    27A     -0.721952
      28A     -0.714811    29A     -0.683786    30A     -0.665316
      31A     -0.659329    32A     -0.640210    33A     -0.624033
      34A     -0.619265    35A     -0.593939    36A     -0.580053
      37A     -0.576848    38A     -0.563898    39A     -0.540623
      40A     -0.536339    41A     -0.529599    42A     -0.512626
      43A     -0.494743    44A     -0.484762    45A     -0.468798
      46A     -0.460733    47A     -0.445004    48A     -0.431389

  @DF-RHF Final Energy:  -683.60044258523021

   => Energetics <=

    Nuclear Repulsion Energy =            834.4682815020850057
    One-Electron Energy =               -2597.5369227215433057
    Two-Electron Energy =                1079.4681986342279743
    Total Energy =                       -683.6004425852302120
  Basis Set: (AUG-CC-PVTZ AUX)
    Blend: AUG-CC-PVTZ-RI
    Molecular point group: c1

    Geometry (in Angstrom), charge = 0, multiplicity = 1:

       Center              X                  Y                   Z               Mass
    ------------   -----------------  -----------------  -----------------  -----------------
         O           -0.847822314277     0.891449940041     0.266726127182    15.994914619570
         O           -0.310111314277    -1.649220059959     1.304008127182    15.994914619570
         O            2.103692685723    -1.958096059959    -0.186051872818    15.994914619570
         O            2.754207685723     0.779197940041    -0.447925872818    15.994914619570
         O            0.738022685723     2.531723940041     0.574105127182    15.994914619570
         O           -3.560343614277     0.492521040041    -0.425972372818    15.994914619570
         C           -0.236228314277    -1.400515059959    -0.095445872818    12.000000000000
         C            1.159631685723    -0.963772059959    -0.535544872818    12.000000000000
         C           -1.217259314277    -0.294818059959    -0.481166872818    12.000000000000
         C            1.507014685723     0.367726940041     0.105712127182    12.000000000000
         C            0.421143685723     1.391541940041    -0.168079872818    12.000000000000
         C           -2.662971314277    -0.565893059959    -0.114609872818    12.000000000000
         H           -0.489942314277    -2.345242059959    -0.589895872818     1.007825032230
         H            1.143084685723    -0.812445059959    -1.629991872818     1.007825032230
         H           -1.160063314277    -0.073422059959    -1.558457872818     1.007825032230
         H            1.585383685723     0.233198940041     1.193750127182     1.007825032230
         H            0.367305685723     1.608870940041    -1.249166872818     1.007825032230
         H           -2.728636314277    -0.805841059959     0.953415127182     1.007825032230
         H           -3.032532314277    -1.424333059959    -0.681930872818     1.007825032230
         H           -0.389865314277    -0.771265059959     1.723087127182     1.007825032230
         H            2.976742685723    -1.558914059959    -0.359964872818     1.007825032230
         H            3.009377685723     1.595478940041     0.019149127182     1.007825032230
         H            0.119622685723     3.239722940041     0.320247127182     1.007825032230
         H           -3.081169314277     1.305746940041    -0.008707872818     1.007825032230

  Basis Set: AUG-CC-PVTZ
    Blend: AUG-CC-PVTZ
  Basis Set: (AUG-CC-PVTZ AUX)
    Blend: AUG-CC-PVTZ-JKFIT
	 Reference Energy          =    -683.6004425852302120 [Eh]
	 Singles Energy            =      -0.0000000000000000 [Eh]
	 Same-Spin Energy          =      -0.6671590030845429 [Eh]
	 Opposite-Spin Energy      =      -2.0483770288095355 [Eh]
	 Correlation Energy        =      -2.7155360318940787 [Eh]
	 Total Energy              =    -686.3159786171243013 [Eh]

	 ================> DF-SCS-MP2 Energies <==================
	-----------------------------------------------------------
	 SCS Same-Spin Scale       =       0.3333333333333333 [-]
	 SCS Opposite-Spin Scale   =       1.2000000000000000 [-]
	 SCS Same-Spin Energy      =      -0.2223863343615143 [Eh]
	 SCS Opposite-Spin Energy  =      -2.4580524345714427 [Eh]
	 SCS Correlation Energy    =      -2.6804387689329570 [Eh]
	 SCS Total Energy          =    -686.2808813541631707 [Eh]
	-----------------------------------------------------------

  Dipole Moment: [D]
     X:     0.8695      Y:     3.2418      Z:    -1.1993     Total:     3.5642

*** Psi4 exiting successfully. Buy a developer a beer!
