                               Psi4 1.4a3.dev225

  ==> Input File <==

--------------------------------------------------------------------------
#psi4
#
memory 32 gb

molecule  {
0 1
  O       -0.8456650     0.8861440     0.2793920
  O       -0.3077290    -1.6543970     1.3165920
  O        2.1058490    -1.9633390    -0.1734930
  O        2.7563870     0.7740080    -0.4352340
  O        0.7401070     2.5265290     0.5865970
  O       -3.4805150     0.5379850    -0.4487790
  C       -0.2340150    -1.4057960    -0.0828600
  C        1.1618410    -0.9690160    -0.5229920
  C       -1.2150830    -0.3001220    -0.4685840
  C        1.5091960     0.3624950     0.1183140
  C        0.4232960     1.3863010    -0.1554910
  C       -2.6131283    -0.5622530    -0.1141687
  H       -0.4877200    -2.3505680    -0.5772350
  H        1.1452880    -0.8176810    -1.6174430
  H       -1.1578130    -0.0786490    -1.5458470
  H        1.5874550     0.2279380     1.2063560
  H        0.3693510     1.6035860    -1.2365730
  H       -2.7265370    -0.8113720     0.9658980
  H       -3.0304070    -1.4295080    -0.6695770
  H       -0.3878110    -0.7763940     1.7355090
  H        2.9789120    -1.5642300    -0.3474430
  H        3.0116250     1.5901680     0.0320000
  H        0.1223170     3.2347930     0.3320250
  H       -3.0786550     1.3004670     0.0038890
units angstrom
no_reorient  #important for SAPT in psi4, default
symmetry c1  #important for SAPT in psi4, default
}

set PROPERTIES_ORIGIN ["COM"]
properties('MP2/aug-cc-pvtz', properties = ['dipole'])
--------------------------------------------------------------------------

    Molecular point group: c1
  Charge       = 0
  Multiplicity = 1
  Basis Set: AUG-CC-PVTZ
    Blend: AUG-CC-PVTZ
  Basis Set: (AUG-CC-PVTZ AUX)
    Blend: AUG-CC-PVTZ-JKFIT

    Orbital Energies [Eh]
    ---------------------

    Doubly Occupied:

       1A    -20.600617     2A    -20.595797     3A    -20.585919
       4A    -20.565925     5A    -20.564794     6A    -20.563419
       7A    -11.363126     8A    -11.304468     9A    -11.299606
      10A    -11.298412    11A    -11.295770    12A    -11.286259
      13A     -1.449293    14A     -1.392591    15A     -1.389744
      16A     -1.366608    17A     -1.355514    18A     -1.350395
      19A     -1.075966    20A     -1.058014    21A     -0.951310
      22A     -0.888519    23A     -0.845373    24A     -0.809933
      25A     -0.760549    26A     -0.738449    27A     -0.723472
      28A     -0.715505    29A     -0.688126    30A     -0.665975
      31A     -0.659528    32A     -0.640810    33A     -0.622956
      34A     -0.619779    35A     -0.593059    36A     -0.580424
      37A     -0.575589    38A     -0.561990    39A     -0.540551
      40A     -0.535477    41A     -0.528936    42A     -0.513508
      43A     -0.496566    44A     -0.483824    45A     -0.470078
      46A     -0.460815    47A     -0.445659    48A     -0.432922

  @DF-RHF Final Energy:  -683.60471867640274

   => Energetics <=

    Nuclear Repulsion Energy =            836.8462769768406133
    One-Electron Energy =               -2602.2781480571297834
    Two-Electron Energy =                1081.8271524038862026
    Total Energy =                       -683.6047186764028538
  Basis Set: (AUG-CC-PVTZ AUX)
    Blend: AUG-CC-PVTZ-RI
    Molecular point group: c1

    Geometry (in Angstrom), charge = 0, multiplicity = 1:

       Center              X                  Y                   Z               Mass
    ------------   -----------------  -----------------  -----------------  -----------------
         O           -0.857929358700     0.886287756332     0.270760537903    15.994914619570
         O           -0.319993358700    -1.654253243668     1.307960537903    15.994914619570
         O            2.093584641300    -1.963195243668    -0.182124462097    15.994914619570
         O            2.744122641300     0.774151756332    -0.443865462097    15.994914619570
         O            0.727842641300     2.526672756332     0.577965537903    15.994914619570
         O           -3.492779358700     0.538128756332    -0.457410462097    15.994914619570
         C           -0.246279358700    -1.405652243668    -0.091491462097    12.000000000000
         C            1.149576641300    -0.968872243668    -0.531623462097    12.000000000000
         C           -1.227347358700    -0.299978243668    -0.477215462097    12.000000000000
         C            1.496931641300     0.362638756332     0.109682537903    12.000000000000
         C            0.411031641300     1.386444756332    -0.164122462097    12.000000000000
         C           -2.625392658700    -0.562109243668    -0.122800162097    12.000000000000
         H           -0.499984358700    -2.350424243668    -0.585866462097     1.007825032230
         H            1.133023641300    -0.817537243668    -1.626074462097     1.007825032230
         H           -1.170077358700    -0.078505243668    -1.554478462097     1.007825032230
         H            1.575190641300     0.228081756332     1.197724537903     1.007825032230
         H            0.357086641300     1.603729756332    -1.245204462097     1.007825032230
         H           -2.738801358700    -0.811228243668     0.957266537903     1.007825032230
         H           -3.042671358700    -1.429364243668    -0.678208462097     1.007825032230
         H           -0.400075358700    -0.776250243668     1.726877537903     1.007825032230
         H            2.966647641300    -1.564086243668    -0.356074462097     1.007825032230
         H            2.999360641300     1.590311756332     0.023368537903     1.007825032230
         H            0.110052641300     3.234936756332     0.323393537903     1.007825032230
         H           -3.090919358700     1.300610756332    -0.004742462097     1.007825032230

  Basis Set: AUG-CC-PVTZ
    Blend: AUG-CC-PVTZ
  Basis Set: (AUG-CC-PVTZ AUX)
    Blend: AUG-CC-PVTZ-JKFIT
	 Reference Energy          =    -683.6047186764027401 [Eh]
	 Singles Energy            =      -0.0000000000000000 [Eh]
	 Same-Spin Energy          =      -0.6668637562209472 [Eh]
	 Opposite-Spin Energy      =      -2.0470760776329806 [Eh]
	 Correlation Energy        =      -2.7139398338539280 [Eh]
	 Total Energy              =    -686.3186585102566823 [Eh]

	 ================> DF-SCS-MP2 Energies <==================
	-----------------------------------------------------------
	 SCS Same-Spin Scale       =       0.3333333333333333 [-]
	 SCS Opposite-Spin Scale   =       1.2000000000000000 [-]
	 SCS Same-Spin Energy      =      -0.2222879187403157 [Eh]
	 SCS Opposite-Spin Energy  =      -2.4564912931595768 [Eh]
	 SCS Correlation Energy    =      -2.6787792118998923 [Eh]
	 SCS Total Energy          =    -686.2834978883025769 [Eh]
	-----------------------------------------------------------

  Dipole Moment: [D]
     X:     0.7670      Y:     3.1312      Z:    -1.1065     Total:     3.4084

*** Psi4 exiting successfully. Buy a developer a beer!
