                               Psi4 1.3.2 release

  ==> Input File <==

--------------------------------------------------------------------------
#psi4
#
memory 32 gb

molecule  {
0 1
  O       -0.8456270     0.8862080     0.2793150
  O       -0.3079160    -1.6544620     1.3165970
  O        2.1058880    -1.9633380    -0.1734630
  O        2.7564030     0.7739560    -0.4353370
  O        0.7402180     2.5264820     0.5866940
  O       -3.4805510     0.5379580    -0.4489300
  C       -0.2340330    -1.4057570    -0.0828570
  C        1.1618270    -0.9690140    -0.5229560
  C       -1.2150640    -0.3000600    -0.4685780
  C        1.5092100     0.3624850     0.1183010
  C        0.4233390     1.3863000    -0.1554910
  C       -2.6607760    -0.5711350    -0.1020210
  H       -0.4877470    -2.3504840    -0.5773070
  H        1.1452800    -0.8176870    -1.6174030
  H       -1.1578680    -0.0786640    -1.5458690
  H        1.5875790     0.2279570     1.2063390
  H        0.3695010     1.6036290    -1.2365780
  H       -2.7264410    -0.8110830     0.9660040
  H       -3.0303370    -1.4295750    -0.6693420
  H       -0.3876700    -0.7765070     1.7356760
  H        2.8894501    -1.6050723    -0.3295499
  H        3.0115730     1.5902370     0.0317380
  H        0.1218180     3.2344810     0.3328360
  H       -3.0789740     1.3005050     0.0038810
units angstrom
no_reorient  #important for SAPT in psi4, default
symmetry c1  #important for SAPT in psi4, default
}

set PROPERTIES_ORIGIN ["COM"]
properties('MP2/aug-cc-pvtz', properties = ['dipole'])
--------------------------------------------------------------------------

    Molecular point group: c1
  Charge       = 0
  Multiplicity = 1
  Basis Set: AUG-CC-PVTZ
    Blend: AUG-CC-PVTZ
  Basis Set: (AUG-CC-PVTZ AUX)
    Blend: AUG-CC-PVTZ-JKFIT

    Orbital Energies [Eh]
    ---------------------

    Doubly Occupied:

       1A    -20.600451     2A    -20.595415     3A    -20.584985
       4A    -20.565799     5A    -20.564787     6A    -20.555571
       7A    -11.362953     8A    -11.305148     9A    -11.299619
      10A    -11.297658    11A    -11.296221    12A    -11.286188
      13A     -1.448757    14A     -1.403830    15A     -1.389760
      16A     -1.372643    17A     -1.364417    18A     -1.353799
      19A     -1.076757    20A     -1.052275    21A     -0.950945
      22A     -0.889057    23A     -0.852156    24A     -0.809837
      25A     -0.764399    26A     -0.739485    27A     -0.726779
      28A     -0.714619    29A     -0.690760    30A     -0.670618
      31A     -0.663540    32A     -0.642439    33A     -0.624907
      34A     -0.619492    35A     -0.599461    36A     -0.581418
      37A     -0.576584    38A     -0.563868    39A     -0.544255
      40A     -0.535662    41A     -0.529255    42A     -0.512344
      43A     -0.496231    44A     -0.484216    45A     -0.471270
      46A     -0.461780    47A     -0.446107    48A     -0.431255

  @DF-RHF Final Energy:  -683.60360959433069

   => Energetics <=

    Nuclear Repulsion Energy =            836.6027375248188491
    One-Electron Energy =               -2601.6731561844321732
    Two-Electron Energy =                1081.4668090652826322
    Total Energy =                       -683.6036095943306918
  Basis Set: (AUG-CC-PVTZ AUX)
    Blend: AUG-CC-PVTZ-RI
    Molecular point group: c1

    Geometry (in Angstrom), charge = 0, multiplicity = 1:

       Center              X                  Y                   Z               Mass
    ------------   -----------------  -----------------  -----------------  -----------------
         O           -0.854214363514     0.887177176903     0.269783926153    15.994914619570
         O           -0.316503363514    -1.653492823097     1.307065926153    15.994914619570
         O            2.097300636486    -1.962368823097    -0.182994073847    15.994914619570
         O            2.747815636486     0.774925176903    -0.444868073847    15.994914619570
         O            0.731630636486     2.527451176903     0.577162926153    15.994914619570
         O           -3.489138363514     0.538927176903    -0.458461073847    15.994914619570
         C           -0.242620363514    -1.404787823097    -0.092388073847    12.000000000000
         C            1.153239636486    -0.968044823097    -0.532487073847    12.000000000000
         C           -1.223651363514    -0.299090823097    -0.478109073847    12.000000000000
         C            1.500622636486     0.363454176903     0.108769926153    12.000000000000
         C            0.414751636486     1.387269176903    -0.165022073847    12.000000000000
         C           -2.669363363514    -0.570165823097    -0.111552073847    12.000000000000
         H           -0.496334363514    -2.349514823097    -0.586838073847     1.007825032230
         H            1.136692636486    -0.816717823097    -1.626934073847     1.007825032230
         H           -1.166455363514    -0.077694823097    -1.555400073847     1.007825032230
         H            1.578991636486     0.228926176903     1.196807926153     1.007825032230
         H            0.360913636486     1.604598176903    -1.246109073847     1.007825032230
         H           -2.735028363514    -0.810113823097     0.956472926153     1.007825032230
         H           -3.038924363514    -1.428605823097    -0.678873073847     1.007825032230
         H           -0.396257363514    -0.775537823097     1.726144926153     1.007825032230
         H            2.880862736486    -1.604103123097    -0.339080973847     1.007825032230
         H            3.002985636486     1.591206176903     0.022206926153     1.007825032230
         H            0.113230636486     3.235450176903     0.323304926153     1.007825032230
         H           -3.087561363514     1.301474176903    -0.005650073847     1.007825032230

  Basis Set: AUG-CC-PVTZ
    Blend: AUG-CC-PVTZ
  Basis Set: (AUG-CC-PVTZ AUX)
    Blend: AUG-CC-PVTZ-JKFIT
	 Reference Energy          =    -683.6036095943306918 [Eh]
	 Singles Energy            =      -0.0000000000000000 [Eh]
	 Same-Spin Energy          =      -0.6650598157534942 [Eh]
	 Opposite-Spin Energy      =      -2.0431720636430155 [Eh]
	 Correlation Energy        =      -2.7082318793965099 [Eh]
	 Total Energy              =    -686.3118414737272133 [Eh]

	 ================> DF-SCS-MP2 Energies <==================
	-----------------------------------------------------------
	 SCS Same-Spin Scale       =       0.3333333333333333 [-]
	 SCS Opposite-Spin Scale   =       1.2000000000000000 [-]
	 SCS Same-Spin Energy      =      -0.2216866052511647 [Eh]
	 SCS Opposite-Spin Energy  =      -2.4518064763716185 [Eh]
	 SCS Correlation Energy    =      -2.6734930816227833 [Eh]
	 SCS Total Energy          =    -686.2771026759535289 [Eh]
	-----------------------------------------------------------

  Dipole Moment: [D]
     X:     0.5610      Y:     3.1349      Z:    -1.0890     Total:     3.3657

*** Psi4 exiting successfully. Buy a developer a beer!
