                               Psi4 1.3.2 release

  ==> Input File <==

--------------------------------------------------------------------------
#psi4
#
memory 32 gb

molecule  {
0 1
  O       -0.8438198     0.8677192     0.2626065
  O       -0.3079160    -1.6544620     1.3165970
  O        2.1058880    -1.9633380    -0.1734630
  O        2.7564030     0.7739560    -0.4353370
  O        0.7402180     2.5264820     0.5866940
  O       -3.4805510     0.5379580    -0.4489300
  C       -0.2340330    -1.4057570    -0.0828570
  C        1.1618270    -0.9690140    -0.5229560
  C       -1.2150640    -0.3000600    -0.4685780
  C        1.5092100     0.3624850     0.1183010
  C        0.4233390     1.3863000    -0.1554910
  C       -2.6607760    -0.5711350    -0.1020210
  H       -0.4877470    -2.3504840    -0.5773070
  H        1.1452800    -0.8176870    -1.6174030
  H       -1.1578680    -0.0786640    -1.5458690
  H        1.5875790     0.2279570     1.2063390
  H        0.3695010     1.6036290    -1.2365780
  H       -2.7264410    -0.8110830     0.9660040
  H       -3.0303370    -1.4295750    -0.6693420
  H       -0.3876700    -0.7765070     1.7356760
  H        2.9789380    -1.5641560    -0.3473760
  H        3.0115730     1.5902370     0.0317380
  H        0.1218180     3.2344810     0.3328360
  H       -3.0789740     1.3005050     0.0038810
units angstrom
no_reorient  #important for SAPT in psi4, default
symmetry c1  #important for SAPT in psi4, default
}

set PROPERTIES_ORIGIN ["COM"]
properties('MP2/aug-cc-pvtz', properties = ['dipole'])
--------------------------------------------------------------------------

    Molecular point group: c1
  Charge       = 0
  Multiplicity = 1
  Basis Set: AUG-CC-PVTZ
    Blend: AUG-CC-PVTZ
  Basis Set: (AUG-CC-PVTZ AUX)
    Blend: AUG-CC-PVTZ-JKFIT

    Orbital Energies [Eh]
    ---------------------

    Doubly Occupied:

       1A    -20.602167     2A    -20.594443     3A    -20.585353
       4A    -20.564825     5A    -20.564378     6A    -20.563848
       7A    -11.363629     8A    -11.302587     9A    -11.298996
      10A    -11.295600    11A    -11.294459    12A    -11.285125
      13A     -1.451282    14A     -1.392869    15A     -1.390787
      16A     -1.368004    17A     -1.357577    18A     -1.352813
      19A     -1.071705    20A     -1.052992    21A     -0.948324
      22A     -0.888179    23A     -0.849232    24A     -0.808980
      25A     -0.760529    26A     -0.738686    27A     -0.722740
      28A     -0.714466    29A     -0.690871    30A     -0.666467
      31A     -0.658663    32A     -0.640294    33A     -0.623577
      34A     -0.620010    35A     -0.598260    36A     -0.580444
      37A     -0.577266    38A     -0.562533    39A     -0.540168
      40A     -0.534789    41A     -0.530057    42A     -0.512717
      43A     -0.495363    44A     -0.482398    45A     -0.469547
      46A     -0.459666    47A     -0.444192    48A     -0.428823

  @DF-RHF Final Energy:  -683.60891934314543

   => Energetics <=

    Nuclear Repulsion Energy =            836.5347667979133348
    One-Electron Energy =               -2601.6860109827653105
    Two-Electron Energy =                1081.5423248417064315
    Total Energy =                       -683.6089193431455442
  Basis Set: (AUG-CC-PVTZ AUX)
    Blend: AUG-CC-PVTZ-RI
    Molecular point group: c1

    Geometry (in Angstrom), charge = 0, multiplicity = 1:

       Center              X                  Y                   Z               Mass
    ------------   -----------------  -----------------  -----------------  -----------------
         O           -0.853068564794     0.870101714222     0.254659405127    15.994914619570
         O           -0.317164764794    -1.652079485778     1.308649905127    15.994914619570
         O            2.096639235206    -1.960955485778    -0.181410094873    15.994914619570
         O            2.747154235206     0.776338514222    -0.443284094873    15.994914619570
         O            0.730969235206     2.528864514222     0.578746905127    15.994914619570
         O           -3.489799764794     0.540340514222    -0.456877094873    15.994914619570
         C           -0.243281764794    -1.403374485778    -0.090804094873    12.000000000000
         C            1.152578235206    -0.966631485778    -0.530903094873    12.000000000000
         C           -1.224312764794    -0.297677485778    -0.476525094873    12.000000000000
         C            1.499961235206     0.364867514222     0.110353905127    12.000000000000
         C            0.414090235206     1.388682514222    -0.163438094873    12.000000000000
         C           -2.670024764794    -0.568752485778    -0.109968094873    12.000000000000
         H           -0.496995764794    -2.348101485778    -0.585254094873     1.007825032230
         H            1.136031235206    -0.815304485778    -1.625350094873     1.007825032230
         H           -1.167116764794    -0.076281485778    -1.553816094873     1.007825032230
         H            1.578330235206     0.230339514222     1.198391905127     1.007825032230
         H            0.360252235206     1.606011514222    -1.244525094873     1.007825032230
         H           -2.735689764794    -0.808700485778     0.958056905127     1.007825032230
         H           -3.039585764794    -1.427192485778    -0.677289094873     1.007825032230
         H           -0.396918764794    -0.774124485778     1.727728905127     1.007825032230
         H            2.969689235206    -1.561773485778    -0.355323094873     1.007825032230
         H            3.002324235206     1.592619514222     0.023790905127     1.007825032230
         H            0.112569235206     3.236863514222     0.324888905127     1.007825032230
         H           -3.088222764794     1.302887514222    -0.004066094873     1.007825032230

  Basis Set: AUG-CC-PVTZ
    Blend: AUG-CC-PVTZ
  Basis Set: (AUG-CC-PVTZ AUX)
    Blend: AUG-CC-PVTZ-JKFIT
	 Reference Energy          =    -683.6089193431454305 [Eh]
	 Singles Energy            =      -0.0000000000000000 [Eh]
	 Same-Spin Energy          =      -0.6662286792847443 [Eh]
	 Opposite-Spin Energy      =      -2.0455715214013841 [Eh]
	 Correlation Energy        =      -2.7118002006861284 [Eh]
	 Total Energy              =    -686.3207195438316148 [Eh]

	 ================> DF-SCS-MP2 Energies <==================
	-----------------------------------------------------------
	 SCS Same-Spin Scale       =       0.3333333333333333 [-]
	 SCS Opposite-Spin Scale   =       1.2000000000000000 [-]
	 SCS Same-Spin Energy      =      -0.2220762264282481 [Eh]
	 SCS Opposite-Spin Energy  =      -2.4546858256816608 [Eh]
	 SCS Correlation Energy    =      -2.6767620521099089 [Eh]
	 SCS Total Energy          =    -686.2856813952553239 [Eh]
	-----------------------------------------------------------

  Dipole Moment: [D]
     X:     0.6775      Y:     3.2361      Z:    -1.0554     Total:     3.4706

*** Psi4 exiting successfully. Buy a developer a beer!
