                               Psi4 1.3.2 release

  ==> Input File <==

--------------------------------------------------------------------------
#psi4
#
memory 32 gb

molecule  {
0 1
  O       -0.8456270     0.8862080     0.2793150
  O       -0.3079160    -1.6544620     1.3165970
  O        2.1058880    -1.9633380    -0.1734630
  O        2.7564030     0.7739560    -0.4353370
  O        0.7402180     2.5264820     0.5866940
  O       -3.4805510     0.5379580    -0.4489300
  C       -0.2340330    -1.4057570    -0.0828570
  C        1.1618270    -0.9690140    -0.5229560
  C       -1.2150640    -0.3000600    -0.4685780
  C        1.5092100     0.3624850     0.1183010
  C        0.4233390     1.3863000    -0.1554910
  C       -2.6607760    -0.5711350    -0.1020210
  H       -0.4877470    -2.3504840    -0.5773070
  H        1.1452800    -0.8176870    -1.6174030
  H       -1.1578680    -0.0786640    -1.5458690
  H        1.5875790     0.2279570     1.2063390
  H        0.3695010     1.6036290    -1.2365780
  H       -2.7264410    -0.8110830     0.9660040
  H       -3.0303370    -1.4295750    -0.6693420
  H       -0.3876700    -0.7765070     1.7356760
  H        2.9789380    -1.5641560    -0.3473760
  H        3.0115730     1.5902370     0.0317380
  H        0.1218180     3.2344810     0.3328360
  H       -3.1614723     1.1438505    -0.0891426
units angstrom
no_reorient  #important for SAPT in psi4, default
symmetry c1  #important for SAPT in psi4, default
}

set PROPERTIES_ORIGIN ["COM"]
properties('MP2/aug-cc-pvtz', properties = ['dipole'])
--------------------------------------------------------------------------

    Molecular point group: c1
  Charge       = 0
  Multiplicity = 1
  Basis Set: AUG-CC-PVTZ
    Blend: AUG-CC-PVTZ
  Basis Set: (AUG-CC-PVTZ AUX)
    Blend: AUG-CC-PVTZ-JKFIT

    Orbital Energies [Eh]
    ---------------------

    Doubly Occupied:

       1A    -20.599382     2A    -20.594389     3A    -20.585266
       4A    -20.565752     5A    -20.564336     6A    -20.544902
       7A    -11.362011     8A    -11.306002     9A    -11.298860
      10A    -11.297676    11A    -11.295198    12A    -11.288558
      13A     -1.449418    14A     -1.426682    15A     -1.391644
      16A     -1.385215    17A     -1.361522    18A     -1.353518
      19A     -1.074227    20A     -1.056079    21A     -0.958599
      22A     -0.888079    23A     -0.859714    24A     -0.808865
      25A     -0.759947    26A     -0.745954    27A     -0.726092
      28A     -0.715071    29A     -0.708297    30A     -0.668308
      31A     -0.658980    32A     -0.642148    33A     -0.625949
      34A     -0.620853    35A     -0.603826    36A     -0.581548
      37A     -0.576937    38A     -0.564794    39A     -0.543497
      40A     -0.536277    41A     -0.529996    42A     -0.515700
      43A     -0.498404    44A     -0.483804    45A     -0.473751
      46A     -0.460842    47A     -0.445869    48A     -0.431625

  @DF-RHF Final Energy:  -683.56219596372591

   => Energetics <=

    Nuclear Repulsion Energy =            837.1199649127067914
    One-Electron Energy =               -2602.4955950391113220
    Two-Electron Energy =                1081.8134341626787318
    Total Energy =                       -683.5621959637257987
  Basis Set: (AUG-CC-PVTZ AUX)
    Blend: AUG-CC-PVTZ-RI
    Molecular point group: c1

    Geometry (in Angstrom), charge = 0, multiplicity = 1:

       Center              X                  Y                   Z               Mass
    ------------   -----------------  -----------------  -----------------  -----------------
         O           -0.854253484703     0.887824970196     0.270404358233    15.994914619570
         O           -0.316542484703    -1.652845029804     1.307686358233    15.994914619570
         O            2.097261515297    -1.961721029804    -0.182373641767    15.994914619570
         O            2.747776515297     0.775572970196    -0.444247641767    15.994914619570
         O            0.731591515297     2.528098970196     0.577783358233    15.994914619570
         O           -3.489177484703     0.539574970196    -0.457840641767    15.994914619570
         C           -0.242659484703    -1.404140029804    -0.091767641767    12.000000000000
         C            1.153200515297    -0.967397029804    -0.531866641767    12.000000000000
         C           -1.223690484703    -0.298443029804    -0.477488641767    12.000000000000
         C            1.500583515297     0.364101970196     0.109390358233    12.000000000000
         C            0.414712515297     1.387916970196    -0.164401641767    12.000000000000
         C           -2.669402484703    -0.569518029804    -0.110931641767    12.000000000000
         H           -0.496373484703    -2.348867029804    -0.586217641767     1.007825032230
         H            1.136653515297    -0.816070029804    -1.626313641767     1.007825032230
         H           -1.166494484703    -0.077047029804    -1.554779641767     1.007825032230
         H            1.578952515297     0.229573970196     1.197428358233     1.007825032230
         H            0.360874515297     1.605245970196    -1.245488641767     1.007825032230
         H           -2.735067484703    -0.809466029804     0.957093358233     1.007825032230
         H           -3.038963484703    -1.427958029804    -0.678252641767     1.007825032230
         H           -0.396296484703    -0.774890029804     1.726765358233     1.007825032230
         H            2.970311515297    -1.562539029804    -0.356286641767     1.007825032230
         H            3.002946515297     1.591853970196     0.022827358233     1.007825032230
         H            0.113191515297     3.236097970196     0.323925358233     1.007825032230
         H           -3.170098784703     1.145467470196    -0.098053241767     1.007825032230

  Basis Set: AUG-CC-PVTZ
    Blend: AUG-CC-PVTZ
  Basis Set: (AUG-CC-PVTZ AUX)
    Blend: AUG-CC-PVTZ-JKFIT
	 Reference Energy          =    -683.5621959637259124 [Eh]
	 Singles Energy            =      -0.0000000000000000 [Eh]
	 Same-Spin Energy          =      -0.6639430507869841 [Eh]
	 Opposite-Spin Energy      =      -2.0406971389314701 [Eh]
	 Correlation Energy        =      -2.7046401897184542 [Eh]
	 Total Energy              =    -686.2668361534443875 [Eh]

	 ================> DF-SCS-MP2 Energies <==================
	-----------------------------------------------------------
	 SCS Same-Spin Scale       =       0.3333333333333333 [-]
	 SCS Opposite-Spin Scale   =       1.2000000000000000 [-]
	 SCS Same-Spin Energy      =      -0.2213143502623280 [Eh]
	 SCS Opposite-Spin Energy  =      -2.4488365667177638 [Eh]
	 SCS Correlation Energy    =      -2.6701509169800919 [Eh]
	 SCS Total Energy          =    -686.2323468807060181 [Eh]
	-----------------------------------------------------------

  Dipole Moment: [D]
     X:     0.6157      Y:     2.9928      Z:    -1.1586     Total:     3.2678

*** Psi4 exiting successfully. Buy a developer a beer!
