                               Psi4 1.4a3.dev225

  ==> Input File <==

--------------------------------------------------------------------------
#psi4
#
memory 32 gb

molecule  {
0 1
  O       -0.8456650     0.8861440     0.2793920
  O       -0.3077290    -1.6543970     1.3165920
  O        2.1058490    -1.9633390    -0.1734930
  O        2.7563870     0.7740080    -0.4352340
  O        0.7401070     2.5265290     0.5865970
  O       -3.4805150     0.5379850    -0.4487790
  C       -0.2340150    -1.4057960    -0.0828600
  C        1.1618410    -0.9690160    -0.5229920
  C       -1.2201776    -0.3164817    -0.4788993
  C        1.5091960     0.3624950     0.1183140
  C        0.4232960     1.3863010    -0.1554910
  C       -2.6608140    -0.5711940    -0.1020800
  H       -0.4877200    -2.3505680    -0.5772350
  H        1.1452880    -0.8176810    -1.6174430
  H       -1.1578130    -0.0786490    -1.5458470
  H        1.5874550     0.2279380     1.2063560
  H        0.3693510     1.6035860    -1.2365730
  H       -2.7265370    -0.8113720     0.9658980
  H       -3.0304070    -1.4295080    -0.6695770
  H       -0.3878110    -0.7763940     1.7355090
  H        2.9789120    -1.5642300    -0.3474430
  H        3.0116250     1.5901680     0.0320000
  H        0.1223170     3.2347930     0.3320250
  H       -3.0786550     1.3004670     0.0038890
units angstrom
no_reorient  #important for SAPT in psi4, default
symmetry c1  #important for SAPT in psi4, default
}

set PROPERTIES_ORIGIN ["COM"]
properties('MP2/aug-cc-pvtz', properties = ['dipole'])
--------------------------------------------------------------------------

    Molecular point group: c1
  Charge       = 0
  Multiplicity = 1
  Basis Set: AUG-CC-PVTZ
    Blend: AUG-CC-PVTZ
  Basis Set: (AUG-CC-PVTZ AUX)
    Blend: AUG-CC-PVTZ-JKFIT

    Orbital Energies [Eh]
    ---------------------

    Doubly Occupied:

       1A    -20.599228     2A    -20.592748     3A    -20.584980
       4A    -20.565682     5A    -20.565029     6A    -20.564304
       7A    -11.361265     8A    -11.305432     9A    -11.298496
      10A    -11.297634    11A    -11.295264    12A    -11.286378
      13A     -1.444972    14A     -1.391489    15A     -1.387544
      16A     -1.367748    17A     -1.356369    18A     -1.350667
      19A     -1.074035    20A     -1.051961    21A     -0.949614
      22A     -0.886903    23A     -0.848136    24A     -0.808520
      25A     -0.759147    26A     -0.735714    27A     -0.722267
      28A     -0.713549    29A     -0.688666    30A     -0.665661
      31A     -0.658728    32A     -0.639596    33A     -0.623852
      34A     -0.617943    35A     -0.598725    36A     -0.580906
      37A     -0.574968    38A     -0.562851    39A     -0.539552
      40A     -0.535324    41A     -0.526745    42A     -0.510107
      43A     -0.495355    44A     -0.484602    45A     -0.471223
      46A     -0.459811    47A     -0.444690    48A     -0.431830

  @DF-RHF Final Energy:  -683.60742786825585

   => Energetics <=

    Nuclear Repulsion Energy =            835.6758952253568395
    One-Electron Energy =               -2600.0142277250633924
    Two-Electron Energy =                1080.7309046314508123
    Total Energy =                       -683.6074278682558543
  Basis Set: (AUG-CC-PVTZ AUX)
    Blend: AUG-CC-PVTZ-RI
    Molecular point group: c1

    Geometry (in Angstrom), charge = 0, multiplicity = 1:

       Center              X                  Y                   Z               Mass
    ------------   -----------------  -----------------  -----------------  -----------------
         O           -0.854411910725     0.887973875888     0.270642352856    15.994914619570
         O           -0.316475910725    -1.652567124112     1.307842352856    15.994914619570
         O            2.097102089275    -1.961509124112    -0.182242647144    15.994914619570
         O            2.747640089275     0.775837875888    -0.443983647144    15.994914619570
         O            0.731360089275     2.528358875888     0.577847352856    15.994914619570
         O           -3.489261910725     0.539814875888    -0.457528647144    15.994914619570
         C           -0.242761910725    -1.403966124112    -0.091609647144    12.000000000000
         C            1.153094089275    -0.967186124112    -0.531741647144    12.000000000000
         C           -1.228924510725    -0.314651824112    -0.487648947144    12.000000000000
         C            1.500449089275     0.364324875888     0.109564352856    12.000000000000
         C            0.414549089275     1.388130875888    -0.164240647144    12.000000000000
         C           -2.669560910725    -0.569364124112    -0.110829647144    12.000000000000
         H           -0.496466910725    -2.348738124112    -0.585984647144     1.007825032230
         H            1.136541089275    -0.815851124112    -1.626192647144     1.007825032230
         H           -1.166559910725    -0.076819124112    -1.554596647144     1.007825032230
         H            1.578708089275     0.229767875888     1.197606352856     1.007825032230
         H            0.360604089275     1.605415875888    -1.245322647144     1.007825032230
         H           -2.735283910725    -0.809542124112     0.957148352856     1.007825032230
         H           -3.039153910725    -1.427678124112    -0.678326647144     1.007825032230
         H           -0.396557910725    -0.774564124112     1.726759352856     1.007825032230
         H            2.970165089275    -1.562400124112    -0.356192647144     1.007825032230
         H            3.002878089275     1.591997875888     0.023250352856     1.007825032230
         H            0.113570089275     3.236622875888     0.323275352856     1.007825032230
         H           -3.087401910725     1.302296875888    -0.004860647144     1.007825032230

  Basis Set: AUG-CC-PVTZ
    Blend: AUG-CC-PVTZ
  Basis Set: (AUG-CC-PVTZ AUX)
    Blend: AUG-CC-PVTZ-JKFIT
	 Reference Energy          =    -683.6074278682558543 [Eh]
	 Singles Energy            =      -0.0000000000000000 [Eh]
	 Same-Spin Energy          =      -0.6664402631940909 [Eh]
	 Opposite-Spin Energy      =      -2.0465202147738655 [Eh]
	 Correlation Energy        =      -2.7129604779679566 [Eh]
	 Total Energy              =    -686.3203883462238082 [Eh]

	 ================> DF-SCS-MP2 Energies <==================
	-----------------------------------------------------------
	 SCS Same-Spin Scale       =       0.3333333333333333 [-]
	 SCS Opposite-Spin Scale   =       1.2000000000000000 [-]
	 SCS Same-Spin Energy      =      -0.2221467543980303 [Eh]
	 SCS Opposite-Spin Energy  =      -2.4558242577286387 [Eh]
	 SCS Correlation Energy    =      -2.6779710121266689 [Eh]
	 SCS Total Energy          =    -686.2853988803825587 [Eh]
	-----------------------------------------------------------

  Dipole Moment: [D]
     X:     0.6366      Y:     3.1061      Z:    -1.1240     Total:     3.3640

*** Psi4 exiting successfully. Buy a developer a beer!
