                               Psi4 1.3.2 release

  ==> Input File <==

--------------------------------------------------------------------------
#psi4
#
memory 32 gb

molecule  {
0 1
  O       -0.9226398     0.9341705     0.2344316
  O       -0.3079160    -1.6544620     1.3165970
  O        2.1058880    -1.9633380    -0.1734630
  O        2.7564030     0.7739560    -0.4353370
  O        0.7402180     2.5264820     0.5866940
  O       -3.4805510     0.5379580    -0.4489300
  C       -0.2340330    -1.4057570    -0.0828570
  C        1.1618270    -0.9690140    -0.5229560
  C       -1.2150640    -0.3000600    -0.4685780
  C        1.5092100     0.3624850     0.1183010
  C        0.4233390     1.3863000    -0.1554910
  C       -2.6607760    -0.5711350    -0.1020210
  H       -0.4877470    -2.3504840    -0.5773070
  H        1.1452800    -0.8176870    -1.6174030
  H       -1.1578680    -0.0786640    -1.5458690
  H        1.5875790     0.2279570     1.2063390
  H        0.3695010     1.6036290    -1.2365780
  H       -2.7264410    -0.8110830     0.9660040
  H       -3.0303370    -1.4295750    -0.6693420
  H       -0.3876700    -0.7765070     1.7356760
  H        2.9789380    -1.5641560    -0.3473760
  H        3.0115730     1.5902370     0.0317380
  H        0.1218180     3.2344810     0.3328360
  H       -3.0789740     1.3005050     0.0038810
units angstrom
no_reorient  #important for SAPT in psi4, default
symmetry c1  #important for SAPT in psi4, default
}

set PROPERTIES_ORIGIN ["COM"]
properties('MP2/aug-cc-pvtz', properties = ['dipole'])
--------------------------------------------------------------------------

    Molecular point group: c1
  Charge       = 0
  Multiplicity = 1
  Basis Set: AUG-CC-PVTZ
    Blend: AUG-CC-PVTZ
  Basis Set: (AUG-CC-PVTZ AUX)
    Blend: AUG-CC-PVTZ-JKFIT

    Orbital Energies [Eh]
    ---------------------

    Doubly Occupied:

       1A    -20.601969     2A    -20.595579     3A    -20.589405
       4A    -20.567426     5A    -20.565553     6A    -20.560759
       7A    -11.366311     8A    -11.303700     9A    -11.302234
      10A    -11.299193    11A    -11.296583    12A    -11.282768
      13A     -1.441844    14A     -1.394360    15A     -1.388689
      16A     -1.368426    17A     -1.356848    18A     -1.348802
      19A     -1.075634    20A     -1.048172    21A     -0.949116
      22A     -0.889265    23A     -0.845492    24A     -0.807668
      25A     -0.761683    26A     -0.736661    27A     -0.722290
      28A     -0.710095    29A     -0.687942    30A     -0.666080
      31A     -0.660088    32A     -0.638319    33A     -0.623451
      34A     -0.617515    35A     -0.598635    36A     -0.582335
      37A     -0.576403    38A     -0.564021    39A     -0.540689
      40A     -0.536591    41A     -0.526926    42A     -0.511315
      43A     -0.491705    44A     -0.484386    45A     -0.471554
      46A     -0.460719    47A     -0.444683    48A     -0.431984

  @DF-RHF Final Energy:  -683.60299300399231

   => Energetics <=

    Nuclear Repulsion Energy =            834.2560854902995970
    One-Electron Energy =               -2597.1344286679486686
    Two-Electron Energy =                1079.2753501736569888
    Total Energy =                       -683.6029930039921965
  Basis Set: (AUG-CC-PVTZ AUX)
    Blend: AUG-CC-PVTZ-RI
    Molecular point group: c1

    Geometry (in Angstrom), charge = 0, multiplicity = 1:

       Center              X                  Y                   Z               Mass
    ------------   -----------------  -----------------  -----------------  -----------------
         O           -0.924887035035     0.930650188105     0.228987263320    15.994914619570
         O           -0.310163235035    -1.657982311895     1.311152663320    15.994914619570
         O            2.103640764965    -1.966858311895    -0.178907336680    15.994914619570
         O            2.754155764965     0.770435688105    -0.440781336680    15.994914619570
         O            0.737970764965     2.522961688105     0.581249663320    15.994914619570
         O           -3.482798235035     0.534437688105    -0.454374336680    15.994914619570
         C           -0.236280235035    -1.409277311895    -0.088301336680    12.000000000000
         C            1.159579764965    -0.972534311895    -0.528400336680    12.000000000000
         C           -1.217311235035    -0.303580311895    -0.474022336680    12.000000000000
         C            1.506962764965     0.358964688105     0.112856663320    12.000000000000
         C            0.421091764965     1.382779688105    -0.160935336680    12.000000000000
         C           -2.663023235035    -0.574655311895    -0.107465336680    12.000000000000
         H           -0.489994235035    -2.354004311895    -0.582751336680     1.007825032230
         H            1.143032764965    -0.821207311895    -1.622847336680     1.007825032230
         H           -1.160115235035    -0.082184311895    -1.551313336680     1.007825032230
         H            1.585331764965     0.224436688105     1.200894663320     1.007825032230
         H            0.367253764965     1.600108688105    -1.242022336680     1.007825032230
         H           -2.728688235035    -0.814603311895     0.960559663320     1.007825032230
         H           -3.032584235035    -1.433095311895    -0.674786336680     1.007825032230
         H           -0.389917235035    -0.780027311895     1.730231663320     1.007825032230
         H            2.976690764965    -1.567676311895    -0.352820336680     1.007825032230
         H            3.009325764965     1.586716688105     0.026293663320     1.007825032230
         H            0.119570764965     3.230960688105     0.327391663320     1.007825032230
         H           -3.081221235035     1.296984688105    -0.001563336680     1.007825032230

  Basis Set: AUG-CC-PVTZ
    Blend: AUG-CC-PVTZ
  Basis Set: (AUG-CC-PVTZ AUX)
    Blend: AUG-CC-PVTZ-JKFIT
	 Reference Energy          =    -683.6029930039923102 [Eh]
	 Singles Energy            =      -0.0000000000000000 [Eh]
	 Same-Spin Energy          =      -0.6667637240916466 [Eh]
	 Opposite-Spin Energy      =      -2.0477289984654123 [Eh]
	 Correlation Energy        =      -2.7144927225570590 [Eh]
	 Total Energy              =    -686.3174857265494211 [Eh]

	 ================> DF-SCS-MP2 Energies <==================
	-----------------------------------------------------------
	 SCS Same-Spin Scale       =       0.3333333333333333 [-]
	 SCS Opposite-Spin Scale   =       1.2000000000000000 [-]
	 SCS Same-Spin Energy      =      -0.2222545746972155 [Eh]
	 SCS Opposite-Spin Energy  =      -2.4572747981584948 [Eh]
	 SCS Correlation Energy    =      -2.6795293728557104 [Eh]
	 SCS Total Energy          =    -686.2825223768479646 [Eh]
	-----------------------------------------------------------

  Dipole Moment: [D]
     X:     0.9810      Y:     3.1060      Z:    -1.0147     Total:     3.4116

*** Psi4 exiting successfully. Buy a developer a beer!
