                               Psi4 1.3.2 release

  ==> Input File <==

--------------------------------------------------------------------------
#psi4
#
memory 32 gb

molecule  {
0 1
  O       -0.8456270     0.8862080     0.2793150
  O       -0.3456550    -1.7943233     1.2818192
  O        2.1058880    -1.9633380    -0.1734630
  O        2.7564030     0.7739560    -0.4353370
  O        0.7402180     2.5264820     0.5866940
  O       -3.4805510     0.5379580    -0.4489300
  C       -0.2340330    -1.4057570    -0.0828570
  C        1.1618270    -0.9690140    -0.5229560
  C       -1.2150640    -0.3000600    -0.4685780
  C        1.5092100     0.3624850     0.1183010
  C        0.4233390     1.3863000    -0.1554910
  C       -2.6607760    -0.5711350    -0.1020210
  H       -0.4877470    -2.3504840    -0.5773070
  H        1.1452800    -0.8176870    -1.6174030
  H       -1.1578680    -0.0786640    -1.5458690
  H        1.5875790     0.2279570     1.2063390
  H        0.3695010     1.6036290    -1.2365780
  H       -2.7264410    -0.8110830     0.9660040
  H       -3.0303370    -1.4295750    -0.6693420
  H       -0.3876700    -0.7765070     1.7356760
  H        2.9789380    -1.5641560    -0.3473760
  H        3.0115730     1.5902370     0.0317380
  H        0.1218180     3.2344810     0.3328360
  H       -3.0789740     1.3005050     0.0038810
units angstrom
no_reorient  #important for SAPT in psi4, default
symmetry c1  #important for SAPT in psi4, default
}

set PROPERTIES_ORIGIN ["COM"]
properties('MP2/aug-cc-pvtz', properties = ['dipole'])
--------------------------------------------------------------------------

    Molecular point group: c1
  Charge       = 0
  Multiplicity = 1
  Basis Set: AUG-CC-PVTZ
    Blend: AUG-CC-PVTZ
  Basis Set: (AUG-CC-PVTZ AUX)
    Blend: AUG-CC-PVTZ-JKFIT

    Orbital Energies [Eh]
    ---------------------

    Doubly Occupied:

       1A    -20.601350     2A    -20.597115     3A    -20.586698
       4A    -20.579690     5A    -20.564703     6A    -20.564674
       7A    -11.363990     8A    -11.305661     9A    -11.300677
      10A    -11.296362    11A    -11.294439    12A    -11.285851
      13A     -1.449258    14A     -1.393075    15A     -1.385604
      16A     -1.365059    17A     -1.357081    18A     -1.341107
      19A     -1.071291    20A     -1.051699    21A     -0.947417
      22A     -0.885510    23A     -0.848475    24A     -0.806072
      25A     -0.757172    26A     -0.734955    27A     -0.720831
      28A     -0.713736    29A     -0.689563    30A     -0.667578
      31A     -0.652985    32A     -0.633530    33A     -0.621754
      34A     -0.618943    35A     -0.598445    36A     -0.578150
      37A     -0.568414    38A     -0.563984    39A     -0.540390
      40A     -0.537273    41A     -0.525284    42A     -0.511406
      43A     -0.496533    44A     -0.483647    45A     -0.469589
      46A     -0.460862    47A     -0.444682    48A     -0.430479

  @DF-RHF Final Energy:  -683.58247366479895

   => Energetics <=

    Nuclear Repulsion Energy =            833.4806732295614893
    One-Electron Energy =               -2595.6002113580561854
    Two-Electron Energy =                1078.5370644636957422
    Total Energy =                       -683.5824736647989539
  Basis Set: (AUG-CC-PVTZ AUX)
    Blend: AUG-CC-PVTZ-RI
    Molecular point group: c1

    Geometry (in Angstrom), charge = 0, multiplicity = 1:

       Center              X                  Y                   Z               Mass
    ------------   -----------------  -----------------  -----------------  -----------------
         O           -0.851362901356     0.899371955108     0.272972989390    15.994914619570
         O           -0.351390901356    -1.781159344892     1.275477189390    15.994914619570
         O            2.100152098644    -1.950174044892    -0.179805010610    15.994914619570
         O            2.750667098644     0.787119955108    -0.441679010610    15.994914619570
         O            0.734482098644     2.539645955108     0.580351989390    15.994914619570
         O           -3.486286901356     0.551121955108    -0.455272010610    15.994914619570
         C           -0.239768901356    -1.392593044892    -0.089199010610    12.000000000000
         C            1.156091098644    -0.955850044892    -0.529298010610    12.000000000000
         C           -1.220799901356    -0.286896044892    -0.474920010610    12.000000000000
         C            1.503474098644     0.375648955108     0.111958989390    12.000000000000
         C            0.417603098644     1.399463955108    -0.161833010610    12.000000000000
         C           -2.666511901356    -0.557971044892    -0.108363010610    12.000000000000
         H           -0.493482901356    -2.337320044892    -0.583649010610     1.007825032230
         H            1.139544098644    -0.804523044892    -1.623745010610     1.007825032230
         H           -1.163603901356    -0.065500044892    -1.552211010610     1.007825032230
         H            1.581843098644     0.241120955108     1.199996989390     1.007825032230
         H            0.363765098644     1.616792955108    -1.242920010610     1.007825032230
         H           -2.732176901356    -0.797919044892     0.959661989390     1.007825032230
         H           -3.036072901356    -1.416411044892    -0.675684010610     1.007825032230
         H           -0.393405901356    -0.763343044892     1.729333989390     1.007825032230
         H            2.973202098644    -1.550992044892    -0.353718010610     1.007825032230
         H            3.005837098644     1.603400955108     0.025395989390     1.007825032230
         H            0.116082098644     3.247644955108     0.326493989390     1.007825032230
         H           -3.084709901356     1.313668955108    -0.002461010610     1.007825032230

  Basis Set: AUG-CC-PVTZ
    Blend: AUG-CC-PVTZ
  Basis Set: (AUG-CC-PVTZ AUX)
    Blend: AUG-CC-PVTZ-JKFIT
	 Reference Energy          =    -683.5824736647989539 [Eh]
	 Singles Energy            =      -0.0000000000000000 [Eh]
	 Same-Spin Energy          =      -0.6686007730658706 [Eh]
	 Opposite-Spin Energy      =      -2.0520096641460635 [Eh]
	 Correlation Energy        =      -2.7206104372119340 [Eh]
	 Total Energy              =    -686.3030841020108710 [Eh]

	 ================> DF-SCS-MP2 Energies <==================
	-----------------------------------------------------------
	 SCS Same-Spin Scale       =       0.3333333333333333 [-]
	 SCS Opposite-Spin Scale   =       1.2000000000000000 [-]
	 SCS Same-Spin Energy      =      -0.2228669243552902 [Eh]
	 SCS Opposite-Spin Energy  =      -2.4624115969752762 [Eh]
	 SCS Correlation Energy    =      -2.6852785213305665 [Eh]
	 SCS Total Energy          =    -686.2677521861295418 [Eh]
	-----------------------------------------------------------

  Dipole Moment: [D]
     X:     0.7568      Y:     3.3530      Z:    -1.0693     Total:     3.5998

*** Psi4 exiting successfully. Buy a developer a beer!
