                               Psi4 1.3.2 release

  ==> Input File <==

--------------------------------------------------------------------------
#psi4
#
memory 32 gb

molecule  {
0 1
  O       -0.8456270     0.8862080     0.2793150
  O       -0.3331910    -1.7481010     1.2950953
  O        2.1058880    -1.9633380    -0.1734630
  O        2.7564030     0.7739560    -0.4353370
  O        0.7402180     2.5264820     0.5866940
  O       -3.4805510     0.5379580    -0.4489300
  C       -0.2340330    -1.4057570    -0.0828570
  C        1.1618270    -0.9690140    -0.5229560
  C       -1.2150640    -0.3000600    -0.4685780
  C        1.5092100     0.3624850     0.1183010
  C        0.4233390     1.3863000    -0.1554910
  C       -2.6607760    -0.5711350    -0.1020210
  H       -0.4877470    -2.3504840    -0.5773070
  H        1.1452800    -0.8176870    -1.6174030
  H       -1.1578680    -0.0786640    -1.5458690
  H        1.5875790     0.2279570     1.2063390
  H        0.3695010     1.6036290    -1.2365780
  H       -2.7264410    -0.8110830     0.9660040
  H       -3.0303370    -1.4295750    -0.6693420
  H       -0.3876700    -0.7765070     1.7356760
  H        2.9789380    -1.5641560    -0.3473760
  H        3.0115730     1.5902370     0.0317380
  H        0.1218180     3.2344810     0.3328360
  H       -3.0789740     1.3005050     0.0038810
units angstrom
no_reorient  #important for SAPT in psi4, default
symmetry c1  #important for SAPT in psi4, default
}

set PROPERTIES_ORIGIN ["COM"]
properties('MP2/aug-cc-pvtz', properties = ['dipole'])
--------------------------------------------------------------------------

    Molecular point group: c1
  Charge       = 0
  Multiplicity = 1
  Basis Set: AUG-CC-PVTZ
    Blend: AUG-CC-PVTZ
  Basis Set: (AUG-CC-PVTZ AUX)
    Blend: AUG-CC-PVTZ-JKFIT

    Orbital Energies [Eh]
    ---------------------

    Doubly Occupied:

       1A    -20.600968     2A    -20.596434     3A    -20.586283
       4A    -20.575223     5A    -20.564622     6A    -20.564462
       7A    -11.363514     8A    -11.305323     9A    -11.300142
      10A    -11.295927    11A    -11.294962    12A    -11.285826
      13A     -1.448892    14A     -1.392699    15A     -1.386154
      16A     -1.365511    17A     -1.356901    18A     -1.344945
      19A     -1.071601    20A     -1.051629    21A     -0.947720
      22A     -0.886032    23A     -0.848437    24A     -0.806620
      25A     -0.757762    26A     -0.735585    27A     -0.721105
      28A     -0.713852    29A     -0.689556    30A     -0.667123
      31A     -0.654012    32A     -0.635647    33A     -0.622193
      34A     -0.619141    35A     -0.598500    36A     -0.577678
      37A     -0.572464    38A     -0.563631    39A     -0.540186
      40A     -0.536664    41A     -0.526623    42A     -0.511699
      43A     -0.496317    44A     -0.484044    45A     -0.469856
      46A     -0.460679    47A     -0.444670    48A     -0.430296

  @DF-RHF Final Energy:  -683.59408746759652

   => Energetics <=

    Nuclear Repulsion Energy =            834.2598424499490193
    One-Electron Energy =               -2597.1676341045326808
    Two-Electron Energy =                1079.3137041869872519
    Total Energy =                       -683.5940874675964096
  Basis Set: (AUG-CC-PVTZ AUX)
    Blend: AUG-CC-PVTZ-RI
    Molecular point group: c1

    Geometry (in Angstrom), charge = 0, multiplicity = 1:

       Center              X                  Y                   Z               Mass
    ------------   -----------------  -----------------  -----------------  -----------------
         O           -0.852470070437     0.895266058014     0.271793681991    15.994914619570
         O           -0.340034070437    -1.739042941986     1.287573981991    15.994914619570
         O            2.099044929563    -1.954279941986    -0.180984318009    15.994914619570
         O            2.749559929563     0.783014058014    -0.442858318009    15.994914619570
         O            0.733374929563     2.535540058014     0.579172681991    15.994914619570
         O           -3.487394070437     0.547016058014    -0.456451318009    15.994914619570
         C           -0.240876070437    -1.396698941986    -0.090378318009    12.000000000000
         C            1.154983929563    -0.959955941986    -0.530477318009    12.000000000000
         C           -1.221907070437    -0.291001941986    -0.476099318009    12.000000000000
         C            1.502366929563     0.371543058014     0.110779681991    12.000000000000
         C            0.416495929563     1.395358058014    -0.163012318009    12.000000000000
         C           -2.667619070437    -0.562076941986    -0.109542318009    12.000000000000
         H           -0.494590070437    -2.341425941986    -0.584828318009     1.007825032230
         H            1.138436929563    -0.808628941986    -1.624924318009     1.007825032230
         H           -1.164711070437    -0.069605941986    -1.553390318009     1.007825032230
         H            1.580735929563     0.237015058014     1.198817681991     1.007825032230
         H            0.362657929563     1.612687058014    -1.244099318009     1.007825032230
         H           -2.733284070437    -0.802024941986     0.958482681991     1.007825032230
         H           -3.037180070437    -1.420516941986    -0.676863318009     1.007825032230
         H           -0.394513070437    -0.767448941986     1.728154681991     1.007825032230
         H            2.972094929563    -1.555097941986    -0.354897318009     1.007825032230
         H            3.004729929563     1.599295058014     0.024216681991     1.007825032230
         H            0.114974929563     3.243539058014     0.325314681991     1.007825032230
         H           -3.085817070437     1.309563058014    -0.003640318009     1.007825032230

  Basis Set: AUG-CC-PVTZ
    Blend: AUG-CC-PVTZ
  Basis Set: (AUG-CC-PVTZ AUX)
    Blend: AUG-CC-PVTZ-JKFIT
	 Reference Energy          =    -683.5940874675965233 [Eh]
	 Singles Energy            =      -0.0000000000000000 [Eh]
	 Same-Spin Energy          =      -0.6678078090635007 [Eh]
	 Opposite-Spin Energy      =      -2.0499032328918321 [Eh]
	 Correlation Energy        =      -2.7177110419553330 [Eh]
	 Total Energy              =    -686.3117985095518634 [Eh]

	 ================> DF-SCS-MP2 Energies <==================
	-----------------------------------------------------------
	 SCS Same-Spin Scale       =       0.3333333333333333 [-]
	 SCS Opposite-Spin Scale   =       1.2000000000000000 [-]
	 SCS Same-Spin Energy      =      -0.2226026030211669 [Eh]
	 SCS Opposite-Spin Energy  =      -2.4598838794701985 [Eh]
	 SCS Correlation Energy    =      -2.6824864824913655 [Eh]
	 SCS Total Energy          =    -686.2765739500879363 [Eh]
	-----------------------------------------------------------

  Dipole Moment: [D]
     X:     0.7275      Y:     3.2903      Z:    -1.0770     Total:     3.5377

*** Psi4 exiting successfully. Buy a developer a beer!
