                               Psi4 1.3.2 release

  ==> Input File <==

--------------------------------------------------------------------------
#psi4
#
memory 32 gb

molecule  {
0 1
  O       -0.8456270     0.8862080     0.2793150
  O       -0.3079160    -1.6544620     1.3165970
  O        2.1058880    -1.9633380    -0.1734630
  O        2.7564030     0.7739560    -0.4353370
  O        0.7402180     2.5264820     0.5866940
  O       -3.3567901     0.6037749    -0.4990289
  C       -0.2340330    -1.4057570    -0.0828570
  C        1.1618270    -0.9690140    -0.5229560
  C       -1.2150640    -0.3000600    -0.4685780
  C        1.5092100     0.3624850     0.1183010
  C        0.4233390     1.3863000    -0.1554910
  C       -2.6607760    -0.5711350    -0.1020210
  H       -0.4877470    -2.3504840    -0.5773070
  H        1.1452800    -0.8176870    -1.6174030
  H       -1.1578680    -0.0786640    -1.5458690
  H        1.5875790     0.2279570     1.2063390
  H        0.3695010     1.6036290    -1.2365780
  H       -2.7264410    -0.8110830     0.9660040
  H       -3.0303370    -1.4295750    -0.6693420
  H       -0.3876700    -0.7765070     1.7356760
  H        2.9789380    -1.5641560    -0.3473760
  H        3.0115730     1.5902370     0.0317380
  H        0.1218180     3.2344810     0.3328360
  H       -3.0789740     1.3005050     0.0038810
units angstrom
no_reorient  #important for SAPT in psi4, default
symmetry c1  #important for SAPT in psi4, default
}

set PROPERTIES_ORIGIN ["COM"]
properties('MP2/aug-cc-pvtz', properties = ['dipole'])
--------------------------------------------------------------------------

    Molecular point group: c1
  Charge       = 0
  Multiplicity = 1
  Basis Set: AUG-CC-PVTZ
    Blend: AUG-CC-PVTZ
  Basis Set: (AUG-CC-PVTZ AUX)
    Blend: AUG-CC-PVTZ-JKFIT

    Orbital Energies [Eh]
    ---------------------

    Doubly Occupied:

       1A    -20.598502     2A    -20.591858     3A    -20.583944
       4A    -20.564090     5A    -20.562561     6A    -20.555835
       7A    -11.360473     8A    -11.300966     9A    -11.297255
      10A    -11.294074    11A    -11.292840    12A    -11.288585
      13A     -1.446445    14A     -1.392496    15A     -1.389598
      16A     -1.374994    17A     -1.357842    18A     -1.351278
      19A     -1.071218    20A     -1.050967    21A     -0.951973
      22A     -0.885788    23A     -0.850584    24A     -0.806951
      25A     -0.758004    26A     -0.736802    27A     -0.724590
      28A     -0.713348    29A     -0.696811    30A     -0.665418
      31A     -0.657280    32A     -0.639646    33A     -0.622339
      34A     -0.618471    35A     -0.603974    36A     -0.580228
      37A     -0.573935    38A     -0.560648    39A     -0.538753
      40A     -0.532033    41A     -0.526430    42A     -0.509462
      43A     -0.498128    44A     -0.481599    45A     -0.471291
      46A     -0.457971    47A     -0.442991    48A     -0.427581

  @DF-RHF Final Energy:  -683.60484940656397

   => Energetics <=

    Nuclear Repulsion Energy =            838.3489148458464797
    One-Electron Energy =               -2605.3898278575725271
    Two-Electron Energy =                1083.4360636051619622
    Total Energy =                       -683.6048494065639716
  Basis Set: (AUG-CC-PVTZ AUX)
    Blend: AUG-CC-PVTZ-RI
    Molecular point group: c1

    Geometry (in Angstrom), charge = 0, multiplicity = 1:

       Center              X                  Y                   Z               Mass
    ------------   -----------------  -----------------  -----------------  -----------------
         O           -0.865708833302     0.881101693270     0.274333952821    15.994914619570
         O           -0.327997833302    -1.659568306730     1.311615952821    15.994914619570
         O            2.085806166698    -1.968444306730    -0.178444047179    15.994914619570
         O            2.736321166698     0.768849693270    -0.440318047179    15.994914619570
         O            0.720136166698     2.521375693270     0.581712952821    15.994914619570
         O           -3.376871933302     0.598668593270    -0.504009947179    15.994914619570
         C           -0.254114833302    -1.410863306730    -0.087838047179    12.000000000000
         C            1.141745166698    -0.974120306730    -0.527937047179    12.000000000000
         C           -1.235145833302    -0.305166306730    -0.473559047179    12.000000000000
         C            1.489128166698     0.357378693270     0.113319952821    12.000000000000
         C            0.403257166698     1.381193693270    -0.160472047179    12.000000000000
         C           -2.680857833302    -0.576241306730    -0.107002047179    12.000000000000
         H           -0.507828833302    -2.355590306730    -0.582288047179     1.007825032230
         H            1.125198166698    -0.822793306730    -1.622384047179     1.007825032230
         H           -1.177949833302    -0.083770306730    -1.550850047179     1.007825032230
         H            1.567497166698     0.222850693270     1.201357952821     1.007825032230
         H            0.349419166698     1.598522693270    -1.241559047179     1.007825032230
         H           -2.746522833302    -0.816189306730     0.961022952821     1.007825032230
         H           -3.050418833302    -1.434681306730    -0.674323047179     1.007825032230
         H           -0.407751833302    -0.781613306730     1.730694952821     1.007825032230
         H            2.958856166698    -1.569262306730    -0.352357047179     1.007825032230
         H            2.991491166698     1.585130693270     0.026756952821     1.007825032230
         H            0.101736166698     3.229374693270     0.327854952821     1.007825032230
         H           -3.099055833302     1.295398693270    -0.001100047179     1.007825032230

  Basis Set: AUG-CC-PVTZ
    Blend: AUG-CC-PVTZ
  Basis Set: (AUG-CC-PVTZ AUX)
    Blend: AUG-CC-PVTZ-JKFIT
	 Reference Energy          =    -683.6048494065639716 [Eh]
	 Singles Energy            =      -0.0000000000000000 [Eh]
	 Same-Spin Energy          =      -0.6655709151632561 [Eh]
	 Opposite-Spin Energy      =      -2.0440419303105908 [Eh]
	 Correlation Energy        =      -2.7096128454738468 [Eh]
	 Total Energy              =    -686.3144622520378562 [Eh]

	 ================> DF-SCS-MP2 Energies <==================
	-----------------------------------------------------------
	 SCS Same-Spin Scale       =       0.3333333333333333 [-]
	 SCS Opposite-Spin Scale   =       1.2000000000000000 [-]
	 SCS Same-Spin Energy      =      -0.2218569717210853 [Eh]
	 SCS Opposite-Spin Energy  =      -2.4528503163727087 [Eh]
	 SCS Correlation Energy    =      -2.6747072880937939 [Eh]
	 SCS Total Energy          =    -686.2795566946577992 [Eh]
	-----------------------------------------------------------

  Dipole Moment: [D]
     X:     0.3047      Y:     3.0399      Z:    -0.9500     Total:     3.1994

*** Psi4 exiting successfully. Buy a developer a beer!
