                               Psi4 1.3.2 release

  ==> Input File <==

--------------------------------------------------------------------------
#psi4
#
memory 32 gb

molecule  {
0 1
  O       -0.8456270     0.8862080     0.2793150
  O       -0.3079160    -1.6544620     1.3165970
  O        2.1058880    -1.9633380    -0.1734630
  O        2.7564030     0.7739560    -0.4353370
  O        0.7402180     2.5264820     0.5866940
  O       -3.4805510     0.5379580    -0.4489300
  C       -0.2340330    -1.4057570    -0.0828570
  C        1.1618270    -0.9690140    -0.5229560
  C       -1.2150640    -0.3000600    -0.4685780
  C        1.5092100     0.3624850     0.1183010
  C        0.4233390     1.3863000    -0.1554910
  C       -2.6607760    -0.5711350    -0.1020210
  H       -0.4877470    -2.3504840    -0.5773070
  H        1.1452800    -0.8176870    -1.6174030
  H       -1.1578680    -0.0786640    -1.5458690
  H        1.5875790     0.2279570     1.2063390
  H        0.3695010     1.6036290    -1.2365780
  H       -2.7264410    -0.8110830     0.9660040
  H       -3.0303370    -1.4295750    -0.6693420
  H       -0.3876700    -0.7765070     1.7356760
  H        3.0684259    -1.5232397    -0.3652021
  H        3.0115730     1.5902370     0.0317380
  H        0.1218180     3.2344810     0.3328360
  H       -3.0789740     1.3005050     0.0038810
units angstrom
no_reorient  #important for SAPT in psi4, default
symmetry c1  #important for SAPT in psi4, default
}

set PROPERTIES_ORIGIN ["COM"]
properties('MP2/aug-cc-pvtz', properties = ['dipole'])
--------------------------------------------------------------------------

    Molecular point group: c1
  Charge       = 0
  Multiplicity = 1
  Basis Set: AUG-CC-PVTZ
    Blend: AUG-CC-PVTZ
  Basis Set: (AUG-CC-PVTZ AUX)
    Blend: AUG-CC-PVTZ-JKFIT

    Orbital Energies [Eh]
    ---------------------

    Doubly Occupied:

       1A    -20.599909     2A    -20.594731     3A    -20.585852
       4A    -20.570541     5A    -20.564706     6A    -20.564270
       7A    -11.362148     8A    -11.304414     9A    -11.298420
      10A    -11.296433    11A    -11.293639    12A    -11.285578
      13A     -1.447906    14A     -1.390233    15A     -1.386832
      16A     -1.366568    17A     -1.353848    18A     -1.340593
      19A     -1.070030    20A     -1.050855    21A     -0.947077
      22A     -0.886315    23A     -0.845785    24A     -0.807891
      25A     -0.756903    26A     -0.735639    27A     -0.717685
      28A     -0.713466    29A     -0.688840    30A     -0.664459
      31A     -0.651507    32A     -0.635019    33A     -0.621782
      34A     -0.617739    35A     -0.597833    36A     -0.580216
      37A     -0.575171    38A     -0.562179    39A     -0.536128
      40A     -0.533856    41A     -0.526707    42A     -0.511467
      43A     -0.495499    44A     -0.482654    45A     -0.469186
      46A     -0.458596    47A     -0.442979    48A     -0.428825

  @DF-RHF Final Energy:  -683.59491670310319

   => Energetics <=

    Nuclear Repulsion Energy =            835.3732389998647250
    One-Electron Energy =               -2599.4984996003090600
    Two-Electron Energy =                1080.5303438973410266
    Total Energy =                       -683.5949167031033085
  Basis Set: (AUG-CC-PVTZ AUX)
    Blend: AUG-CC-PVTZ-RI
    Molecular point group: c1

    Geometry (in Angstrom), charge = 0, multiplicity = 1:

       Center              X                  Y                   Z               Mass
    ------------   -----------------  -----------------  -----------------  -----------------
         O           -0.855216101254     0.886719155183     0.269983473545    15.994914619570
         O           -0.317505101254    -1.653950844817     1.307265473545    15.994914619570
         O            2.096298898746    -1.962826844817    -0.182794526455    15.994914619570
         O            2.746813898746     0.774467155183    -0.444668526455    15.994914619570
         O            0.730628898746     2.526993155183     0.577362473545    15.994914619570
         O           -3.490140101254     0.538469155183    -0.458261526455    15.994914619570
         C           -0.243622101254    -1.405245844817    -0.092188526455    12.000000000000
         C            1.152237898746    -0.968502844817    -0.532287526455    12.000000000000
         C           -1.224653101254    -0.299548844817    -0.477909526455    12.000000000000
         C            1.499620898746     0.362996155183     0.108969473545    12.000000000000
         C            0.413749898746     1.386811155183    -0.164822526455    12.000000000000
         C           -2.670365101254    -0.570623844817    -0.111352526455    12.000000000000
         H           -0.497336101254    -2.349972844817    -0.586638526455     1.007825032230
         H            1.135690898746    -0.817175844817    -1.626734526455     1.007825032230
         H           -1.167457101254    -0.078152844817    -1.555200526455     1.007825032230
         H            1.577989898746     0.228468155183     1.197007473545     1.007825032230
         H            0.359911898746     1.604140155183    -1.245909526455     1.007825032230
         H           -2.736030101254    -0.810571844817     0.956672473545     1.007825032230
         H           -3.039926101254    -1.429063844817    -0.678673526455     1.007825032230
         H           -0.397259101254    -0.775995844817     1.726344473545     1.007825032230
         H            3.058836798746    -1.522728544817    -0.374533626455     1.007825032230
         H            3.001983898746     1.590748155183     0.022406473545     1.007825032230
         H            0.112228898746     3.234992155183     0.323504473545     1.007825032230
         H           -3.088563101254     1.301016155183    -0.005450526455     1.007825032230

  Basis Set: AUG-CC-PVTZ
    Blend: AUG-CC-PVTZ
  Basis Set: (AUG-CC-PVTZ AUX)
    Blend: AUG-CC-PVTZ-JKFIT
	 Reference Energy          =    -683.5949167031031948 [Eh]
	 Singles Energy            =      -0.0000000000000000 [Eh]
	 Same-Spin Energy          =      -0.6675946743224805 [Eh]
	 Opposite-Spin Energy      =      -2.0494655070263139 [Eh]
	 Correlation Energy        =      -2.7170601813487947 [Eh]
	 Total Energy              =    -686.3119768844519513 [Eh]

	 ================> DF-SCS-MP2 Energies <==================
	-----------------------------------------------------------
	 SCS Same-Spin Scale       =       0.3333333333333333 [-]
	 SCS Opposite-Spin Scale   =       1.2000000000000000 [-]
	 SCS Same-Spin Energy      =      -0.2225315581074935 [Eh]
	 SCS Opposite-Spin Energy  =      -2.4593586084315766 [Eh]
	 SCS Correlation Energy    =      -2.6818901665390702 [Eh]
	 SCS Total Energy          =    -686.2768068696423143 [Eh]
	-----------------------------------------------------------

  Dipole Moment: [D]
     X:     0.7587      Y:     3.1866      Z:    -1.1082     Total:     3.4581

*** Psi4 exiting successfully. Buy a developer a beer!
