                               Psi4 1.3.2 release

  ==> Input File <==

--------------------------------------------------------------------------
#psi4
#
memory 32 gb

molecule  {
0 1
  O       -0.8456270     0.8862080     0.2793150
  O       -0.3079160    -1.6544620     1.3165970
  O        2.1058880    -1.9633380    -0.1734630
  O        2.7564030     0.7739560    -0.4353370
  O        0.7402180     2.5264820     0.5866940
  O       -3.4805510     0.5379580    -0.4489300
  C       -0.2286367    -1.4496915    -0.1125701
  C        1.1618270    -0.9690140    -0.5229560
  C       -1.2150640    -0.3000600    -0.4685780
  C        1.5092100     0.3624850     0.1183010
  C        0.4233390     1.3863000    -0.1554910
  C       -2.6607760    -0.5711350    -0.1020210
  H       -0.4877470    -2.3504840    -0.5773070
  H        1.1452800    -0.8176870    -1.6174030
  H       -1.1578680    -0.0786640    -1.5458690
  H        1.5875790     0.2279570     1.2063390
  H        0.3695010     1.6036290    -1.2365780
  H       -2.7264410    -0.8110830     0.9660040
  H       -3.0303370    -1.4295750    -0.6693420
  H       -0.3876700    -0.7765070     1.7356760
  H        2.9789380    -1.5641560    -0.3473760
  H        3.0115730     1.5902370     0.0317380
  H        0.1218180     3.2344810     0.3328360
  H       -3.0789740     1.3005050     0.0038810
units angstrom
no_reorient  #important for SAPT in psi4, default
symmetry c1  #important for SAPT in psi4, default
}

set PROPERTIES_ORIGIN ["COM"]
properties('MP2/aug-cc-pvtz', properties = ['dipole'])
--------------------------------------------------------------------------

    Molecular point group: c1
  Charge       = 0
  Multiplicity = 1
  Basis Set: AUG-CC-PVTZ
    Blend: AUG-CC-PVTZ
  Basis Set: (AUG-CC-PVTZ AUX)
    Blend: AUG-CC-PVTZ-JKFIT

    Orbital Energies [Eh]
    ---------------------

    Doubly Occupied:

       1A    -20.600268     2A    -20.596037     3A    -20.586195
       4A    -20.563870     5A    -20.563797     6A    -20.561210
       7A    -11.362673     8A    -11.305721     9A    -11.300127
      10A    -11.296776    11A    -11.295740    12A    -11.285170
      13A     -1.447796    14A     -1.392459    15A     -1.385894
      16A     -1.365634    17A     -1.356295    18A     -1.346826
      19A     -1.071561    20A     -1.049934    21A     -0.950118
      22A     -0.889717    23A     -0.847385    24A     -0.809719
      25A     -0.761043    26A     -0.735855    27A     -0.719488
      28A     -0.713437    29A     -0.689057    30A     -0.665429
      31A     -0.658392    32A     -0.641806    33A     -0.620740
      34A     -0.617498    35A     -0.597606    36A     -0.588320
      37A     -0.572868    38A     -0.562859    39A     -0.539207
      40A     -0.532299    41A     -0.529950    42A     -0.511259
      43A     -0.495539    44A     -0.482084    45A     -0.470762
      46A     -0.459401    47A     -0.446451    48A     -0.427631

  @DF-RHF Final Energy:  -683.60512271331424

   => Energetics <=

    Nuclear Repulsion Energy =            834.9659896778708799
    One-Electron Energy =               -2598.6024127179475727
    Two-Electron Energy =                1080.0313003267624481
    Total Energy =                       -683.6051227133143584
  Basis Set: (AUG-CC-PVTZ AUX)
    Blend: AUG-CC-PVTZ-RI
    Molecular point group: c1

    Geometry (in Angstrom), charge = 0, multiplicity = 1:

       Center              X                  Y                   Z               Mass
    ------------   -----------------  -----------------  -----------------  -----------------
         O           -0.855074859072     0.889876101620     0.271863875851    15.994914619570
         O           -0.317363859072    -1.650793898380     1.309145875851    15.994914619570
         O            2.096440140928    -1.959669898380    -0.180914124149    15.994914619570
         O            2.746955140928     0.777624101620    -0.442788124149    15.994914619570
         O            0.730770140928     2.530150101620     0.579242875851    15.994914619570
         O           -3.489998859072     0.541626101620    -0.456381124149    15.994914619570
         C           -0.238084559072    -1.446023398380    -0.120021224149    12.000000000000
         C            1.152379140928    -0.965345898380    -0.530407124149    12.000000000000
         C           -1.224511859072    -0.296391898380    -0.476029124149    12.000000000000
         C            1.499762140928     0.366153101620     0.110849875851    12.000000000000
         C            0.413891140928     1.389968101620    -0.162942124149    12.000000000000
         C           -2.670223859072    -0.567466898380    -0.109472124149    12.000000000000
         H           -0.497194859072    -2.346815898380    -0.584758124149     1.007825032230
         H            1.135832140928    -0.814018898380    -1.624854124149     1.007825032230
         H           -1.167315859072    -0.074995898380    -1.553320124149     1.007825032230
         H            1.578131140928     0.231625101620     1.198887875851     1.007825032230
         H            0.360053140928     1.607297101620    -1.244029124149     1.007825032230
         H           -2.735888859072    -0.807414898380     0.958552875851     1.007825032230
         H           -3.039784859072    -1.425906898380    -0.676793124149     1.007825032230
         H           -0.397117859072    -0.772838898380     1.728224875851     1.007825032230
         H            2.969490140928    -1.560487898380    -0.354827124149     1.007825032230
         H            3.002125140928     1.593905101620     0.024286875851     1.007825032230
         H            0.112370140928     3.238149101620     0.325384875851     1.007825032230
         H           -3.088421859072     1.304173101620    -0.003570124149     1.007825032230

  Basis Set: AUG-CC-PVTZ
    Blend: AUG-CC-PVTZ
  Basis Set: (AUG-CC-PVTZ AUX)
    Blend: AUG-CC-PVTZ-JKFIT
	 Reference Energy          =    -683.6051227133142447 [Eh]
	 Singles Energy            =      -0.0000000000000000 [Eh]
	 Same-Spin Energy          =      -0.6660171003895725 [Eh]
	 Opposite-Spin Energy      =      -2.0461804285012830 [Eh]
	 Correlation Energy        =      -2.7121975288908553 [Eh]
	 Total Energy              =    -686.3173202422051418 [Eh]

	 ================> DF-SCS-MP2 Energies <==================
	-----------------------------------------------------------
	 SCS Same-Spin Scale       =       0.3333333333333333 [-]
	 SCS Opposite-Spin Scale   =       1.2000000000000000 [-]
	 SCS Same-Spin Energy      =      -0.2220057001298575 [Eh]
	 SCS Opposite-Spin Energy  =      -2.4554165142015396 [Eh]
	 SCS Correlation Energy    =      -2.6774222143313970 [Eh]
	 SCS Total Energy          =    -686.2825449276456311 [Eh]
	-----------------------------------------------------------

  Dipole Moment: [D]
     X:     0.6996      Y:     3.1316      Z:    -1.1751     Total:     3.4172

*** Psi4 exiting successfully. Buy a developer a beer!
