                               Psi4 1.3.2 release

  ==> Input File <==

--------------------------------------------------------------------------
#psi4
#
memory 32 gb

molecule  {
0 1
  O       -0.8839317     0.9109270     0.2573155
  O       -0.3079160    -1.6544620     1.3165970
  O        2.1058880    -1.9633380    -0.1734630
  O        2.7564030     0.7739560    -0.4353370
  O        0.7402180     2.5264820     0.5866940
  O       -3.4805510     0.5379580    -0.4489300
  C       -0.2340330    -1.4057570    -0.0828570
  C        1.1618270    -0.9690140    -0.5229560
  C       -1.2150640    -0.3000600    -0.4685780
  C        1.5092100     0.3624850     0.1183010
  C        0.4233390     1.3863000    -0.1554910
  C       -2.6607760    -0.5711350    -0.1020210
  H       -0.4877470    -2.3504840    -0.5773070
  H        1.1452800    -0.8176870    -1.6174030
  H       -1.1578680    -0.0786640    -1.5458690
  H        1.5875790     0.2279570     1.2063390
  H        0.3695010     1.6036290    -1.2365780
  H       -2.7264410    -0.8110830     0.9660040
  H       -3.0303370    -1.4295750    -0.6693420
  H       -0.3876700    -0.7765070     1.7356760
  H        2.9789380    -1.5641560    -0.3473760
  H        3.0115730     1.5902370     0.0317380
  H        0.1218180     3.2344810     0.3328360
  H       -3.0789740     1.3005050     0.0038810
units angstrom
no_reorient  #important for SAPT in psi4, default
symmetry c1  #important for SAPT in psi4, default
}

set PROPERTIES_ORIGIN ["COM"]
properties('MP2/aug-cc-pvtz', properties = ['dipole'])
--------------------------------------------------------------------------

    Molecular point group: c1
  Charge       = 0
  Multiplicity = 1
  Basis Set: AUG-CC-PVTZ
    Blend: AUG-CC-PVTZ
  Basis Set: (AUG-CC-PVTZ AUX)
    Blend: AUG-CC-PVTZ-JKFIT

    Orbital Energies [Eh]
    ---------------------

    Doubly Occupied:

       1A    -20.600979     2A    -20.595386     3A    -20.587415
       4A    -20.566361     5A    -20.564830     6A    -20.562681
       7A    -11.364327     8A    -11.303511     9A    -11.301327
      10A    -11.298087    11A    -11.295742    12A    -11.284347
      13A     -1.444924    14A     -1.393185    15A     -1.388833
      16A     -1.368090    17A     -1.356484    18A     -1.351012
      19A     -1.074244    20A     -1.049929    21A     -0.948910
      22A     -0.888361    23A     -0.847079    24A     -0.808174
      25A     -0.760670    26A     -0.736866    27A     -0.722133
      28A     -0.712095    29A     -0.688826    30A     -0.665955
      31A     -0.659350    32A     -0.639341    33A     -0.623293
      34A     -0.618266    35A     -0.598594    36A     -0.581525
      37A     -0.576282    38A     -0.563525    39A     -0.540230
      40A     -0.535713    41A     -0.527783    42A     -0.511753
      43A     -0.493749    44A     -0.484057    45A     -0.470766
      46A     -0.460512    47A     -0.444675    48A     -0.431220

  @DF-RHF Final Energy:  -683.60648205172936

   => Energetics <=

    Nuclear Repulsion Energy =            835.0965954631475370
    One-Electron Energy =               -2598.8233570599459199
    Two-Electron Energy =                1080.1202795450690246
    Total Energy =                       -683.6064820517294720
  Basis Set: (AUG-CC-PVTZ AUX)
    Blend: AUG-CC-PVTZ-RI
    Molecular point group: c1

    Geometry (in Angstrom), charge = 0, multiplicity = 1:

       Center              X                  Y                   Z               Mass
    ------------   -----------------  -----------------  -----------------  -----------------
         O           -0.889617350590     0.909471393218     0.249838401244    15.994914619570
         O           -0.313601650590    -1.655917606782     1.309119901244    15.994914619570
         O            2.100202349410    -1.964793606782    -0.180940098756    15.994914619570
         O            2.750717349410     0.772500393218    -0.442814098756    15.994914619570
         O            0.734532349410     2.525026393218     0.579216901244    15.994914619570
         O           -3.486236650590     0.536502393218    -0.456407098756    15.994914619570
         C           -0.239718650590    -1.407212606782    -0.090334098756    12.000000000000
         C            1.156141349410    -0.970469606782    -0.530433098756    12.000000000000
         C           -1.220749650590    -0.301515606782    -0.476055098756    12.000000000000
         C            1.503524349410     0.361029393218     0.110823901244    12.000000000000
         C            0.417653349410     1.384844393218    -0.162968098756    12.000000000000
         C           -2.666461650590    -0.572590606782    -0.109498098756    12.000000000000
         H           -0.493432650590    -2.351939606782    -0.584784098756     1.007825032230
         H            1.139594349410    -0.819142606782    -1.624880098756     1.007825032230
         H           -1.163553650590    -0.080119606782    -1.553346098756     1.007825032230
         H            1.581893349410     0.226501393218     1.198861901244     1.007825032230
         H            0.363815349410     1.602173393218    -1.244055098756     1.007825032230
         H           -2.732126650590    -0.812538606782     0.958526901244     1.007825032230
         H           -3.036022650590    -1.431030606782    -0.676819098756     1.007825032230
         H           -0.393355650590    -0.777962606782     1.728198901244     1.007825032230
         H            2.973252349410    -1.565611606782    -0.354853098756     1.007825032230
         H            3.005887349410     1.588781393218     0.024260901244     1.007825032230
         H            0.116132349410     3.233025393218     0.325358901244     1.007825032230
         H           -3.084659650590     1.299049393218    -0.003596098756     1.007825032230

  Basis Set: AUG-CC-PVTZ
    Blend: AUG-CC-PVTZ
  Basis Set: (AUG-CC-PVTZ AUX)
    Blend: AUG-CC-PVTZ-JKFIT
	 Reference Energy          =    -683.6064820517293583 [Eh]
	 Singles Energy            =      -0.0000000000000000 [Eh]
	 Same-Spin Energy          =      -0.6665055940212072 [Eh]
	 Opposite-Spin Energy      =      -2.0468614927519830 [Eh]
	 Correlation Energy        =      -2.7133670867731903 [Eh]
	 Total Energy              =    -686.3198491385026045 [Eh]

	 ================> DF-SCS-MP2 Energies <==================
	-----------------------------------------------------------
	 SCS Same-Spin Scale       =       0.3333333333333333 [-]
	 SCS Opposite-Spin Scale   =       1.2000000000000000 [-]
	 SCS Same-Spin Energy      =      -0.2221685313404024 [Eh]
	 SCS Opposite-Spin Energy  =      -2.4562337913023797 [Eh]
	 SCS Correlation Energy    =      -2.6784023226427820 [Eh]
	 SCS Total Energy          =    -686.2848843743721545 [Eh]
	-----------------------------------------------------------

  Dipole Moment: [D]
     X:     0.8209      Y:     3.1276      Z:    -1.0573     Total:     3.4020

*** Psi4 exiting successfully. Buy a developer a beer!
