                               Psi4 1.3.2 release

  ==> Input File <==

--------------------------------------------------------------------------
#psi4
#
memory 32 gb

molecule  {
0 1
  O       -0.8489866     0.9616294     0.3447742
  O       -0.3079160    -1.6544620     1.3165970
  O        2.1058880    -1.9633380    -0.1734630
  O        2.7564030     0.7739560    -0.4353370
  O        0.7402180     2.5264820     0.5866940
  O       -3.4805510     0.5379580    -0.4489300
  C       -0.2340330    -1.4057570    -0.0828570
  C        1.1618270    -0.9690140    -0.5229560
  C       -1.2150640    -0.3000600    -0.4685780
  C        1.5092100     0.3624850     0.1183010
  C        0.4233390     1.3863000    -0.1554910
  C       -2.6607760    -0.5711350    -0.1020210
  H       -0.4877470    -2.3504840    -0.5773070
  H        1.1452800    -0.8176870    -1.6174030
  H       -1.1578680    -0.0786640    -1.5458690
  H        1.5875790     0.2279570     1.2063390
  H        0.3695010     1.6036290    -1.2365780
  H       -2.7264410    -0.8110830     0.9660040
  H       -3.0303370    -1.4295750    -0.6693420
  H       -0.3876700    -0.7765070     1.7356760
  H        2.9789380    -1.5641560    -0.3473760
  H        3.0115730     1.5902370     0.0317380
  H        0.1218180     3.2344810     0.3328360
  H       -3.0789740     1.3005050     0.0038810
units angstrom
no_reorient  #important for SAPT in psi4, default
symmetry c1  #important for SAPT in psi4, default
}

set PROPERTIES_ORIGIN ["COM"]
properties('MP2/aug-cc-pvtz', properties = ['dipole'])
--------------------------------------------------------------------------

    Molecular point group: c1
  Charge       = 0
  Multiplicity = 1
  Basis Set: AUG-CC-PVTZ
    Blend: AUG-CC-PVTZ
  Basis Set: (AUG-CC-PVTZ AUX)
    Blend: AUG-CC-PVTZ-JKFIT

    Orbital Energies [Eh]
    ---------------------

    Doubly Occupied:

       1A    -20.596244     2A    -20.592175     3A    -20.585641
       4A    -20.566883     5A    -20.565196     6A    -20.565158
       7A    -11.358719     8A    -11.313485     9A    -11.302316
      10A    -11.299021    11A    -11.296440    12A    -11.288845
      13A     -1.439340    14A     -1.391999    15A     -1.382695
      16A     -1.367308    17A     -1.356357    18A     -1.342026
      19A     -1.078183    20A     -1.046724    21A     -0.950723
      22A     -0.885582    23A     -0.845735    24A     -0.808393
      25A     -0.757346    26A     -0.730827    27A     -0.719730
      28A     -0.713279    29A     -0.685520    30A     -0.664108
      31A     -0.658469    32A     -0.639119    33A     -0.623194
      34A     -0.613802    35A     -0.600698    36A     -0.582506
      37A     -0.570593    38A     -0.563438    39A     -0.539900
      40A     -0.536415    41A     -0.521507    42A     -0.507784
      43A     -0.495004    44A     -0.487383    45A     -0.472619
      46A     -0.460777    47A     -0.445438    48A     -0.434297

  @DF-RHF Final Energy:  -683.59815379206577

   => Energetics <=

    Nuclear Repulsion Energy =            833.6462292908777272
    One-Electron Energy =               -2595.9908815202347796
    Two-Electron Energy =                1078.7464984372911658
    Total Energy =                       -683.5981537920658866
  Basis Set: (AUG-CC-PVTZ AUX)
    Blend: AUG-CC-PVTZ-RI
    Molecular point group: c1

    Geometry (in Angstrom), charge = 0, multiplicity = 1:

       Center              X                  Y                   Z               Mass
    ------------   -----------------  -----------------  -----------------  -----------------
         O           -0.857776401283     0.955669931730     0.329528201336    15.994914619570
         O           -0.316705801283    -1.660421468270     1.301351001336    15.994914619570
         O            2.097098198717    -1.969297468270    -0.188708998664    15.994914619570
         O            2.747613198717     0.767996531730    -0.450582998664    15.994914619570
         O            0.731428198717     2.520522531730     0.571448001336    15.994914619570
         O           -3.489340801283     0.531998531730    -0.464175998664    15.994914619570
         C           -0.242822801283    -1.411716468270    -0.098102998664    12.000000000000
         C            1.153037198717    -0.974973468270    -0.538201998664    12.000000000000
         C           -1.223853801283    -0.306019468270    -0.483823998664    12.000000000000
         C            1.500420198717     0.356525531730     0.103055001336    12.000000000000
         C            0.414549198717     1.380340531730    -0.170736998664    12.000000000000
         C           -2.669565801283    -0.577094468270    -0.117266998664    12.000000000000
         H           -0.496536801283    -2.356443468270    -0.592552998664     1.007825032230
         H            1.136490198717    -0.823646468270    -1.632648998664     1.007825032230
         H           -1.166657801283    -0.084623468270    -1.561114998664     1.007825032230
         H            1.578789198717     0.221997531730     1.191093001336     1.007825032230
         H            0.360711198717     1.597669531730    -1.251823998664     1.007825032230
         H           -2.735230801283    -0.817042468270     0.950758001336     1.007825032230
         H           -3.039126801283    -1.435534468270    -0.684587998664     1.007825032230
         H           -0.396459801283    -0.782466468270     1.720430001336     1.007825032230
         H            2.970148198717    -1.570115468270    -0.362621998664     1.007825032230
         H            3.002783198717     1.584277531730     0.016492001336     1.007825032230
         H            0.113028198717     3.228521531730     0.317590001336     1.007825032230
         H           -3.087763801283     1.294545531730    -0.011364998664     1.007825032230

  Basis Set: AUG-CC-PVTZ
    Blend: AUG-CC-PVTZ
  Basis Set: (AUG-CC-PVTZ AUX)
    Blend: AUG-CC-PVTZ-JKFIT
	 Reference Energy          =    -683.5981537920657729 [Eh]
	 Singles Energy            =      -0.0000000000000000 [Eh]
	 Same-Spin Energy          =      -0.6670819133680284 [Eh]
	 Opposite-Spin Energy      =      -2.0491557551362307 [Eh]
	 Correlation Energy        =      -2.7162376685042591 [Eh]
	 Total Energy              =    -686.3143914605700502 [Eh]

	 ================> DF-SCS-MP2 Energies <==================
	-----------------------------------------------------------
	 SCS Same-Spin Scale       =       0.3333333333333333 [-]
	 SCS Opposite-Spin Scale   =       1.2000000000000000 [-]
	 SCS Same-Spin Energy      =      -0.2223606377893428 [Eh]
	 SCS Opposite-Spin Energy  =      -2.4589869061634766 [Eh]
	 SCS Correlation Energy    =      -2.6813475439528194 [Eh]
	 SCS Total Energy          =    -686.2795013360185976 [Eh]
	-----------------------------------------------------------

  Dipole Moment: [D]
     X:     0.6141      Y:     2.8516      Z:    -1.2558     Total:     3.1758

*** Psi4 exiting successfully. Buy a developer a beer!
