                               Psi4 1.3.2 release

  ==> Input File <==

--------------------------------------------------------------------------
#psi4
#
memory 32 gb

molecule  {
0 1
  O       -0.7335975     0.8035086     0.3397448
  O       -0.3079160    -1.6544620     1.3165970
  O        2.1058880    -1.9633380    -0.1734630
  O        2.7564030     0.7739560    -0.4353370
  O        0.7402180     2.5264820     0.5866940
  O       -3.4805510     0.5379580    -0.4489300
  C       -0.2340330    -1.4057570    -0.0828570
  C        1.1618270    -0.9690140    -0.5229560
  C       -1.2150640    -0.3000600    -0.4685780
  C        1.5092100     0.3624850     0.1183010
  C        0.4233390     1.3863000    -0.1554910
  C       -2.6607760    -0.5711350    -0.1020210
  H       -0.4877470    -2.3504840    -0.5773070
  H        1.1452800    -0.8176870    -1.6174030
  H       -1.1578680    -0.0786640    -1.5458690
  H        1.5875790     0.2279570     1.2063390
  H        0.3695010     1.6036290    -1.2365780
  H       -2.7264410    -0.8110830     0.9660040
  H       -3.0303370    -1.4295750    -0.6693420
  H       -0.3876700    -0.7765070     1.7356760
  H        2.9789380    -1.5641560    -0.3473760
  H        3.0115730     1.5902370     0.0317380
  H        0.1218180     3.2344810     0.3328360
  H       -3.0789740     1.3005050     0.0038810
units angstrom
no_reorient  #important for SAPT in psi4, default
symmetry c1  #important for SAPT in psi4, default
}

set PROPERTIES_ORIGIN ["COM"]
properties('MP2/aug-cc-pvtz', properties = ['dipole'])
--------------------------------------------------------------------------

    Molecular point group: c1
  Charge       = 0
  Multiplicity = 1
  Basis Set: AUG-CC-PVTZ
    Blend: AUG-CC-PVTZ
  Basis Set: (AUG-CC-PVTZ AUX)
    Blend: AUG-CC-PVTZ-JKFIT

    Orbital Energies [Eh]
    ---------------------

    Doubly Occupied:

       1A    -20.598757     2A    -20.593427     3A    -20.579312
       4A    -20.569367     5A    -20.562019     6A    -20.561348
       7A    -11.358303     8A    -11.307917     9A    -11.293653
      10A    -11.292643    11A    -11.292000    12A    -11.289848
      13A     -1.458552    14A     -1.390199    15A     -1.387854
      16A     -1.368269    17A     -1.359264    18A     -1.350527
      19A     -1.070301    20A     -1.054658    21A     -0.948735
      22A     -0.885007    23A     -0.851334    24A     -0.810900
      25A     -0.756834    26A     -0.737903    27A     -0.724674
      28A     -0.717011    29A     -0.691788    30A     -0.666730
      31A     -0.656309    32A     -0.640756    33A     -0.624439
      34A     -0.619349    35A     -0.598852    36A     -0.578685
      37A     -0.573024    38A     -0.560758    39A     -0.541541
      40A     -0.534453    41A     -0.527193    42A     -0.511035
      43A     -0.501655    44A     -0.479986    45A     -0.470665
      46A     -0.456544    47A     -0.443536    48A     -0.425262

  @DF-RHF Final Energy:  -683.60383714837064

   => Energetics <=

    Nuclear Repulsion Energy =            838.4680720702551753
    One-Electron Energy =               -2605.5974655109398554
    Two-Electron Energy =                1083.5255562923139223
    Total Energy =                       -683.6038371483707579
  Basis Set: (AUG-CC-PVTZ AUX)
    Blend: AUG-CC-PVTZ-RI
    Molecular point group: c1

    Geometry (in Angstrom), charge = 0, multiplicity = 1:

       Center              X                  Y                   Z               Mass
    ------------   -----------------  -----------------  -----------------  -----------------
         O           -0.752637240607     0.811594900402     0.324945559694    15.994914619570
         O           -0.326955740607    -1.646375699598     1.301797759694    15.994914619570
         O            2.086848259393    -1.955251699598    -0.188262240306    15.994914619570
         O            2.737363259393     0.782042300402    -0.450136240306    15.994914619570
         O            0.721178259393     2.534568300402     0.571894759694    15.994914619570
         O           -3.499590740607     0.546044300402    -0.463729240306    15.994914619570
         C           -0.253072740607    -1.397670699598    -0.097656240306    12.000000000000
         C            1.142787259393    -0.960927699598    -0.537755240306    12.000000000000
         C           -1.234103740607    -0.291973699598    -0.483377240306    12.000000000000
         C            1.490170259393     0.370571300402     0.103501759694    12.000000000000
         C            0.404299259393     1.394386300402    -0.170290240306    12.000000000000
         C           -2.679815740607    -0.563048699598    -0.116820240306    12.000000000000
         H           -0.506786740607    -2.342397699598    -0.592106240306     1.007825032230
         H            1.126240259393    -0.809600699598    -1.632202240306     1.007825032230
         H           -1.176907740607    -0.070577699598    -1.560668240306     1.007825032230
         H            1.568539259393     0.236043300402     1.191539759694     1.007825032230
         H            0.350461259393     1.611715300402    -1.251377240306     1.007825032230
         H           -2.745480740607    -0.802996699598     0.951204759694     1.007825032230
         H           -3.049376740607    -1.421488699598    -0.684141240306     1.007825032230
         H           -0.406709740607    -0.768420699598     1.720876759694     1.007825032230
         H            2.959898259393    -1.556069699598    -0.362175240306     1.007825032230
         H            2.992533259393     1.598323300402     0.016938759694     1.007825032230
         H            0.102778259393     3.242567300402     0.318036759694     1.007825032230
         H           -3.098013740607     1.308591300402    -0.010918240306     1.007825032230

  Basis Set: AUG-CC-PVTZ
    Blend: AUG-CC-PVTZ
  Basis Set: (AUG-CC-PVTZ AUX)
    Blend: AUG-CC-PVTZ-JKFIT
	 Reference Energy          =    -683.6038371483706442 [Eh]
	 Singles Energy            =      -0.0000000000000000 [Eh]
	 Same-Spin Energy          =      -0.6663640159555357 [Eh]
	 Opposite-Spin Energy      =      -2.0452508895305939 [Eh]
	 Correlation Energy        =      -2.7116149054861296 [Eh]
	 Total Energy              =    -686.3154520538568022 [Eh]

	 ================> DF-SCS-MP2 Energies <==================
	-----------------------------------------------------------
	 SCS Same-Spin Scale       =       0.3333333333333333 [-]
	 SCS Opposite-Spin Scale   =       1.2000000000000000 [-]
	 SCS Same-Spin Energy      =      -0.2221213386518452 [Eh]
	 SCS Opposite-Spin Energy  =      -2.4543010674367127 [Eh]
	 SCS Correlation Energy    =      -2.6764224060885580 [Eh]
	 SCS Total Energy          =    -686.2802595544592350 [Eh]
	-----------------------------------------------------------

  Dipole Moment: [D]
     X:     0.2251      Y:     3.2846      Z:    -1.2120     Total:     3.5083

*** Psi4 exiting successfully. Buy a developer a beer!
