                               Psi4 1.3.2 release

  ==> Input File <==

--------------------------------------------------------------------------
#psi4
#
memory 32 gb

molecule  {
0 1
  O       -0.8456270     0.8862080     0.2793150
  O       -0.3079160    -1.6544620     1.3165970
  O        2.1058880    -1.9633380    -0.1734630
  O        2.7564030     0.7739560    -0.4353370
  O        0.7402180     2.5264820     0.5866940
  O       -3.4805510     0.5379580    -0.4489300
  C       -0.2340330    -1.4057570    -0.0828570
  C        1.1618270    -0.9690140    -0.5229560
  C       -1.2792816    -0.2276819    -0.4938270
  C        1.5092100     0.3624850     0.1183010
  C        0.4233390     1.3863000    -0.1554910
  C       -2.6607760    -0.5711350    -0.1020210
  H       -0.4877470    -2.3504840    -0.5773070
  H        1.1452800    -0.8176870    -1.6174030
  H       -1.1578680    -0.0786640    -1.5458690
  H        1.5875790     0.2279570     1.2063390
  H        0.3695010     1.6036290    -1.2365780
  H       -2.7264410    -0.8110830     0.9660040
  H       -3.0303370    -1.4295750    -0.6693420
  H       -0.3876700    -0.7765070     1.7356760
  H        2.9789380    -1.5641560    -0.3473760
  H        3.0115730     1.5902370     0.0317380
  H        0.1218180     3.2344810     0.3328360
  H       -3.0789740     1.3005050     0.0038810
units angstrom
no_reorient  #important for SAPT in psi4, default
symmetry c1  #important for SAPT in psi4, default
}

set PROPERTIES_ORIGIN ["COM"]
properties('MP2/aug-cc-pvtz', properties = ['dipole'])
--------------------------------------------------------------------------

    Molecular point group: c1
  Charge       = 0
  Multiplicity = 1
  Basis Set: AUG-CC-PVTZ
    Blend: AUG-CC-PVTZ
  Basis Set: (AUG-CC-PVTZ AUX)
    Blend: AUG-CC-PVTZ-JKFIT

    Orbital Energies [Eh]
    ---------------------

    Doubly Occupied:

       1A    -20.601639     2A    -20.597238     3A    -20.585248
       4A    -20.563501     5A    -20.562923     6A    -20.562254
       7A    -11.364784     8A    -11.303443     9A    -11.298660
      10A    -11.296551    11A    -11.293367    12A    -11.283888
      13A     -1.452266    14A     -1.393046    15A     -1.389070
      16A     -1.367722    17A     -1.357711    18A     -1.351564
      19A     -1.065332    20A     -1.052113    21A     -0.950270
      22A     -0.884604    23A     -0.849424    24A     -0.809265
      25A     -0.759436    26A     -0.738068    27A     -0.722280
      28A     -0.715872    29A     -0.690698    30A     -0.662466
      31A     -0.657366    32A     -0.640022    33A     -0.628531
      34A     -0.619545    35A     -0.599520    36A     -0.579840
      37A     -0.576065    38A     -0.562931    39A     -0.539479
      40A     -0.538023    41A     -0.531388    42A     -0.515457
      43A     -0.497991    44A     -0.473588    45A     -0.469244
      46A     -0.460028    47A     -0.445634    48A     -0.417352

  @DF-RHF Final Energy:  -683.60076956409466

   => Energetics <=

    Nuclear Repulsion Energy =            835.3240044735520087
    One-Electron Energy =               -2599.2961268139897584
    Two-Electron Energy =                1080.3713527763429738
    Total Energy =                       -683.6007695640946622
  Basis Set: (AUG-CC-PVTZ AUX)
    Blend: AUG-CC-PVTZ-RI
    Molecular point group: c1

    Geometry (in Angstrom), charge = 0, multiplicity = 1:

       Center              X                  Y                   Z               Mass
    ------------   -----------------  -----------------  -----------------  -----------------
         O           -0.850435566161     0.882124658005     0.271566373952    15.994914619570
         O           -0.312724566161    -1.658545341995     1.308848373952    15.994914619570
         O            2.101079433839    -1.967421341995    -0.181211626048    15.994914619570
         O            2.751594433839     0.769872658005    -0.443085626048    15.994914619570
         O            0.735409433839     2.522398658005     0.578945373952    15.994914619570
         O           -3.485359566161     0.533874658005    -0.456678626048    15.994914619570
         C           -0.238841566161    -1.409840341995    -0.090605626048    12.000000000000
         C            1.157018433839    -0.973097341995    -0.530704626048    12.000000000000
         C           -1.284090166161    -0.231765241995    -0.501575626048    12.000000000000
         C            1.504401433839     0.358401658005     0.110552373952    12.000000000000
         C            0.418530433839     1.382216658005    -0.163239626048    12.000000000000
         C           -2.665584566161    -0.575218341995    -0.109769626048    12.000000000000
         H           -0.492555566161    -2.354567341995    -0.585055626048     1.007825032230
         H            1.140471433839    -0.821770341995    -1.625151626048     1.007825032230
         H           -1.162676566161    -0.082747341995    -1.553617626048     1.007825032230
         H            1.582770433839     0.223873658005     1.198590373952     1.007825032230
         H            0.364692433839     1.599545658005    -1.244326626048     1.007825032230
         H           -2.731249566161    -0.815166341995     0.958255373952     1.007825032230
         H           -3.035145566161    -1.433658341995    -0.677090626048     1.007825032230
         H           -0.392478566161    -0.780590341995     1.727927373952     1.007825032230
         H            2.974129433839    -1.568239341995    -0.355124626048     1.007825032230
         H            3.006764433839     1.586153658005     0.023989373952     1.007825032230
         H            0.117009433839     3.230397658005     0.325087373952     1.007825032230
         H           -3.083782566161     1.296421658005    -0.003867626048     1.007825032230

  Basis Set: AUG-CC-PVTZ
    Blend: AUG-CC-PVTZ
  Basis Set: (AUG-CC-PVTZ AUX)
    Blend: AUG-CC-PVTZ-JKFIT
	 Reference Energy          =    -683.6007695640946622 [Eh]
	 Singles Energy            =      -0.0000000000000000 [Eh]
	 Same-Spin Energy          =      -0.6662080771366363 [Eh]
	 Opposite-Spin Energy      =      -2.0459760373170837 [Eh]
	 Correlation Energy        =      -2.7121841144537200 [Eh]
	 Total Energy              =    -686.3129536785484106 [Eh]

	 ================> DF-SCS-MP2 Energies <==================
	-----------------------------------------------------------
	 SCS Same-Spin Scale       =       0.3333333333333333 [-]
	 SCS Opposite-Spin Scale   =       1.2000000000000000 [-]
	 SCS Same-Spin Energy      =      -0.2220693590455454 [Eh]
	 SCS Opposite-Spin Energy  =      -2.4551712447805003 [Eh]
	 SCS Correlation Energy    =      -2.6772406038260459 [Eh]
	 SCS Total Energy          =    -686.2780101679206837 [Eh]
	-----------------------------------------------------------

  Dipole Moment: [D]
     X:     0.6097      Y:     3.2658      Z:    -1.1064     Total:     3.5016

*** Psi4 exiting successfully. Buy a developer a beer!
