                               Psi4 1.3.2 release

  ==> Input File <==

--------------------------------------------------------------------------
#psi4
#
memory 32 gb

molecule  {
0 1
  O       -0.8456270     0.8862080     0.2793150
  O       -0.3079160    -1.6544620     1.3165970
  O        2.1058880    -1.9633380    -0.1734630
  O        2.7564030     0.7739560    -0.4353370
  O        0.7402180     2.5264820     0.5866940
  O       -3.4805510     0.5379580    -0.4489300
  C       -0.1761484    -1.4114371     0.0660604
  C        1.1618270    -0.9690140    -0.5229560
  C       -1.2150640    -0.3000600    -0.4685780
  C        1.5092100     0.3624850     0.1183010
  C        0.4233390     1.3863000    -0.1554910
  C       -2.6607760    -0.5711350    -0.1020210
  H       -0.4877470    -2.3504840    -0.5773070
  H        1.1452800    -0.8176870    -1.6174030
  H       -1.1578680    -0.0786640    -1.5458690
  H        1.5875790     0.2279570     1.2063390
  H        0.3695010     1.6036290    -1.2365780
  H       -2.7264410    -0.8110830     0.9660040
  H       -3.0303370    -1.4295750    -0.6693420
  H       -0.3876700    -0.7765070     1.7356760
  H        2.9789380    -1.5641560    -0.3473760
  H        3.0115730     1.5902370     0.0317380
  H        0.1218180     3.2344810     0.3328360
  H       -3.0789740     1.3005050     0.0038810
units angstrom
no_reorient  #important for SAPT in psi4, default
symmetry c1  #important for SAPT in psi4, default
}

set PROPERTIES_ORIGIN ["COM"]
properties('MP2/aug-cc-pvtz', properties = ['dipole'])
--------------------------------------------------------------------------

    Molecular point group: c1
  Charge       = 0
  Multiplicity = 1
  Basis Set: AUG-CC-PVTZ
    Blend: AUG-CC-PVTZ
  Basis Set: (AUG-CC-PVTZ AUX)
    Blend: AUG-CC-PVTZ-JKFIT

    Orbital Energies [Eh]
    ---------------------

    Doubly Occupied:

       1A    -20.599062     2A    -20.590936     3A    -20.584400
       4A    -20.582505     5A    -20.562947     6A    -20.561755
       7A    -11.361048     8A    -11.301904     9A    -11.299845
      10A    -11.297261    11A    -11.291073    12A    -11.283468
      13A     -1.454339    14A     -1.434415    15A     -1.390595
      16A     -1.375842    17A     -1.358932    18A     -1.354320
      19A     -1.065004    20A     -1.041161    21A     -0.945203
      22A     -0.882546    23A     -0.843572    24A     -0.814197
      25A     -0.770925    26A     -0.739857    27A     -0.726884
      28A     -0.711671    29A     -0.690715    30A     -0.674191
      31A     -0.665144    32A     -0.637991    33A     -0.633403
      34A     -0.620523    35A     -0.601052    36A     -0.597618
      37A     -0.576555    38A     -0.560938    39A     -0.546957
      40A     -0.535501    41A     -0.524069    42A     -0.513356
      43A     -0.494217    44A     -0.469624    45A     -0.462739
      46A     -0.459183    47A     -0.434277    48A     -0.412816

  @DF-RHF Final Energy:  -683.58175014195206

   => Energetics <=

    Nuclear Repulsion Energy =            837.1906389359941159
    One-Electron Energy =               -2602.8716994621431695
    Two-Electron Energy =                1082.0993103841969969
    Total Energy =                       -683.5817501419519431
  Basis Set: (AUG-CC-PVTZ AUX)
    Blend: AUG-CC-PVTZ-RI
    Molecular point group: c1

    Geometry (in Angstrom), charge = 0, multiplicity = 1:

       Center              X                  Y                   Z               Mass
    ------------   -----------------  -----------------  -----------------  -----------------
         O           -0.858572847234     0.887326706072     0.259959368097    15.994914619570
         O           -0.320861847234    -1.653343293928     1.297241368097    15.994914619570
         O            2.092942152766    -1.962219293928    -0.192818631903    15.994914619570
         O            2.743457152766     0.775074706072    -0.454692631903    15.994914619570
         O            0.727272152766     2.527600706072     0.567338368097    15.994914619570
         O           -3.493496847234     0.539076706072    -0.468285631903    15.994914619570
         C           -0.189094247234    -1.410318393928     0.046704768097    12.000000000000
         C            1.148881152766    -0.967895293928    -0.542311631903    12.000000000000
         C           -1.228009847234    -0.298941293928    -0.487933631903    12.000000000000
         C            1.496264152766     0.363603706072     0.098945368097    12.000000000000
         C            0.410393152766     1.387418706072    -0.174846631903    12.000000000000
         C           -2.673721847234    -0.570016293928    -0.121376631903    12.000000000000
         H           -0.500692847234    -2.349365293928    -0.596662631903     1.007825032230
         H            1.132334152766    -0.816568293928    -1.636758631903     1.007825032230
         H           -1.170813847234    -0.077545293928    -1.565224631903     1.007825032230
         H            1.574633152766     0.229075706072     1.186983368097     1.007825032230
         H            0.356555152766     1.604747706072    -1.255933631903     1.007825032230
         H           -2.739386847234    -0.809964293928     0.946648368097     1.007825032230
         H           -3.043282847234    -1.428456293928    -0.688697631903     1.007825032230
         H           -0.400615847234    -0.775388293928     1.716320368097     1.007825032230
         H            2.965992152766    -1.563037293928    -0.366731631903     1.007825032230
         H            2.998627152766     1.591355706072     0.012382368097     1.007825032230
         H            0.108872152766     3.235599706072     0.313480368097     1.007825032230
         H           -3.091919847234     1.301623706072    -0.015474631903     1.007825032230

  Basis Set: AUG-CC-PVTZ
    Blend: AUG-CC-PVTZ
  Basis Set: (AUG-CC-PVTZ AUX)
    Blend: AUG-CC-PVTZ-JKFIT
	 Reference Energy          =    -683.5817501419520568 [Eh]
	 Singles Energy            =      -0.0000000000000000 [Eh]
	 Same-Spin Energy          =      -0.6673592337790824 [Eh]
	 Opposite-Spin Energy      =      -2.0463343823473670 [Eh]
	 Correlation Energy        =      -2.7136936161264495 [Eh]
	 Total Energy              =    -686.2954437580784770 [Eh]

	 ================> DF-SCS-MP2 Energies <==================
	-----------------------------------------------------------
	 SCS Same-Spin Scale       =       0.3333333333333333 [-]
	 SCS Opposite-Spin Scale   =       1.2000000000000000 [-]
	 SCS Same-Spin Energy      =      -0.2224530779263608 [Eh]
	 SCS Opposite-Spin Energy  =      -2.4556012588168401 [Eh]
	 SCS Correlation Energy    =      -2.6780543367432008 [Eh]
	 SCS Total Energy          =    -686.2598044786952869 [Eh]
	-----------------------------------------------------------

  Dipole Moment: [D]
     X:     0.6917      Y:     3.1072      Z:    -0.6316     Total:     3.2453

*** Psi4 exiting successfully. Buy a developer a beer!
