                               Psi4 1.4a3.dev225

  ==> Input File <==

--------------------------------------------------------------------------
#psi4
#
memory 32 gb

molecule  {
0 1
  O       -0.8456650     0.8861440     0.2793920
  O       -0.3077290    -1.6543970     1.3165920
  O        2.1058490    -1.9633390    -0.1734930
  O        2.7563870     0.7740080    -0.4352340
  O        0.7401070     2.5265290     0.5865970
  O       -3.4805150     0.5379850    -0.4487790
  C       -0.2340150    -1.4057960    -0.0828600
  C        1.1618410    -0.9690160    -0.5229920
  C       -1.2099884    -0.2837623    -0.4582687
  C        1.5091960     0.3624950     0.1183140
  C        0.4232960     1.3863010    -0.1554910
  C       -2.6608140    -0.5711940    -0.1020800
  H       -0.4877200    -2.3505680    -0.5772350
  H        1.1452880    -0.8176810    -1.6174430
  H       -1.1578130    -0.0786490    -1.5458470
  H        1.5874550     0.2279380     1.2063560
  H        0.3693510     1.6035860    -1.2365730
  H       -2.7265370    -0.8113720     0.9658980
  H       -3.0304070    -1.4295080    -0.6695770
  H       -0.3878110    -0.7763940     1.7355090
  H        2.9789120    -1.5642300    -0.3474430
  H        3.0116250     1.5901680     0.0320000
  H        0.1223170     3.2347930     0.3320250
  H       -3.0786550     1.3004670     0.0038890
units angstrom
no_reorient  #important for SAPT in psi4, default
symmetry c1  #important for SAPT in psi4, default
}

set PROPERTIES_ORIGIN ["COM"]
properties('MP2/aug-cc-pvtz', properties = ['dipole'])
--------------------------------------------------------------------------

    Molecular point group: c1
  Charge       = 0
  Multiplicity = 1
  Basis Set: AUG-CC-PVTZ
    Blend: AUG-CC-PVTZ
  Basis Set: (AUG-CC-PVTZ AUX)
    Blend: AUG-CC-PVTZ-JKFIT

    Orbital Energies [Eh]
    ---------------------

    Doubly Occupied:

       1A    -20.601091     2A    -20.597256     3A    -20.585830
       4A    -20.564749     5A    -20.563981     6A    -20.563914
       7A    -11.363782     8A    -11.304195     9A    -11.299471
      10A    -11.296304    11A    -11.294499    12A    -11.285372
      13A     -1.451898    14A     -1.392974    15A     -1.390251
      16A     -1.367965    17A     -1.357423    18A     -1.352965
      19A     -1.072078    20A     -1.050940    21A     -0.947875
      22A     -0.888128    23A     -0.848871    24A     -0.809074
      25A     -0.760242    26A     -0.738556    27A     -0.721888
      28A     -0.714736    29A     -0.690612    30A     -0.666251
      31A     -0.658561    32A     -0.640716    33A     -0.622802
      34A     -0.619789    35A     -0.598657    36A     -0.580609
      37A     -0.576810    38A     -0.562924    39A     -0.540701
      40A     -0.534462    41A     -0.530067    42A     -0.513435
      43A     -0.496211    44A     -0.482116    45A     -0.469365
      46A     -0.460042    47A     -0.444340    48A     -0.428154

  @DF-RHF Final Energy:  -683.60850363517488

   => Energetics <=

    Nuclear Repulsion Energy =            836.2149179511172861
    One-Electron Energy =               -2601.0409791731699443
    Two-Electron Energy =                1081.2175575868777742
    Total Energy =                       -683.6085036351748840
  Basis Set: (AUG-CC-PVTZ AUX)
    Blend: AUG-CC-PVTZ-RI
    Molecular point group: c1

    Geometry (in Angstrom), charge = 0, multiplicity = 1:

       Center              X                  Y                   Z               Mass
    ------------   -----------------  -----------------  -----------------  -----------------
         O           -0.855090951596     0.885793350440     0.269267463699    15.994914619570
         O           -0.317154951596    -1.654747649560     1.306467463699    15.994914619570
         O            2.096423048404    -1.963689649560    -0.183617536301    15.994914619570
         O            2.746961048404     0.773657350440    -0.445358536301    15.994914619570
         O            0.730681048404     2.526178350440     0.576472463699    15.994914619570
         O           -3.489940951596     0.537634350440    -0.458903536301    15.994914619570
         C           -0.243440951596    -1.406146649560    -0.092984536301    12.000000000000
         C            1.152415048404    -0.969366649560    -0.533116536301    12.000000000000
         C           -1.219414351596    -0.284112949560    -0.468393236301    12.000000000000
         C            1.499770048404     0.362144350440     0.108189463699    12.000000000000
         C            0.413870048404     1.385950350440    -0.165615536301    12.000000000000
         C           -2.670239951596    -0.571544649560    -0.112204536301    12.000000000000
         H           -0.497145951596    -2.350918649560    -0.587359536301     1.007825032230
         H            1.135862048404    -0.818031649560    -1.627567536301     1.007825032230
         H           -1.167238951596    -0.078999649560    -1.555971536301     1.007825032230
         H            1.578029048404     0.227587350440     1.196231463699     1.007825032230
         H            0.359925048404     1.603235350440    -1.246697536301     1.007825032230
         H           -2.735962951596    -0.811722649560     0.955773463699     1.007825032230
         H           -3.039832951596    -1.429858649560    -0.679701536301     1.007825032230
         H           -0.397236951596    -0.776744649560     1.725384463699     1.007825032230
         H            2.969486048404    -1.564580649560    -0.357567536301     1.007825032230
         H            3.002199048404     1.589817350440     0.021875463699     1.007825032230
         H            0.112891048404     3.234442350440     0.321900463699     1.007825032230
         H           -3.088080951596     1.300116350440    -0.006235536301     1.007825032230

  Basis Set: AUG-CC-PVTZ
    Blend: AUG-CC-PVTZ
  Basis Set: (AUG-CC-PVTZ AUX)
    Blend: AUG-CC-PVTZ-JKFIT
	 Reference Energy          =    -683.6085036351748840 [Eh]
	 Singles Energy            =      -0.0000000000000000 [Eh]
	 Same-Spin Energy          =      -0.6662669897979535 [Eh]
	 Opposite-Spin Energy      =      -2.0458822079707399 [Eh]
	 Correlation Energy        =      -2.7121491977686936 [Eh]
	 Total Energy              =    -686.3206528329435514 [Eh]

	 ================> DF-SCS-MP2 Energies <==================
	-----------------------------------------------------------
	 SCS Same-Spin Scale       =       0.3333333333333333 [-]
	 SCS Opposite-Spin Scale   =       1.2000000000000000 [-]
	 SCS Same-Spin Energy      =      -0.2220889965993178 [Eh]
	 SCS Opposite-Spin Energy  =      -2.4550586495648878 [Eh]
	 SCS Correlation Energy    =      -2.6771476461642059 [Eh]
	 SCS Total Energy          =    -686.2856512813391419 [Eh]
	-----------------------------------------------------------

  Dipole Moment: [D]
     X:     0.6944      Y:     3.2070      Z:    -1.0753     Total:     3.4530

*** Psi4 exiting successfully. Buy a developer a beer!
