                               Psi4 1.4a3.dev225

  ==> Input File <==

--------------------------------------------------------------------------
#psi4
#
memory 32 gb

molecule  {
0 1
  O       -0.8456650     0.8861440     0.2793920
  O       -0.3077290    -1.6543970     1.3165920
  O        2.1058490    -1.9633390    -0.1734930
  O        2.7563870     0.7740080    -0.4352340
  O        0.7401070     2.5265290     0.5865970
  O       -3.4805150     0.5379850    -0.4487790
  C       -0.2340150    -1.4057960    -0.0828600
  C        1.1618410    -0.9690160    -0.5229920
  C       -1.2150830    -0.3001220    -0.4685840
  C        1.5091960     0.3624950     0.1183140
  C        0.4232960     1.3863010    -0.1554910
  C       -2.6608140    -0.5711940    -0.1020800
  H       -0.4877200    -2.3505680    -0.5772350
  H        1.1452880    -0.8176810    -1.6174430
  H       -1.1578130    -0.0786490    -1.5458470
  H        1.5874550     0.2279380     1.2063560
  H        0.3693510     1.6035860    -1.2365730
  H       -2.7265370    -0.8113720     0.9658980
  H       -3.0304070    -1.4295080    -0.6695770
  H       -0.3878110    -0.7763940     1.7355090
  H        2.9789120    -1.5642300    -0.3474430
  H        3.0116250     1.5901680     0.0320000
  H        0.1223170     3.2347930     0.3320250
  H       -3.0869107     1.2848029    -0.0054104
units angstrom
no_reorient  #important for SAPT in psi4, default
symmetry c1  #important for SAPT in psi4, default
}

set PROPERTIES_ORIGIN ["COM"]
properties('MP2/aug-cc-pvtz', properties = ['dipole'])
--------------------------------------------------------------------------

    Molecular point group: c1
  Charge       = 0
  Multiplicity = 1
  Basis Set: AUG-CC-PVTZ
    Blend: AUG-CC-PVTZ
  Basis Set: (AUG-CC-PVTZ AUX)
    Blend: AUG-CC-PVTZ-JKFIT

    Orbital Energies [Eh]
    ---------------------

    Doubly Occupied:

       1A    -20.600081     2A    -20.594964     3A    -20.585386
       4A    -20.565258     5A    -20.564128     6A    -20.562916
       7A    -11.362469     8A    -11.304856     9A    -11.298963
      10A    -11.297023    11A    -11.294908    12A    -11.286100
      13A     -1.448222    14A     -1.392068    15A     -1.389424
      16A     -1.369996    17A     -1.358223    18A     -1.352637
      19A     -1.073031    20A     -1.051887    21A     -0.949505
      22A     -0.887501    23A     -0.849435    24A     -0.808775
      25A     -0.759676    26A     -0.737552    27A     -0.722267
      28A     -0.714214    29A     -0.691888    30A     -0.666368
      31A     -0.658653    32A     -0.640446    33A     -0.623570
      34A     -0.618975    35A     -0.599194    36A     -0.580835
      37A     -0.575930    38A     -0.563148    39A     -0.540369
      40A     -0.535057    41A     -0.528520    42A     -0.512389
      43A     -0.496199    44A     -0.483410    45A     -0.470564
      46A     -0.460086    47A     -0.444666    48A     -0.430257

  @DF-RHF Final Energy:  -683.60918015840332

   => Energetics <=

    Nuclear Repulsion Energy =            836.0420586205401605
    One-Electron Energy =               -2600.6985008340511740
    Two-Electron Energy =                1081.0472620551076943
    Total Energy =                       -683.6091801584034329
  Basis Set: (AUG-CC-PVTZ AUX)
    Blend: AUG-CC-PVTZ-RI
    Molecular point group: c1

    Geometry (in Angstrom), charge = 0, multiplicity = 1:

       Center              X                  Y                   Z               Mass
    ------------   -----------------  -----------------  -----------------  -----------------
         O           -0.854705223538     0.886971286024     0.270006957549    15.994914619570
         O           -0.316769223538    -1.653569713976     1.307206957549    15.994914619570
         O            2.096808776462    -1.962511713976    -0.182878042451    15.994914619570
         O            2.747346776462     0.774835286024    -0.444619042451    15.994914619570
         O            0.731066776462     2.527356286024     0.577211957549    15.994914619570
         O           -3.489555223538     0.538812286024    -0.458164042451    15.994914619570
         C           -0.243055223538    -1.404968713976    -0.092245042451    12.000000000000
         C            1.152800776462    -0.968188713976    -0.532377042451    12.000000000000
         C           -1.224123223538    -0.299294713976    -0.477969042451    12.000000000000
         C            1.500155776462     0.363322286024     0.108928957549    12.000000000000
         C            0.414255776462     1.387128286024    -0.164876042451    12.000000000000
         C           -2.669854223538    -0.570366713976    -0.111465042451    12.000000000000
         H           -0.496760223538    -2.349740713976    -0.586620042451     1.007825032230
         H            1.136247776462    -0.816853713976    -1.626828042451     1.007825032230
         H           -1.166853223538    -0.077821713976    -1.555232042451     1.007825032230
         H            1.578414776462     0.228765286024     1.196970957549     1.007825032230
         H            0.360310776462     1.604413286024    -1.245958042451     1.007825032230
         H           -2.735577223538    -0.810544713976     0.956512957549     1.007825032230
         H           -3.039447223538    -1.428680713976    -0.678962042451     1.007825032230
         H           -0.396851223538    -0.775566713976     1.726123957549     1.007825032230
         H            2.969871776462    -1.563402713976    -0.356828042451     1.007825032230
         H            3.002584776462     1.590995286024     0.022614957549     1.007825032230
         H            0.113276776462     3.235620286024     0.322639957549     1.007825032230
         H           -3.095950923538     1.285630186024    -0.014795442451     1.007825032230

  Basis Set: AUG-CC-PVTZ
    Blend: AUG-CC-PVTZ
  Basis Set: (AUG-CC-PVTZ AUX)
    Blend: AUG-CC-PVTZ-JKFIT
	 Reference Energy          =    -683.6091801584033192 [Eh]
	 Singles Energy            =      -0.0000000000000000 [Eh]
	 Same-Spin Energy          =      -0.6660917800413222 [Eh]
	 Opposite-Spin Energy      =      -2.0455681354504875 [Eh]
	 Correlation Energy        =      -2.7116599154918095 [Eh]
	 Total Energy              =    -686.3208400738951696 [Eh]

	 ================> DF-SCS-MP2 Energies <==================
	-----------------------------------------------------------
	 SCS Same-Spin Scale       =       0.3333333333333333 [-]
	 SCS Opposite-Spin Scale   =       1.2000000000000000 [-]
	 SCS Same-Spin Energy      =      -0.2220305933471074 [Eh]
	 SCS Opposite-Spin Energy  =      -2.4546817625405848 [Eh]
	 SCS Correlation Energy    =      -2.6767123558876920 [Eh]
	 SCS Total Energy          =    -686.2858925142910493 [Eh]
	-----------------------------------------------------------

  Dipole Moment: [D]
     X:     0.6587      Y:     3.1412      Z:    -1.1064     Total:     3.3949

*** Psi4 exiting successfully. Buy a developer a beer!
