                               Psi4 1.3.2 release

  ==> Input File <==

--------------------------------------------------------------------------
#psi4
#
memory 32 gb

molecule  {
0 1
  O       -0.8456270     0.8862080     0.2793150
  O       -0.3079160    -1.6544620     1.3165970
  O        2.1058880    -1.9633380    -0.1734630
  O        2.7564030     0.7739560    -0.4353370
  O        0.7402180     2.5264820     0.5866940
  O       -3.5198730     0.5132792    -0.4313574
  C       -0.2340330    -1.4057570    -0.0828570
  C        1.1618270    -0.9690140    -0.5229560
  C       -1.2150640    -0.3000600    -0.4685780
  C        1.5092100     0.3624850     0.1183010
  C        0.4233390     1.3863000    -0.1554910
  C       -2.6607760    -0.5711350    -0.1020210
  H       -0.4877470    -2.3504840    -0.5773070
  H        1.1452800    -0.8176870    -1.6174030
  H       -1.1578680    -0.0786640    -1.5458690
  H        1.5875790     0.2279570     1.2063390
  H        0.3695010     1.6036290    -1.2365780
  H       -2.7264410    -0.8110830     0.9660040
  H       -3.0303370    -1.4295750    -0.6693420
  H       -0.3876700    -0.7765070     1.7356760
  H        2.9789380    -1.5641560    -0.3473760
  H        3.0115730     1.5902370     0.0317380
  H        0.1218180     3.2344810     0.3328360
  H       -3.0789740     1.3005050     0.0038810
units angstrom
no_reorient  #important for SAPT in psi4, default
symmetry c1  #important for SAPT in psi4, default
}

set PROPERTIES_ORIGIN ["COM"]
properties('MP2/aug-cc-pvtz', properties = ['dipole'])
--------------------------------------------------------------------------

    Molecular point group: c1
  Charge       = 0
  Multiplicity = 1
  Basis Set: AUG-CC-PVTZ
    Blend: AUG-CC-PVTZ
  Basis Set: (AUG-CC-PVTZ AUX)
    Blend: AUG-CC-PVTZ-JKFIT

    Orbital Energies [Eh]
    ---------------------

    Doubly Occupied:

       1A    -20.600664     2A    -20.595999     3A    -20.585842
       4A    -20.567588     5A    -20.565527     6A    -20.564578
       7A    -11.363143     8A    -11.306007     9A    -11.299497
      10A    -11.297829    11A    -11.295497    12A    -11.284974
      13A     -1.448853    14A     -1.392377    15A     -1.388985
      16A     -1.366292    17A     -1.355580    18A     -1.351339
      19A     -1.073503    20A     -1.051776    21A     -0.947772
      22A     -0.887992    23A     -0.847416    24A     -0.809335
      25A     -0.760161    26A     -0.737257    27A     -0.721878
      28A     -0.714450    29A     -0.686631    30A     -0.665765
      31A     -0.658993    32A     -0.640213    33A     -0.623667
      34A     -0.619012    35A     -0.596276    36A     -0.580535
      37A     -0.576383    38A     -0.563507    39A     -0.540372
      40A     -0.535686    41A     -0.529004    42A     -0.512401
      43A     -0.495315    44A     -0.484067    45A     -0.469548
      46A     -0.460440    47A     -0.444833    48A     -0.430788

  @DF-RHF Final Energy:  -683.60542096956499

   => Energetics <=

    Nuclear Repulsion Energy =            835.1910665660541326
    One-Electron Energy =               -2599.0018823122013600
    Two-Electron Energy =                1080.2053947765821249
    Total Energy =                       -683.6054209695651025
  Basis Set: (AUG-CC-PVTZ AUX)
    Blend: AUG-CC-PVTZ-RI
    Molecular point group: c1

    Geometry (in Angstrom), charge = 0, multiplicity = 1:

       Center              X                  Y                   Z               Mass
    ------------   -----------------  -----------------  -----------------  -----------------
         O           -0.851222284487     0.889140367929     0.268322737126    15.994914619570
         O           -0.313511284487    -1.651529632071     1.305604737126    15.994914619570
         O            2.100292715513    -1.960405632071    -0.184455262874    15.994914619570
         O            2.750807715513     0.776888367929    -0.446329262874    15.994914619570
         O            0.734622715513     2.529414367929     0.575701737126    15.994914619570
         O           -3.525468284487     0.516211567929    -0.442349662874    15.994914619570
         C           -0.239628284487    -1.402824632071    -0.093849262874    12.000000000000
         C            1.156231715513    -0.966081632071    -0.533948262874    12.000000000000
         C           -1.220659284487    -0.297127632071    -0.479570262874    12.000000000000
         C            1.503614715513     0.365417367929     0.107308737126    12.000000000000
         C            0.417743715513     1.389232367929    -0.166483262874    12.000000000000
         C           -2.666371284487    -0.568202632071    -0.113013262874    12.000000000000
         H           -0.493342284487    -2.347551632071    -0.588299262874     1.007825032230
         H            1.139684715513    -0.814754632071    -1.628395262874     1.007825032230
         H           -1.163463284487    -0.075731632071    -1.556861262874     1.007825032230
         H            1.581983715513     0.230889367929     1.195346737126     1.007825032230
         H            0.363905715513     1.606561367929    -1.247570262874     1.007825032230
         H           -2.732036284487    -0.808150632071     0.955011737126     1.007825032230
         H           -3.035932284487    -1.426642632071    -0.680334262874     1.007825032230
         H           -0.393265284487    -0.773574632071     1.724683737126     1.007825032230
         H            2.973342715513    -1.561223632071    -0.358368262874     1.007825032230
         H            3.005977715513     1.593169367929     0.020745737126     1.007825032230
         H            0.116222715513     3.237413367929     0.321843737126     1.007825032230
         H           -3.084569284487     1.303437367929    -0.007111262874     1.007825032230

  Basis Set: AUG-CC-PVTZ
    Blend: AUG-CC-PVTZ
  Basis Set: (AUG-CC-PVTZ AUX)
    Blend: AUG-CC-PVTZ-JKFIT
	 Reference Energy          =    -683.6054209695649888 [Eh]
	 Singles Energy            =      -0.0000000000000000 [Eh]
	 Same-Spin Energy          =      -0.6667213739752311 [Eh]
	 Opposite-Spin Energy      =      -2.0472026716334906 [Eh]
	 Correlation Energy        =      -2.7139240456087217 [Eh]
	 Total Energy              =    -686.3193450151736670 [Eh]

	 ================> DF-SCS-MP2 Energies <==================
	-----------------------------------------------------------
	 SCS Same-Spin Scale       =       0.3333333333333333 [-]
	 SCS Opposite-Spin Scale   =       1.2000000000000000 [-]
	 SCS Same-Spin Energy      =      -0.2222404579917437 [Eh]
	 SCS Opposite-Spin Energy  =      -2.4566432059601886 [Eh]
	 SCS Correlation Energy    =      -2.6788836639519324 [Eh]
	 SCS Total Energy          =    -686.2843046335169674 [Eh]
	-----------------------------------------------------------

  Dipole Moment: [D]
     X:     0.7701      Y:     3.1986      Z:    -1.1490     Total:     3.4849

*** Psi4 exiting successfully. Buy a developer a beer!
