                               Psi4 1.3.2 release

  ==> Input File <==

--------------------------------------------------------------------------
#psi4
#
memory 32 gb

molecule  {
0 1
  O       -0.7535551     0.8793780     0.2378178
  O       -0.3079160    -1.6544620     1.3165970
  O        2.1058880    -1.9633380    -0.1734630
  O        2.7564030     0.7739560    -0.4353370
  O        0.7402180     2.5264820     0.5866940
  O       -3.4805510     0.5379580    -0.4489300
  C       -0.2340330    -1.4057570    -0.0828570
  C        1.1618270    -0.9690140    -0.5229560
  C       -1.2150640    -0.3000600    -0.4685780
  C        1.5092100     0.3624850     0.1183010
  C        0.4233390     1.3863000    -0.1554910
  C       -2.6607760    -0.5711350    -0.1020210
  H       -0.4877470    -2.3504840    -0.5773070
  H        1.1452800    -0.8176870    -1.6174030
  H       -1.1578680    -0.0786640    -1.5458690
  H        1.5875790     0.2279570     1.2063390
  H        0.3695010     1.6036290    -1.2365780
  H       -2.7264410    -0.8110830     0.9660040
  H       -3.0303370    -1.4295750    -0.6693420
  H       -0.3876700    -0.7765070     1.7356760
  H        2.9789380    -1.5641560    -0.3473760
  H        3.0115730     1.5902370     0.0317380
  H        0.1218180     3.2344810     0.3328360
  H       -3.0789740     1.3005050     0.0038810
units angstrom
no_reorient  #important for SAPT in psi4, default
symmetry c1  #important for SAPT in psi4, default
}

set PROPERTIES_ORIGIN ["COM"]
properties('MP2/aug-cc-pvtz', properties = ['dipole'])
--------------------------------------------------------------------------

    Molecular point group: c1
  Charge       = 0
  Multiplicity = 1
  Basis Set: AUG-CC-PVTZ
    Blend: AUG-CC-PVTZ
  Basis Set: (AUG-CC-PVTZ AUX)
    Blend: AUG-CC-PVTZ-JKFIT

    Orbital Energies [Eh]
    ---------------------

    Doubly Occupied:

       1A    -20.595033     2A    -20.591435     3A    -20.579724
       4A    -20.569539     5A    -20.566353     6A    -20.562756
       7A    -11.353026     8A    -11.310828     9A    -11.297389
      10A    -11.293437    11A    -11.292097    12A    -11.292073
      13A     -1.468169    14A     -1.390094    15A     -1.388465
      16A     -1.369314    17A     -1.361447    18A     -1.353438
      19A     -1.075249    20A     -1.055190    21A     -0.949088
      22A     -0.886455    23A     -0.856997    24A     -0.810469
      25A     -0.760032    26A     -0.740103    27A     -0.723078
      28A     -0.718679    29A     -0.695744    30A     -0.665986
      31A     -0.657130    32A     -0.642915    33A     -0.626144
      34A     -0.620997    35A     -0.601158    36A     -0.579743
      37A     -0.579045    38A     -0.561201    39A     -0.542217
      40A     -0.534922    41A     -0.524662    42A     -0.513629
      43A     -0.497838    44A     -0.483744    45A     -0.471151
      46A     -0.456230    47A     -0.442752    48A     -0.425969

  @DF-RHF Final Energy:  -683.60632617643159

   => Energetics <=

    Nuclear Repulsion Energy =            838.2674708840083895
    One-Electron Energy =               -2605.0813193678582138
    Two-Electron Energy =                1083.2075223074182304
    Total Energy =                       -683.6063261764315939
  Basis Set: (AUG-CC-PVTZ AUX)
    Blend: AUG-CC-PVTZ-RI
    Molecular point group: c1

    Geometry (in Angstrom), charge = 0, multiplicity = 1:

       Center              X                  Y                   Z               Mass
    ------------   -----------------  -----------------  -----------------  -----------------
         O           -0.770822019872     0.880724870538     0.232072669358    15.994914619570
         O           -0.325182919872    -1.653115129462     1.310851869358    15.994914619570
         O            2.088621080128    -1.961991129462    -0.179208130642    15.994914619570
         O            2.739136080128     0.775302870538    -0.441082130642    15.994914619570
         O            0.722951080128     2.527828870538     0.580948869358    15.994914619570
         O           -3.497817919872     0.539304870538    -0.454675130642    15.994914619570
         C           -0.251299919872    -1.404410129462    -0.088602130642    12.000000000000
         C            1.144560080128    -0.967667129462    -0.528701130642    12.000000000000
         C           -1.232330919872    -0.298713129462    -0.474323130642    12.000000000000
         C            1.491943080128     0.363831870538     0.112555869358    12.000000000000
         C            0.406072080128     1.387646870538    -0.161236130642    12.000000000000
         C           -2.678042919872    -0.569788129462    -0.107766130642    12.000000000000
         H           -0.505013919872    -2.349137129462    -0.583052130642     1.007825032230
         H            1.128013080128    -0.816340129462    -1.623148130642     1.007825032230
         H           -1.175134919872    -0.077317129462    -1.551614130642     1.007825032230
         H            1.570312080128     0.229303870538     1.200593869358     1.007825032230
         H            0.352234080128     1.604975870538    -1.242323130642     1.007825032230
         H           -2.743707919872    -0.809736129462     0.960258869358     1.007825032230
         H           -3.047603919872    -1.428228129462    -0.675087130642     1.007825032230
         H           -0.404936919872    -0.775160129462     1.729930869358     1.007825032230
         H            2.961671080128    -1.562809129462    -0.353121130642     1.007825032230
         H            2.994306080128     1.591583870538     0.025992869358     1.007825032230
         H            0.104551080128     3.235827870538     0.327090869358     1.007825032230
         H           -3.096240919872     1.301851870538    -0.001864130642     1.007825032230

  Basis Set: AUG-CC-PVTZ
    Blend: AUG-CC-PVTZ
  Basis Set: (AUG-CC-PVTZ AUX)
    Blend: AUG-CC-PVTZ-JKFIT
	 Reference Energy          =    -683.6063261764315939 [Eh]
	 Singles Energy            =      -0.0000000000000000 [Eh]
	 Same-Spin Energy          =      -0.6656009862522028 [Eh]
	 Opposite-Spin Energy      =      -2.0432229424884261 [Eh]
	 Correlation Energy        =      -2.7088239287406291 [Eh]
	 Total Energy              =    -686.3151501051722789 [Eh]

	 ================> DF-SCS-MP2 Energies <==================
	-----------------------------------------------------------
	 SCS Same-Spin Scale       =       0.3333333333333333 [-]
	 SCS Opposite-Spin Scale   =       1.2000000000000000 [-]
	 SCS Same-Spin Energy      =      -0.2218669954174009 [Eh]
	 SCS Opposite-Spin Energy  =      -2.4518675309861111 [Eh]
	 SCS Correlation Energy    =      -2.6737345264035119 [Eh]
	 SCS Total Energy          =    -686.2800607028351578 [Eh]
	-----------------------------------------------------------

  Dipole Moment: [D]
     X:     0.1715      Y:     2.9903      Z:    -1.0204     Total:     3.1642

*** Psi4 exiting successfully. Buy a developer a beer!
