                               Psi4 1.3.2 release

  ==> Input File <==

--------------------------------------------------------------------------
#psi4
#
memory 32 gb

molecule  {
0 1
  O       -0.8456270     0.8862080     0.2793150
  O       -0.3079160    -1.6544620     1.3165970
  O        2.1058880    -1.9633380    -0.1734630
  O        2.7564030     0.7739560    -0.4353370
  O        0.7402180     2.5264820     0.5866940
  O       -3.5953303     0.4599896    -0.3950303
  C       -0.2340330    -1.4057570    -0.0828570
  C        1.1618270    -0.9690140    -0.5229560
  C       -1.2150640    -0.3000600    -0.4685780
  C        1.5092100     0.3624850     0.1183010
  C        0.4233390     1.3863000    -0.1554910
  C       -2.6607760    -0.5711350    -0.1020210
  H       -0.4877470    -2.3504840    -0.5773070
  H        1.1452800    -0.8176870    -1.6174030
  H       -1.1578680    -0.0786640    -1.5458690
  H        1.5875790     0.2279570     1.2063390
  H        0.3695010     1.6036290    -1.2365780
  H       -2.7264410    -0.8110830     0.9660040
  H       -3.0303370    -1.4295750    -0.6693420
  H       -0.3876700    -0.7765070     1.7356760
  H        2.9789380    -1.5641560    -0.3473760
  H        3.0115730     1.5902370     0.0317380
  H        0.1218180     3.2344810     0.3328360
  H       -3.0789740     1.3005050     0.0038810
units angstrom
no_reorient  #important for SAPT in psi4, default
symmetry c1  #important for SAPT in psi4, default
}

set PROPERTIES_ORIGIN ["COM"]
properties('MP2/aug-cc-pvtz', properties = ['dipole'])
--------------------------------------------------------------------------

    Molecular point group: c1
  Charge       = 0
  Multiplicity = 1
  Basis Set: AUG-CC-PVTZ
    Blend: AUG-CC-PVTZ
  Basis Set: (AUG-CC-PVTZ AUX)
    Blend: AUG-CC-PVTZ-JKFIT

    Orbital Energies [Eh]
    ---------------------

    Doubly Occupied:

       1A    -20.601600     2A    -20.597771     3A    -20.586655
       4A    -20.573705     5A    -20.566056     6A    -20.565440
       7A    -11.364303     8A    -11.308506     9A    -11.300454
      10A    -11.299410    11A    -11.296631    12A    -11.283391
      13A     -1.450001    14A     -1.393174    15A     -1.389314
      16A     -1.365382    17A     -1.355024    18A     -1.345727
      19A     -1.074528    20A     -1.052360    21A     -0.946133
      22A     -0.888969    23A     -0.845020    24A     -0.810400
      25A     -0.761049    26A     -0.737543    27A     -0.722146
      28A     -0.715203    29A     -0.681388    30A     -0.664572
      31A     -0.659610    32A     -0.640116    33A     -0.624371
      34A     -0.619573    35A     -0.591974    36A     -0.579332
      37A     -0.577160    38A     -0.564085    39A     -0.540770
      40A     -0.536891    41A     -0.530149    42A     -0.512557
      43A     -0.494026    44A     -0.485424    45A     -0.468129
      46A     -0.460878    47A     -0.445073    48A     -0.431903

  @DF-RHF Final Energy:  -683.59344522939512

   => Energetics <=

    Nuclear Repulsion Energy =            833.7743556127933289
    One-Electron Energy =               -2596.1278492184628703
    Two-Electron Energy =                1078.7600483762741987
    Total Energy =                       -683.5934452293952290
  Basis Set: (AUG-CC-PVTZ AUX)
    Blend: AUG-CC-PVTZ-RI
    Molecular point group: c1

    Geometry (in Angstrom), charge = 0, multiplicity = 1:

       Center              X                  Y                   Z               Mass
    ------------   -----------------  -----------------  -----------------  -----------------
         O           -0.844519461200     0.893874048724     0.265095824265    15.994914619570
         O           -0.306808461200    -1.646795951276     1.302377824265    15.994914619570
         O            2.106995538800    -1.955671951276    -0.187682175735    15.994914619570
         O            2.757510538800     0.781622048724    -0.449556175735    15.994914619570
         O            0.741325538800     2.534148048724     0.572474824265    15.994914619570
         O           -3.594222761200     0.467655648724    -0.409249475735    15.994914619570
         C           -0.232925461200    -1.398090951276    -0.097076175735    12.000000000000
         C            1.162934538800    -0.961347951276    -0.537175175735    12.000000000000
         C           -1.213956461200    -0.292393951276    -0.482797175735    12.000000000000
         C            1.510317538800     0.370151048724     0.104081824265    12.000000000000
         C            0.424446538800     1.393966048724    -0.169710175735    12.000000000000
         C           -2.659668461200    -0.563468951276    -0.116240175735    12.000000000000
         H           -0.486639461200    -2.342817951276    -0.591526175735     1.007825032230
         H            1.146387538800    -0.810020951276    -1.631622175735     1.007825032230
         H           -1.156760461200    -0.070997951276    -1.560088175735     1.007825032230
         H            1.588686538800     0.235623048724     1.192119824265     1.007825032230
         H            0.370608538800     1.611295048724    -1.250797175735     1.007825032230
         H           -2.725333461200    -0.803416951276     0.951784824265     1.007825032230
         H           -3.029229461200    -1.421908951276    -0.683561175735     1.007825032230
         H           -0.386562461200    -0.768840951276     1.721456824265     1.007825032230
         H            2.980045538800    -1.556489951276    -0.361595175735     1.007825032230
         H            3.012680538800     1.597903048724     0.017518824265     1.007825032230
         H            0.122925538800     3.242147048724     0.318616824265     1.007825032230
         H           -3.077866461200     1.308171048724    -0.010338175735     1.007825032230

  Basis Set: AUG-CC-PVTZ
    Blend: AUG-CC-PVTZ
  Basis Set: (AUG-CC-PVTZ AUX)
    Blend: AUG-CC-PVTZ-JKFIT
	 Reference Energy          =    -683.5934452293951153 [Eh]
	 Singles Energy            =      -0.0000000000000000 [Eh]
	 Same-Spin Energy          =      -0.6676455332887156 [Eh]
	 Opposite-Spin Energy      =      -2.0496975867674290 [Eh]
	 Correlation Energy        =      -2.7173431200561446 [Eh]
	 Total Energy              =    -686.3107883494512862 [Eh]

	 ================> DF-SCS-MP2 Energies <==================
	-----------------------------------------------------------
	 SCS Same-Spin Scale       =       0.3333333333333333 [-]
	 SCS Opposite-Spin Scale   =       1.2000000000000000 [-]
	 SCS Same-Spin Energy      =      -0.2225485110962385 [Eh]
	 SCS Opposite-Spin Energy  =      -2.4596371041209149 [Eh]
	 SCS Correlation Energy    =      -2.6821856152171533 [Eh]
	 SCS Total Energy          =    -686.2756308446122375 [Eh]
	-----------------------------------------------------------

  Dipole Moment: [D]
     X:     0.9631      Y:     3.2851      Z:    -1.2493     Total:     3.6442

*** Psi4 exiting successfully. Buy a developer a beer!
