                               Psi4 1.3.2 release

  ==> Input File <==

--------------------------------------------------------------------------
#psi4
#
memory 32 gb

molecule  {
0 1
  O       -0.8456270     0.8862080     0.2793150
  O       -0.3079160    -1.6544620     1.3165970
  O        2.1058880    -1.9633380    -0.1734630
  O        2.7564030     0.7739560    -0.4353370
  O        0.7402180     2.5264820     0.5866940
  O       -3.4805510     0.5379580    -0.4489300
  C       -0.2340330    -1.4057570    -0.0828570
  C        1.1618270    -0.9690140    -0.5229560
  C       -1.2150640    -0.3000600    -0.4685780
  C        1.5092100     0.3624850     0.1183010
  C        0.4233390     1.3863000    -0.1554910
  C       -2.6607760    -0.5711350    -0.1020210
  H       -0.4877470    -2.3504840    -0.5773070
  H        1.1422850    -0.7902971    -1.8154960
  H       -1.1578680    -0.0786640    -1.5458690
  H        1.5875790     0.2279570     1.2063390
  H        0.3695010     1.6036290    -1.2365780
  H       -2.7264410    -0.8110830     0.9660040
  H       -3.0303370    -1.4295750    -0.6693420
  H       -0.3876700    -0.7765070     1.7356760
  H        2.9789380    -1.5641560    -0.3473760
  H        3.0115730     1.5902370     0.0317380
  H        0.1218180     3.2344810     0.3328360
  H       -3.0789740     1.3005050     0.0038810
units angstrom
no_reorient  #important for SAPT in psi4, default
symmetry c1  #important for SAPT in psi4, default
}

set PROPERTIES_ORIGIN ["COM"]
properties('MP2/aug-cc-pvtz', properties = ['dipole'])
--------------------------------------------------------------------------

    Molecular point group: c1
  Charge       = 0
  Multiplicity = 1
  Basis Set: AUG-CC-PVTZ
    Blend: AUG-CC-PVTZ
  Basis Set: (AUG-CC-PVTZ AUX)
    Blend: AUG-CC-PVTZ-JKFIT

    Orbital Energies [Eh]
    ---------------------

    Doubly Occupied:

       1A    -20.600276     2A    -20.595027     3A    -20.585872
       4A    -20.569585     5A    -20.567476     6A    -20.564391
       7A    -11.362560     8A    -11.317837     9A    -11.304239
      10A    -11.301930    11A    -11.299059    12A    -11.285670
      13A     -1.448419    14A     -1.393215    15A     -1.389864
      16A     -1.368732    17A     -1.358604    18A     -1.353298
      19A     -1.070270    20A     -1.051578    21A     -0.947734
      22A     -0.887001    23A     -0.846877    24A     -0.801899
      25A     -0.759835    26A     -0.737634    27A     -0.718455
      28A     -0.711737    29A     -0.688899    30A     -0.660916
      31A     -0.657968    32A     -0.638862    33A     -0.623319
      34A     -0.619311    35A     -0.597949    36A     -0.578189
      37A     -0.576681    38A     -0.561262    39A     -0.540301
      40A     -0.535467    41A     -0.528366    42A     -0.512395
      43A     -0.495861    44A     -0.483649    45A     -0.469961
      46A     -0.454458    47A     -0.440177    48A     -0.429435

  @DF-RHF Final Energy:  -683.58825986305169

   => Energetics <=

    Nuclear Repulsion Energy =            834.8431695139836393
    One-Electron Energy =               -2598.2778541439565743
    Two-Electron Energy =                1079.8464247669212455
    Total Energy =                       -683.5882598630516895
  Basis Set: (AUG-CC-PVTZ AUX)
    Blend: AUG-CC-PVTZ-RI
    Molecular point group: c1

    Geometry (in Angstrom), charge = 0, multiplicity = 1:

       Center              X                  Y                   Z               Mass
    ------------   -----------------  -----------------  -----------------  -----------------
         O           -0.854698469198     0.886794863214     0.270992437645    15.994914619570
         O           -0.316987469198    -1.653875136786     1.308274437645    15.994914619570
         O            2.096816530802    -1.962751136786    -0.181785562355    15.994914619570
         O            2.747331530802     0.774542863214    -0.443659562355    15.994914619570
         O            0.731146530802     2.527068863214     0.578371437645    15.994914619570
         O           -3.489622469198     0.538544863214    -0.457252562355    15.994914619570
         C           -0.243104469198    -1.405170136786    -0.091179562355    12.000000000000
         C            1.152755530802    -0.968427136786    -0.531278562355    12.000000000000
         C           -1.224135469198    -0.299473136786    -0.476900562355    12.000000000000
         C            1.500138530802     0.363071863214     0.109978437645    12.000000000000
         C            0.414267530802     1.386886863214    -0.163813562355    12.000000000000
         C           -2.669847469198    -0.570548136786    -0.110343562355    12.000000000000
         H           -0.496818469198    -2.349897136786    -0.585629562355     1.007825032230
         H            1.133213530802    -0.789710236786    -1.823818562355     1.007825032230
         H           -1.166939469198    -0.078077136786    -1.554191562355     1.007825032230
         H            1.578507530802     0.228543863214     1.198016437645     1.007825032230
         H            0.360429530802     1.604215863214    -1.244900562355     1.007825032230
         H           -2.735512469198    -0.810496136786     0.957681437645     1.007825032230
         H           -3.039408469198    -1.428988136786    -0.677664562355     1.007825032230
         H           -0.396741469198    -0.775920136786     1.727353437645     1.007825032230
         H            2.969866530802    -1.563569136786    -0.355698562355     1.007825032230
         H            3.002501530802     1.590823863214     0.023415437645     1.007825032230
         H            0.112746530802     3.235067863214     0.324513437645     1.007825032230
         H           -3.088045469198     1.301091863214    -0.004441562355     1.007825032230

  Basis Set: AUG-CC-PVTZ
    Blend: AUG-CC-PVTZ
  Basis Set: (AUG-CC-PVTZ AUX)
    Blend: AUG-CC-PVTZ-JKFIT
	 Reference Energy          =    -683.5882598630516895 [Eh]
	 Singles Energy            =      -0.0000000000000000 [Eh]
	 Same-Spin Energy          =      -0.6668648161092842 [Eh]
	 Opposite-Spin Energy      =      -2.0483835446225087 [Eh]
	 Correlation Energy        =      -2.7152483607317928 [Eh]
	 Total Energy              =    -686.3035082237835240 [Eh]

	 ================> DF-SCS-MP2 Energies <==================
	-----------------------------------------------------------
	 SCS Same-Spin Scale       =       0.3333333333333333 [-]
	 SCS Opposite-Spin Scale   =       1.2000000000000000 [-]
	 SCS Same-Spin Energy      =      -0.2222882720364280 [Eh]
	 SCS Opposite-Spin Energy  =      -2.4580602535470102 [Eh]
	 SCS Correlation Energy    =      -2.6803485255834381 [Eh]
	 SCS Total Energy          =    -686.2686083886351298 [Eh]
	-----------------------------------------------------------

  Dipole Moment: [D]
     X:     0.7265      Y:     3.0989      Z:    -0.9222     Total:     3.3138

*** Psi4 exiting successfully. Buy a developer a beer!
