                               Psi4 1.3.2 release

  ==> Input File <==

--------------------------------------------------------------------------
#psi4
#
memory 32 gb

molecule  {
0 1
  O       -0.8483418     1.0001393     0.3766094
  O       -0.3079160    -1.6544620     1.3165970
  O        2.1058880    -1.9633380    -0.1734630
  O        2.7564030     0.7739560    -0.4353370
  O        0.7402180     2.5264820     0.5866940
  O       -3.4805510     0.5379580    -0.4489300
  C       -0.2340330    -1.4057570    -0.0828570
  C        1.1618270    -0.9690140    -0.5229560
  C       -1.2150640    -0.3000600    -0.4685780
  C        1.5092100     0.3624850     0.1183010
  C        0.4233390     1.3863000    -0.1554910
  C       -2.6607760    -0.5711350    -0.1020210
  H       -0.4877470    -2.3504840    -0.5773070
  H        1.1452800    -0.8176870    -1.6174030
  H       -1.1578680    -0.0786640    -1.5458690
  H        1.5875790     0.2279570     1.2063390
  H        0.3695010     1.6036290    -1.2365780
  H       -2.7264410    -0.8110830     0.9660040
  H       -3.0303370    -1.4295750    -0.6693420
  H       -0.3876700    -0.7765070     1.7356760
  H        2.9789380    -1.5641560    -0.3473760
  H        3.0115730     1.5902370     0.0317380
  H        0.1218180     3.2344810     0.3328360
  H       -3.0789740     1.3005050     0.0038810
units angstrom
no_reorient  #important for SAPT in psi4, default
symmetry c1  #important for SAPT in psi4, default
}

set PROPERTIES_ORIGIN ["COM"]
properties('MP2/aug-cc-pvtz', properties = ['dipole'])
--------------------------------------------------------------------------

    Molecular point group: c1
  Charge       = 0
  Multiplicity = 1
  Basis Set: AUG-CC-PVTZ
    Blend: AUG-CC-PVTZ
  Basis Set: (AUG-CC-PVTZ AUX)
    Blend: AUG-CC-PVTZ-JKFIT

    Orbital Energies [Eh]
    ---------------------

    Doubly Occupied:

       1A    -20.596129     2A    -20.588197     3A    -20.585762
       4A    -20.567756     5A    -20.565745     6A    -20.565565
       7A    -11.357113     8A    -11.317836     9A    -11.304846
      10A    -11.299094    11A    -11.297195    12A    -11.290399
      13A     -1.436243    14A     -1.392184    15A     -1.381439
      16A     -1.367336    17A     -1.356796    18A     -1.334386
      19A     -1.080797    20A     -1.044934    21A     -0.951820
      22A     -0.885093    23A     -0.844532    24A     -0.808414
      25A     -0.756653    26A     -0.727946    27A     -0.718971
      28A     -0.713085    29A     -0.683947    30A     -0.663380
      31A     -0.658357    32A     -0.638278    33A     -0.623406
      34A     -0.611729    35A     -0.601733    36A     -0.583454
      37A     -0.569306    38A     -0.562324    39A     -0.540194
      40A     -0.536886    41A     -0.519152    42A     -0.505692
      43A     -0.492339    44A     -0.488736    45A     -0.473435
      46A     -0.460902    47A     -0.445614    48A     -0.435987

  @DF-RHF Final Energy:  -683.58934258708132

   => Energetics <=

    Nuclear Repulsion Energy =            832.5480410215800475
    One-Electron Energy =               -2593.8125322724313264
    Two-Electron Energy =                1077.6751486637699600
    Total Energy =                       -683.5893425870813189
  Basis Set: (AUG-CC-PVTZ AUX)
    Blend: AUG-CC-PVTZ-RI
    Molecular point group: c1

    Geometry (in Angstrom), charge = 0, multiplicity = 1:

       Center              X                  Y                   Z               Mass
    ------------   -----------------  -----------------  -----------------  -----------------
         O           -0.857188878451     0.990759022153     0.358535501054    15.994914619570
         O           -0.316763078451    -1.663842277847     1.298523101054    15.994914619570
         O            2.097040921549    -1.972718277847    -0.191536898946    15.994914619570
         O            2.747555921549     0.764575722153    -0.453410898946    15.994914619570
         O            0.731370921549     2.517101722153     0.568620101054    15.994914619570
         O           -3.489398078451     0.528577722153    -0.467003898946    15.994914619570
         C           -0.242880078451    -1.415137277847    -0.100930898946    12.000000000000
         C            1.152979921549    -0.978394277847    -0.541029898946    12.000000000000
         C           -1.223911078451    -0.309440277847    -0.486651898946    12.000000000000
         C            1.500362921549     0.353104722153     0.100227101054    12.000000000000
         C            0.414491921549     1.376919722153    -0.173564898946    12.000000000000
         C           -2.669623078451    -0.580515277847    -0.120094898946    12.000000000000
         H           -0.496594078451    -2.359864277847    -0.595380898946     1.007825032230
         H            1.136432921549    -0.827067277847    -1.635476898946     1.007825032230
         H           -1.166715078451    -0.088044277847    -1.563942898946     1.007825032230
         H            1.578731921549     0.218576722153     1.188265101054     1.007825032230
         H            0.360653921549     1.594248722153    -1.254651898946     1.007825032230
         H           -2.735288078451    -0.820463277847     0.947930101054     1.007825032230
         H           -3.039184078451    -1.438955277847    -0.687415898946     1.007825032230
         H           -0.396517078451    -0.785887277847     1.717602101054     1.007825032230
         H            2.970090921549    -1.573536277847    -0.365449898946     1.007825032230
         H            3.002725921549     1.580856722153     0.013664101054     1.007825032230
         H            0.112970921549     3.225100722153     0.314762101054     1.007825032230
         H           -3.087821078451     1.291124722153    -0.014192898946     1.007825032230

  Basis Set: AUG-CC-PVTZ
    Blend: AUG-CC-PVTZ
  Basis Set: (AUG-CC-PVTZ AUX)
    Blend: AUG-CC-PVTZ-JKFIT
	 Reference Energy          =    -683.5893425870813189 [Eh]
	 Singles Energy            =      -0.0000000000000000 [Eh]
	 Same-Spin Energy          =      -0.6676199125176163 [Eh]
	 Opposite-Spin Energy      =      -2.0509376536473418 [Eh]
	 Correlation Energy        =      -2.7185575661649581 [Eh]
	 Total Energy              =    -686.3079001532462371 [Eh]

	 ================> DF-SCS-MP2 Energies <==================
	-----------------------------------------------------------
	 SCS Same-Spin Scale       =       0.3333333333333333 [-]
	 SCS Opposite-Spin Scale   =       1.2000000000000000 [-]
	 SCS Same-Spin Energy      =      -0.2225399708392054 [Eh]
	 SCS Opposite-Spin Energy  =      -2.4611251843768103 [Eh]
	 SCS Correlation Energy    =      -2.6836651552160156 [Eh]
	 SCS Total Energy          =    -686.2730077422972954 [Eh]
	-----------------------------------------------------------

  Dipole Moment: [D]
     X:     0.5910      Y:     2.7098      Z:    -1.3252     Total:     3.0738

*** Psi4 exiting successfully. Buy a developer a beer!
