                               Psi4 1.3.2 release

  ==> Input File <==

--------------------------------------------------------------------------
#psi4
#
memory 32 gb

molecule  {
0 1
  O       -0.8456270     0.8862080     0.2793150
  O       -0.3079160    -1.6544620     1.3165970
  O        2.1058880    -1.9633380    -0.1734630
  O        2.7564030     0.7739560    -0.4353370
  O        0.7402180     2.5264820     0.5866940
  O       -3.4805510     0.5379580    -0.4489300
  C       -0.2340330    -1.4057570    -0.0828570
  C        0.9790474    -1.0262029    -0.4653276
  C       -1.2150640    -0.3000600    -0.4685780
  C        1.5092100     0.3624850     0.1183010
  C        0.4233390     1.3863000    -0.1554910
  C       -2.6607760    -0.5711350    -0.1020210
  H       -0.4877470    -2.3504840    -0.5773070
  H        1.1452800    -0.8176870    -1.6174030
  H       -1.1578680    -0.0786640    -1.5458690
  H        1.5875790     0.2279570     1.2063390
  H        0.3695010     1.6036290    -1.2365780
  H       -2.7264410    -0.8110830     0.9660040
  H       -3.0303370    -1.4295750    -0.6693420
  H       -0.3876700    -0.7765070     1.7356760
  H        2.9789380    -1.5641560    -0.3473760
  H        3.0115730     1.5902370     0.0317380
  H        0.1218180     3.2344810     0.3328360
  H       -3.0789740     1.3005050     0.0038810
units angstrom
no_reorient  #important for SAPT in psi4, default
symmetry c1  #important for SAPT in psi4, default
}

set PROPERTIES_ORIGIN ["COM"]
properties('MP2/aug-cc-pvtz', properties = ['dipole'])
--------------------------------------------------------------------------

    Molecular point group: c1
  Charge       = 0
  Multiplicity = 1
  Basis Set: AUG-CC-PVTZ
    Blend: AUG-CC-PVTZ
  Basis Set: (AUG-CC-PVTZ AUX)
    Blend: AUG-CC-PVTZ-JKFIT

    Orbital Energies [Eh]
    ---------------------

    Doubly Occupied:

       1A    -20.599138     2A    -20.598313     3A    -20.588703
       4A    -20.568739     5A    -20.567460     6A    -20.551325
       7A    -11.361195     8A    -11.311446     9A    -11.305216
      10A    -11.304603    11A    -11.291932    12A    -11.289419
      13A     -1.450065    14A     -1.393571    15A     -1.386917
      16A     -1.371372    17A     -1.356908    18A     -1.328390
      19A     -1.107173    20A     -1.050101    21A     -0.969293
      22A     -0.878968    23A     -0.856312    24A     -0.804117
      25A     -0.758449    26A     -0.742787    27A     -0.721034
      28A     -0.715814    29A     -0.689505    30A     -0.671811
      31A     -0.657641    32A     -0.645204    33A     -0.633928
      34A     -0.620863    35A     -0.601369    36A     -0.579727
      37A     -0.575891    38A     -0.554783    39A     -0.534409
      40A     -0.530245    41A     -0.525780    42A     -0.513655
      43A     -0.498168    44A     -0.482446    45A     -0.475546
      46A     -0.458380    47A     -0.441448    48A     -0.423459

  @DF-RHF Final Energy:  -683.55549595312630

   => Energetics <=

    Nuclear Repulsion Energy =            837.4819043141361590
    One-Electron Energy =               -2603.3887638983064789
    Two-Electron Energy =                1082.3513636310442507
    Total Energy =                       -683.5554959531261829
  Basis Set: (AUG-CC-PVTZ AUX)
    Blend: AUG-CC-PVTZ-RI
    Molecular point group: c1

    Geometry (in Angstrom), charge = 0, multiplicity = 1:

       Center              X                  Y                   Z               Mass
    ------------   -----------------  -----------------  -----------------  -----------------
         O           -0.842534215337     0.890759417221     0.266043158986    15.994914619570
         O           -0.304823215337    -1.649910582779     1.303325158986    15.994914619570
         O            2.108980784663    -1.958786582779    -0.186734841014    15.994914619570
         O            2.759495784663     0.778507417221    -0.448608841014    15.994914619570
         O            0.743310784663     2.531033417221     0.573422158986    15.994914619570
         O           -3.477458215337     0.542509417221    -0.462201841014    15.994914619570
         C           -0.230940215337    -1.401205582779    -0.096128841014    12.000000000000
         C            0.982140184663    -1.021651482779    -0.478599441014    12.000000000000
         C           -1.211971215337    -0.295508582779    -0.481849841014    12.000000000000
         C            1.512302784663     0.367036417221     0.105029158986    12.000000000000
         C            0.426431784663     1.390851417221    -0.168762841014    12.000000000000
         C           -2.657683215337    -0.566583582779    -0.115292841014    12.000000000000
         H           -0.484654215337    -2.345932582779    -0.590578841014     1.007825032230
         H            1.148372784663    -0.813135582779    -1.630674841014     1.007825032230
         H           -1.154775215337    -0.074112582779    -1.559140841014     1.007825032230
         H            1.590671784663     0.232508417221     1.193067158986     1.007825032230
         H            0.372593784663     1.608180417221    -1.249849841014     1.007825032230
         H           -2.723348215337    -0.806531582779     0.952732158986     1.007825032230
         H           -3.027244215337    -1.425023582779    -0.682613841014     1.007825032230
         H           -0.384577215337    -0.771955582779     1.722404158986     1.007825032230
         H            2.982030784663    -1.559604582779    -0.360647841014     1.007825032230
         H            3.014665784663     1.594788417221     0.018466158986     1.007825032230
         H            0.124910784663     3.239032417221     0.319564158986     1.007825032230
         H           -3.075881215337     1.305056417221    -0.009390841014     1.007825032230

  Basis Set: AUG-CC-PVTZ
    Blend: AUG-CC-PVTZ
  Basis Set: (AUG-CC-PVTZ AUX)
    Blend: AUG-CC-PVTZ-JKFIT
	 Reference Energy          =    -683.5554959531262966 [Eh]
	 Singles Energy            =      -0.0000000000000000 [Eh]
	 Same-Spin Energy          =      -0.6690382130148245 [Eh]
	 Opposite-Spin Energy      =      -2.0508437841394205 [Eh]
	 Correlation Energy        =      -2.7198819971542449 [Eh]
	 Total Energy              =    -686.2753779502805855 [Eh]

	 ================> DF-SCS-MP2 Energies <==================
	-----------------------------------------------------------
	 SCS Same-Spin Scale       =       0.3333333333333333 [-]
	 SCS Opposite-Spin Scale   =       1.2000000000000000 [-]
	 SCS Same-Spin Energy      =      -0.2230127376716081 [Eh]
	 SCS Opposite-Spin Energy  =      -2.4610125409673045 [Eh]
	 SCS Correlation Energy    =      -2.6840252786389125 [Eh]
	 SCS Total Energy          =    -686.2395212317652522 [Eh]
	-----------------------------------------------------------

  Dipole Moment: [D]
     X:     0.2862      Y:     3.3079      Z:    -1.0975     Total:     3.4969

*** Psi4 exiting successfully. Buy a developer a beer!
