                               Psi4 1.4a3.dev225

  ==> Input File <==

--------------------------------------------------------------------------
#psi4
#
memory 32 gb

molecule  {
0 1
  O       -0.8456650     0.8861440     0.2793920
  O       -0.3077290    -1.6543970     1.3165920
  O        2.1058490    -1.9633390    -0.1734930
  O        2.7563870     0.7740080    -0.4352340
  O        0.7401070     2.5265290     0.5865970
  O       -3.4805150     0.5379850    -0.4487790
  C       -0.2340150    -1.4057960    -0.0828600
  C        1.1801187    -0.9632967    -0.5287552
  C       -1.2150830    -0.3001220    -0.4685840
  C        1.5091960     0.3624950     0.1183140
  C        0.4232960     1.3863010    -0.1554910
  C       -2.6608140    -0.5711940    -0.1020800
  H       -0.4877200    -2.3505680    -0.5772350
  H        1.1452880    -0.8176810    -1.6174430
  H       -1.1578130    -0.0786490    -1.5458470
  H        1.5874550     0.2279380     1.2063560
  H        0.3693510     1.6035860    -1.2365730
  H       -2.7265370    -0.8113720     0.9658980
  H       -3.0304070    -1.4295080    -0.6695770
  H       -0.3878110    -0.7763940     1.7355090
  H        2.9789120    -1.5642300    -0.3474430
  H        3.0116250     1.5901680     0.0320000
  H        0.1223170     3.2347930     0.3320250
  H       -3.0786550     1.3004670     0.0038890
units angstrom
no_reorient  #important for SAPT in psi4, default
symmetry c1  #important for SAPT in psi4, default
}

set PROPERTIES_ORIGIN ["COM"]
properties('MP2/aug-cc-pvtz', properties = ['dipole'])
--------------------------------------------------------------------------

    Molecular point group: c1
  Charge       = 0
  Multiplicity = 1
  Basis Set: AUG-CC-PVTZ
    Blend: AUG-CC-PVTZ
  Basis Set: (AUG-CC-PVTZ AUX)
    Blend: AUG-CC-PVTZ-JKFIT

    Orbital Energies [Eh]
    ---------------------

    Doubly Occupied:

       1A    -20.600297     2A    -20.594756     3A    -20.585075
       4A    -20.565308     5A    -20.564926     6A    -20.564232
       7A    -11.362696     8A    -11.304208     9A    -11.298583
      10A    -11.297011    11A    -11.294298    12A    -11.285522
      13A     -1.448144    14A     -1.393063    15A     -1.388799
      16A     -1.367833    17A     -1.357983    18A     -1.352355
      19A     -1.070845    20A     -1.051565    21A     -0.946868
      22A     -0.888279    23A     -0.847800    24A     -0.809119
      25A     -0.760031    26A     -0.736609    27A     -0.722293
      28A     -0.714026    29A     -0.689749    30A     -0.666151
      31A     -0.658775    32A     -0.639720    33A     -0.621993
      34A     -0.618679    35A     -0.598641    36A     -0.581024
      37A     -0.575917    38A     -0.563722    39A     -0.541008
      40A     -0.535017    41A     -0.528151    42A     -0.511699
      43A     -0.495691    44A     -0.483284    45A     -0.469042
      46A     -0.460774    47A     -0.445290    48A     -0.427924

  @DF-RHF Final Energy:  -683.60789705324726

   => Energetics <=

    Nuclear Repulsion Energy =            835.8065547841667922
    One-Electron Energy =               -2600.2593522872966787
    Two-Electron Energy =                1080.8449004498827435
    Total Energy =                       -683.6078970532471430
  Basis Set: (AUG-CC-PVTZ AUX)
    Blend: AUG-CC-PVTZ-RI
    Molecular point group: c1

    Geometry (in Angstrom), charge = 0, multiplicity = 1:

       Center              X                  Y                   Z               Mass
    ------------   -----------------  -----------------  -----------------  -----------------
         O           -0.855969515538     0.886502460723     0.270338986355    15.994914619570
         O           -0.318033515538    -1.654038539277     1.307538986355    15.994914619570
         O            2.095544484462    -1.962980539277    -0.182546013645    15.994914619570
         O            2.746082484462     0.774366460723    -0.444287013645    15.994914619570
         O            0.729802484462     2.526887460723     0.577543986355    15.994914619570
         O           -3.490819515538     0.538343460723    -0.457832013645    15.994914619570
         C           -0.244319515538    -1.405437539277    -0.091913013645    12.000000000000
         C            1.169814184462    -0.962938239277    -0.537808213645    12.000000000000
         C           -1.225387515538    -0.299763539277    -0.477637013645    12.000000000000
         C            1.498891484462     0.362853460723     0.109260986355    12.000000000000
         C            0.412991484462     1.386659460723    -0.164544013645    12.000000000000
         C           -2.671118515538    -0.570835539277    -0.111133013645    12.000000000000
         H           -0.498024515538    -2.350209539277    -0.586288013645     1.007825032230
         H            1.134983484462    -0.817322539277    -1.626496013645     1.007825032230
         H           -1.168117515538    -0.078290539277    -1.554900013645     1.007825032230
         H            1.577150484462     0.228296460723     1.197302986355     1.007825032230
         H            0.359046484462     1.603944460723    -1.245626013645     1.007825032230
         H           -2.736841515538    -0.811013539277     0.956844986355     1.007825032230
         H           -3.040711515538    -1.429149539277    -0.678630013645     1.007825032230
         H           -0.398115515538    -0.776035539277     1.726455986355     1.007825032230
         H            2.968607484462    -1.563871539277    -0.356496013645     1.007825032230
         H            3.001320484462     1.590526460723     0.022946986355     1.007825032230
         H            0.112012484462     3.235151460723     0.322971986355     1.007825032230
         H           -3.088959515538     1.300825460723    -0.005164013645     1.007825032230

  Basis Set: AUG-CC-PVTZ
    Blend: AUG-CC-PVTZ
  Basis Set: (AUG-CC-PVTZ AUX)
    Blend: AUG-CC-PVTZ-JKFIT
	 Reference Energy          =    -683.6078970532472567 [Eh]
	 Singles Energy            =      -0.0000000000000000 [Eh]
	 Same-Spin Energy          =      -0.6663333425896784 [Eh]
	 Opposite-Spin Energy      =      -2.0461772991125606 [Eh]
	 Correlation Energy        =      -2.7125106417022389 [Eh]
	 Total Energy              =    -686.3204076949494947 [Eh]

	 ================> DF-SCS-MP2 Energies <==================
	-----------------------------------------------------------
	 SCS Same-Spin Scale       =       0.3333333333333333 [-]
	 SCS Opposite-Spin Scale   =       1.2000000000000000 [-]
	 SCS Same-Spin Energy      =      -0.2221111141965594 [Eh]
	 SCS Opposite-Spin Energy  =      -2.4554127589350725 [Eh]
	 SCS Correlation Energy    =      -2.6775238731316318 [Eh]
	 SCS Total Energy          =    -686.2854209263788334 [Eh]
	-----------------------------------------------------------

  Dipole Moment: [D]
     X:     0.6973      Y:     3.1430      Z:    -1.0985     Total:     3.4017

*** Psi4 exiting successfully. Buy a developer a beer!
