                               Psi4 1.3.2 release

  ==> Input File <==

--------------------------------------------------------------------------
#psi4
#
memory 32 gb

molecule  {
0 1
  O       -0.8266406     0.8733046     0.2899747
  O       -0.3079160    -1.6544620     1.3165970
  O        2.1058880    -1.9633380    -0.1734630
  O        2.7564030     0.7739560    -0.4353370
  O        0.7402180     2.5264820     0.5866940
  O       -3.4805510     0.5379580    -0.4489300
  C       -0.2340330    -1.4057570    -0.0828570
  C        1.1618270    -0.9690140    -0.5229560
  C       -1.2150640    -0.3000600    -0.4685780
  C        1.5092100     0.3624850     0.1183010
  C        0.4233390     1.3863000    -0.1554910
  C       -2.6607760    -0.5711350    -0.1020210
  H       -0.4877470    -2.3504840    -0.5773070
  H        1.1452800    -0.8176870    -1.6174030
  H       -1.1578680    -0.0786640    -1.5458690
  H        1.5875790     0.2279570     1.2063390
  H        0.3695010     1.6036290    -1.2365780
  H       -2.7264410    -0.8110830     0.9660040
  H       -3.0303370    -1.4295750    -0.6693420
  H       -0.3876700    -0.7765070     1.7356760
  H        2.9789380    -1.5641560    -0.3473760
  H        3.0115730     1.5902370     0.0317380
  H        0.1218180     3.2344810     0.3328360
  H       -3.0789740     1.3005050     0.0038810
units angstrom
no_reorient  #important for SAPT in psi4, default
symmetry c1  #important for SAPT in psi4, default
}

set PROPERTIES_ORIGIN ["COM"]
properties('MP2/aug-cc-pvtz', properties = ['dipole'])
--------------------------------------------------------------------------

    Molecular point group: c1
  Charge       = 0
  Multiplicity = 1
  Basis Set: AUG-CC-PVTZ
    Blend: AUG-CC-PVTZ
  Basis Set: (AUG-CC-PVTZ AUX)
    Blend: AUG-CC-PVTZ-JKFIT

    Orbital Energies [Eh]
    ---------------------

    Doubly Occupied:

       1A    -20.599817     2A    -20.594829     3A    -20.584392
       4A    -20.565381     5A    -20.564622     6A    -20.563756
       7A    -11.361692     8A    -11.305336     9A    -11.297826
      10A    -11.296408    11A    -11.294453    12A    -11.286583
      13A     -1.449984    14A     -1.391388    15A     -1.389079
      16A     -1.367715    17A     -1.357228    18A     -1.352203
      19A     -1.072378    20A     -1.052259    21A     -0.948695
      22A     -0.887044    23A     -0.849123    24A     -0.809094
      25A     -0.759181    26A     -0.737227    27A     -0.722001
      28A     -0.715089    29A     -0.690065    30A     -0.666001
      31A     -0.658245    32A     -0.640435    33A     -0.623369
      34A     -0.619006    35A     -0.598761    36A     -0.580362
      37A     -0.575515    38A     -0.562640    39A     -0.540056
      40A     -0.534623    41A     -0.528516    42A     -0.511915
      43A     -0.496901    44A     -0.482921    45A     -0.470185
      46A     -0.459618    47A     -0.444448    48A     -0.429432

  @DF-RHF Final Energy:  -683.60858249576165

   => Energetics <=

    Nuclear Repulsion Energy =            836.3649990333258302
    One-Electron Energy =               -2601.3715662828876702
    Two-Electron Energy =                1081.3979847538000740
    Total Energy =                       -683.6085824957617660
  Basis Set: (AUG-CC-PVTZ AUX)
    Blend: AUG-CC-PVTZ-RI
    Molecular point group: c1

    Geometry (in Angstrom), charge = 0, multiplicity = 1:

       Center              X                  Y                   Z               Mass
    ------------   -----------------  -----------------  -----------------  -----------------
         O           -0.837415382049     0.875190966742     0.279596505574    15.994914619570
         O           -0.318690782049    -1.652575633258     1.306218805574    15.994914619570
         O            2.095113217951    -1.961451633258    -0.183841194426    15.994914619570
         O            2.745628217951     0.775842366742    -0.445715194426    15.994914619570
         O            0.729443217951     2.528368366742     0.576315805574    15.994914619570
         O           -3.491325782049     0.539844366742    -0.459308194426    15.994914619570
         C           -0.244807782049    -1.403870633258    -0.093235194426    12.000000000000
         C            1.151052217951    -0.967127633258    -0.533334194426    12.000000000000
         C           -1.225838782049    -0.298173633258    -0.478956194426    12.000000000000
         C            1.498435217951     0.364371366742     0.107922805574    12.000000000000
         C            0.412564217951     1.388186366742    -0.165869194426    12.000000000000
         C           -2.671550782049    -0.569248633258    -0.112399194426    12.000000000000
         H           -0.498521782049    -2.348597633258    -0.587685194426     1.007825032230
         H            1.134505217951    -0.815800633258    -1.627781194426     1.007825032230
         H           -1.168642782049    -0.076777633258    -1.556247194426     1.007825032230
         H            1.576804217951     0.229843366742     1.195960805574     1.007825032230
         H            0.358726217951     1.605515366742    -1.246956194426     1.007825032230
         H           -2.737215782049    -0.809196633258     0.955625805574     1.007825032230
         H           -3.041111782049    -1.427688633258    -0.679720194426     1.007825032230
         H           -0.398444782049    -0.774620633258     1.725297805574     1.007825032230
         H            2.968163217951    -1.562269633258    -0.357754194426     1.007825032230
         H            3.000798217951     1.592123366742     0.021359805574     1.007825032230
         H            0.111043217951     3.236367366742     0.322457805574     1.007825032230
         H           -3.089748782049     1.302391366742    -0.006497194426     1.007825032230

  Basis Set: AUG-CC-PVTZ
    Blend: AUG-CC-PVTZ
  Basis Set: (AUG-CC-PVTZ AUX)
    Blend: AUG-CC-PVTZ-JKFIT
	 Reference Energy          =    -683.6085824957616524 [Eh]
	 Singles Energy            =      -0.0000000000000000 [Eh]
	 Same-Spin Energy          =      -0.6662882931413044 [Eh]
	 Opposite-Spin Energy      =      -2.0459071229805330 [Eh]
	 Correlation Energy        =      -2.7121954161218373 [Eh]
	 Total Energy              =    -686.3207779118835106 [Eh]

	 ================> DF-SCS-MP2 Energies <==================
	-----------------------------------------------------------
	 SCS Same-Spin Scale       =       0.3333333333333333 [-]
	 SCS Opposite-Spin Scale   =       1.2000000000000000 [-]
	 SCS Same-Spin Energy      =      -0.2220960977137681 [Eh]
	 SCS Opposite-Spin Energy  =      -2.4550885475766395 [Eh]
	 SCS Correlation Energy    =      -2.6771846452904078 [Eh]
	 SCS Total Energy          =    -686.2857671410520197 [Eh]
	-----------------------------------------------------------

  Dipole Moment: [D]
     X:     0.5875      Y:     3.1730      Z:    -1.1185     Total:     3.4153

*** Psi4 exiting successfully. Buy a developer a beer!
