                               Psi4 1.4a3.dev225

  ==> Input File <==

--------------------------------------------------------------------------
#psi4
#
memory 32 gb

molecule  {
0 1
  O       -0.8456650     0.8861440     0.2793920
  O       -0.3077290    -1.6543970     1.3165920
  O        2.1058490    -1.9633390    -0.1734930
  O        2.7563870     0.7740080    -0.4352340
  O        0.7401070     2.5265290     0.5865970
  O       -3.4805150     0.5379850    -0.4487790
  C       -0.2340150    -1.4057960    -0.0828600
  C        1.1618410    -0.9690160    -0.5229920
  C       -1.2150830    -0.3001220    -0.4685840
  C        1.5091960     0.3624950     0.1183140
  C        0.4232960     1.3863010    -0.1554910
  C       -2.6319940    -0.6101917    -0.0898904
  H       -0.4877200    -2.3505680    -0.5772350
  H        1.1452880    -0.8176810    -1.6174430
  H       -1.1578130    -0.0786490    -1.5458470
  H        1.5874550     0.2279380     1.2063560
  H        0.3693510     1.6035860    -1.2365730
  H       -2.7265370    -0.8113720     0.9658980
  H       -3.0304070    -1.4295080    -0.6695770
  H       -0.3878110    -0.7763940     1.7355090
  H        2.9789120    -1.5642300    -0.3474430
  H        3.0116250     1.5901680     0.0320000
  H        0.1223170     3.2347930     0.3320250
  H       -3.0786550     1.3004670     0.0038890
units angstrom
no_reorient  #important for SAPT in psi4, default
symmetry c1  #important for SAPT in psi4, default
}

set PROPERTIES_ORIGIN ["COM"]
properties('MP2/aug-cc-pvtz', properties = ['dipole'])
--------------------------------------------------------------------------

    Molecular point group: c1
  Charge       = 0
  Multiplicity = 1
  Basis Set: AUG-CC-PVTZ
    Blend: AUG-CC-PVTZ
  Basis Set: (AUG-CC-PVTZ AUX)
    Blend: AUG-CC-PVTZ-JKFIT

    Orbital Energies [Eh]
    ---------------------

    Doubly Occupied:

       1A    -20.600613     2A    -20.595931     3A    -20.585788
       4A    -20.566316     5A    -20.564465     6A    -20.559369
       7A    -11.363196     8A    -11.306187     9A    -11.299448
      10A    -11.297425    11A    -11.295251    12A    -11.285456
      13A     -1.448783    14A     -1.392285    15A     -1.388847
      16A     -1.364615    17A     -1.354544    18A     -1.341042
      19A     -1.074750    20A     -1.054962    21A     -0.951635
      22A     -0.888106    23A     -0.849391    24A     -0.809580
      25A     -0.760269    26A     -0.736229    27A     -0.722691
      28A     -0.715481    29A     -0.684885    30A     -0.664779
      31A     -0.658883    32A     -0.639696    33A     -0.623713
      34A     -0.618300    35A     -0.593682    36A     -0.580629
      37A     -0.573860    38A     -0.562178    39A     -0.540708
      40A     -0.534676    41A     -0.527113    42A     -0.514680
      43A     -0.498414    44A     -0.483741    45A     -0.472030
      46A     -0.460751    47A     -0.446176    48A     -0.431351

  @DF-RHF Final Energy:  -683.60539233350528

   => Energetics <=

    Nuclear Repulsion Energy =            835.9247603754052989
    One-Electron Energy =               -2600.4944992476866901
    Two-Electron Energy =                1080.9643465387762262
    Total Energy =                       -683.6053923335052787
  Basis Set: (AUG-CC-PVTZ AUX)
    Blend: AUG-CC-PVTZ-RI
    Molecular point group: c1

    Geometry (in Angstrom), charge = 0, multiplicity = 1:

       Center              X                  Y                   Z               Mass
    ------------   -----------------  -----------------  -----------------  -----------------
         O           -0.856672088123     0.889482544601     0.269142554353    15.994914619570
         O           -0.318736088123    -1.651058455399     1.306342554353    15.994914619570
         O            2.094841911877    -1.960000455399    -0.183742445647    15.994914619570
         O            2.745379911877     0.777346544601    -0.445483445647    15.994914619570
         O            0.729099911877     2.529867544601     0.576347554353    15.994914619570
         O           -3.491522088123     0.541323544601    -0.459028445647    15.994914619570
         C           -0.245022088123    -1.402457455399    -0.093109445647    12.000000000000
         C            1.150833911877    -0.965677455399    -0.533241445647    12.000000000000
         C           -1.226090088123    -0.296783455399    -0.478833445647    12.000000000000
         C            1.498188911877     0.365833544601     0.108064554353    12.000000000000
         C            0.412288911877     1.389639544601    -0.165740445647    12.000000000000
         C           -2.643001088123    -0.606853155399    -0.100139845647    12.000000000000
         H           -0.498727088123    -2.347229455399    -0.587484445647     1.007825032230
         H            1.134280911877    -0.814342455399    -1.627692445647     1.007825032230
         H           -1.168820088123    -0.075310455399    -1.556096445647     1.007825032230
         H            1.576447911877     0.231276544601     1.196106554353     1.007825032230
         H            0.358343911877     1.606924544601    -1.246822445647     1.007825032230
         H           -2.737544088123    -0.808033455399     0.955648554353     1.007825032230
         H           -3.041414088123    -1.426169455399    -0.679826445647     1.007825032230
         H           -0.398818088123    -0.773055455399     1.725259554353     1.007825032230
         H            2.967904911877    -1.560891455399    -0.357692445647     1.007825032230
         H            3.000617911877     1.593506544601     0.021750554353     1.007825032230
         H            0.111309911877     3.238131544601     0.321775554353     1.007825032230
         H           -3.089662088123     1.303805544601    -0.006360445647     1.007825032230

  Basis Set: AUG-CC-PVTZ
    Blend: AUG-CC-PVTZ
  Basis Set: (AUG-CC-PVTZ AUX)
    Blend: AUG-CC-PVTZ-JKFIT
	 Reference Energy          =    -683.6053923335052787 [Eh]
	 Singles Energy            =      -0.0000000000000000 [Eh]
	 Same-Spin Energy          =      -0.6665041533022757 [Eh]
	 Opposite-Spin Energy      =      -2.0470965420651157 [Eh]
	 Correlation Energy        =      -2.7136006953673917 [Eh]
	 Total Energy              =    -686.3189930288726828 [Eh]

	 ================> DF-SCS-MP2 Energies <==================
	-----------------------------------------------------------
	 SCS Same-Spin Scale       =       0.3333333333333333 [-]
	 SCS Opposite-Spin Scale   =       1.2000000000000000 [-]
	 SCS Same-Spin Energy      =      -0.2221680511007586 [Eh]
	 SCS Opposite-Spin Energy  =      -2.4565158504781386 [Eh]
	 SCS Correlation Energy    =      -2.6786839015788972 [Eh]
	 SCS Total Energy          =    -686.2840762350841715 [Eh]
	-----------------------------------------------------------

  Dipole Moment: [D]
     X:     0.7815      Y:     3.0355      Z:    -1.0650     Total:     3.3105

*** Psi4 exiting successfully. Buy a developer a beer!
