                               Psi4 1.3.2 release

  ==> Input File <==

--------------------------------------------------------------------------
#psi4
#
memory 32 gb

molecule  {
0 1
  O       -0.8456270     0.8862080     0.2793150
  O       -0.3079160    -1.6544620     1.3165970
  O        2.1058880    -1.9633380    -0.1734630
  O        2.7564030     0.7739560    -0.4353370
  O        0.7402180     2.5264820     0.5866940
  O       -3.4805510     0.5379580    -0.4489300
  C       -0.2411954    -1.3087893    -0.0624763
  C        1.1618270    -0.9690140    -0.5229560
  C       -1.2150640    -0.3000600    -0.4685780
  C        1.5092100     0.3624850     0.1183010
  C        0.4233390     1.3863000    -0.1554910
  C       -2.6607760    -0.5711350    -0.1020210
  H       -0.4877470    -2.3504840    -0.5773070
  H        1.1452800    -0.8176870    -1.6174030
  H       -1.1578680    -0.0786640    -1.5458690
  H        1.5875790     0.2279570     1.2063390
  H        0.3695010     1.6036290    -1.2365780
  H       -2.7264410    -0.8110830     0.9660040
  H       -3.0303370    -1.4295750    -0.6693420
  H       -0.3876700    -0.7765070     1.7356760
  H        2.9789380    -1.5641560    -0.3473760
  H        3.0115730     1.5902370     0.0317380
  H        0.1218180     3.2344810     0.3328360
  H       -3.0789740     1.3005050     0.0038810
units angstrom
no_reorient  #important for SAPT in psi4, default
symmetry c1  #important for SAPT in psi4, default
}

set PROPERTIES_ORIGIN ["COM"]
properties('MP2/aug-cc-pvtz', properties = ['dipole'])
--------------------------------------------------------------------------

    Molecular point group: c1
  Charge       = 0
  Multiplicity = 1
  Basis Set: AUG-CC-PVTZ
    Blend: AUG-CC-PVTZ
  Basis Set: (AUG-CC-PVTZ AUX)
    Blend: AUG-CC-PVTZ-JKFIT

    Orbital Energies [Eh]
    ---------------------

    Doubly Occupied:

       1A    -20.600537     2A    -20.594014     3A    -20.584571
       4A    -20.569157     5A    -20.566444     6A    -20.565892
       7A    -11.363010     8A    -11.304203     9A    -11.299369
      10A    -11.297929    11A    -11.295751    12A    -11.287984
      13A     -1.450126    14A     -1.392232    15A     -1.391882
      16A     -1.369475    17A     -1.358013    18A     -1.354188
      19A     -1.081899    20A     -1.056493    21A     -0.948881
      22A     -0.886699    23A     -0.851989    24A     -0.807551
      25A     -0.756919    26A     -0.739313    27A     -0.726481
      28A     -0.715953    29A     -0.690621    30A     -0.667809
      31A     -0.658661    32A     -0.636938    33A     -0.628038
      34A     -0.621405    35A     -0.600642    36A     -0.579233
      37A     -0.568701    38A     -0.563355    39A     -0.540193
      40A     -0.538247    41A     -0.524447    42A     -0.511384
      43A     -0.497494    44A     -0.487785    45A     -0.468545
      46A     -0.461170    47A     -0.439839    48A     -0.435277

  @DF-RHF Final Energy:  -683.59476656171580

   => Energetics <=

    Nuclear Repulsion Energy =            837.7440193696785400
    One-Electron Energy =               -2604.0040975469451041
    Two-Electron Energy =                1082.6653116155507632
    Total Energy =                       -683.5947665617159146
  Basis Set: (AUG-CC-PVTZ AUX)
    Blend: AUG-CC-PVTZ-RI
    Molecular point group: c1

    Geometry (in Angstrom), charge = 0, multiplicity = 1:

       Center              X                  Y                   Z               Mass
    ------------   -----------------  -----------------  -----------------  -----------------
         O           -0.854237907143     0.880485928427     0.268525464826    15.994914619570
         O           -0.316526907143    -1.660184071573     1.305807464826    15.994914619570
         O            2.097277092857    -1.969060071573    -0.184252535174    15.994914619570
         O            2.747792092857     0.768233928427    -0.446126535174    15.994914619570
         O            0.731607092857     2.520759928427     0.575904464826    15.994914619570
         O           -3.489161907143     0.532235928427    -0.459719535174    15.994914619570
         C           -0.249806307143    -1.314511371573    -0.073265835174    12.000000000000
         C            1.153216092857    -0.974736071573    -0.533745535174    12.000000000000
         C           -1.223674907143    -0.305782071573    -0.479367535174    12.000000000000
         C            1.500599092857     0.356762928427     0.107511464826    12.000000000000
         C            0.414728092857     1.380577928427    -0.166280535174    12.000000000000
         C           -2.669386907143    -0.576857071573    -0.112810535174    12.000000000000
         H           -0.496357907143    -2.356206071573    -0.588096535174     1.007825032230
         H            1.136669092857    -0.823409071573    -1.628192535174     1.007825032230
         H           -1.166478907143    -0.084386071573    -1.556658535174     1.007825032230
         H            1.578968092857     0.222234928427     1.195549464826     1.007825032230
         H            0.360890092857     1.597906928427    -1.247367535174     1.007825032230
         H           -2.735051907143    -0.816805071573     0.955214464826     1.007825032230
         H           -3.038947907143    -1.435297071573    -0.680131535174     1.007825032230
         H           -0.396280907143    -0.782229071573     1.724886464826     1.007825032230
         H            2.970327092857    -1.569878071573    -0.358165535174     1.007825032230
         H            3.002962092857     1.584514928427     0.020948464826     1.007825032230
         H            0.113207092857     3.228758928427     0.322046464826     1.007825032230
         H           -3.087584907143     1.294782928427    -0.006908535174     1.007825032230

  Basis Set: AUG-CC-PVTZ
    Blend: AUG-CC-PVTZ
  Basis Set: (AUG-CC-PVTZ AUX)
    Blend: AUG-CC-PVTZ-JKFIT
	 Reference Energy          =    -683.5947665617158009 [Eh]
	 Singles Energy            =      -0.0000000000000000 [Eh]
	 Same-Spin Energy          =      -0.6676419167964763 [Eh]
	 Opposite-Spin Energy      =      -2.0481006602927789 [Eh]
	 Correlation Energy        =      -2.7157425770892551 [Eh]
	 Total Energy              =    -686.3105091388050596 [Eh]

	 ================> DF-SCS-MP2 Energies <==================
	-----------------------------------------------------------
	 SCS Same-Spin Scale       =       0.3333333333333333 [-]
	 SCS Opposite-Spin Scale   =       1.2000000000000000 [-]
	 SCS Same-Spin Energy      =      -0.2225473055988254 [Eh]
	 SCS Opposite-Spin Energy  =      -2.4577207923513344 [Eh]
	 SCS Correlation Energy    =      -2.6802680979501599 [Eh]
	 SCS Total Energy          =    -686.2750346596659483 [Eh]
	-----------------------------------------------------------

  Dipole Moment: [D]
     X:     0.6261      Y:     3.2613      Z:    -1.0472     Total:     3.4820

*** Psi4 exiting successfully. Buy a developer a beer!
