                               Psi4 1.3.2 release

  ==> Input File <==

--------------------------------------------------------------------------
#psi4
#
memory 32 gb

molecule  {
0 1
  O       -0.8456270     0.8862080     0.2793150
  O       -0.3079160    -1.6544620     1.3165970
  O        2.1058880    -1.9633380    -0.1734630
  O        2.7564030     0.7739560    -0.4353370
  O        0.7402180     2.5264820     0.5866940
  O       -3.4805510     0.5379580    -0.4489300
  C       -0.2340330    -1.4057570    -0.0828570
  C        1.2285476    -1.0392868    -0.4982559
  C       -1.2150640    -0.3000600    -0.4685780
  C        1.5092100     0.3624850     0.1183010
  C        0.4233390     1.3863000    -0.1554910
  C       -2.6607760    -0.5711350    -0.1020210
  H       -0.4877470    -2.3504840    -0.5773070
  H        1.1452800    -0.8176870    -1.6174030
  H       -1.1578680    -0.0786640    -1.5458690
  H        1.5875790     0.2279570     1.2063390
  H        0.3695010     1.6036290    -1.2365780
  H       -2.7264410    -0.8110830     0.9660040
  H       -3.0303370    -1.4295750    -0.6693420
  H       -0.3876700    -0.7765070     1.7356760
  H        2.9789380    -1.5641560    -0.3473760
  H        3.0115730     1.5902370     0.0317380
  H        0.1218180     3.2344810     0.3328360
  H       -3.0789740     1.3005050     0.0038810
units angstrom
no_reorient  #important for SAPT in psi4, default
symmetry c1  #important for SAPT in psi4, default
}

set PROPERTIES_ORIGIN ["COM"]
properties('MP2/aug-cc-pvtz', properties = ['dipole'])
--------------------------------------------------------------------------

    Molecular point group: c1
  Charge       = 0
  Multiplicity = 1
  Basis Set: AUG-CC-PVTZ
    Blend: AUG-CC-PVTZ
  Basis Set: (AUG-CC-PVTZ AUX)
    Blend: AUG-CC-PVTZ-JKFIT

    Orbital Energies [Eh]
    ---------------------

    Doubly Occupied:

       1A    -20.599135     2A    -20.592648     3A    -20.583279
       4A    -20.575571     5A    -20.563802     6A    -20.562432
       7A    -11.361438     8A    -11.303886     9A    -11.298201
      10A    -11.295786    11A    -11.294498    12A    -11.285198
      13A     -1.446723    14A     -1.420898    15A     -1.387647
      16A     -1.373941    17A     -1.363152    18A     -1.351793
      19A     -1.060763    20A     -1.045885    21A     -0.945043
      22A     -0.883773    23A     -0.850253    24A     -0.804659
      25A     -0.767130    26A     -0.735182    27A     -0.724831
      28A     -0.712553    29A     -0.689982    30A     -0.670206
      31A     -0.664112    32A     -0.641622    33A     -0.634520
      34A     -0.617578    35A     -0.599977    36A     -0.583689
      37A     -0.575287    38A     -0.567014    39A     -0.543671
      40A     -0.535186    41A     -0.527033    42A     -0.509825
      43A     -0.494945    44A     -0.481404    45A     -0.463432
      46A     -0.451993    47A     -0.433248    48A     -0.423973

  @DF-RHF Final Energy:  -683.59889776987302

   => Energetics <=

    Nuclear Repulsion Energy =            835.4232880784446706
    One-Electron Energy =               -2599.4467731440763600
    Two-Electron Energy =                1080.4245872957585561
    Total Energy =                       -683.5988977698730196
  Basis Set: (AUG-CC-PVTZ AUX)
    Blend: AUG-CC-PVTZ-RI
    Molecular point group: c1

    Geometry (in Angstrom), charge = 0, multiplicity = 1:

       Center              X                  Y                   Z               Mass
    ------------   -----------------  -----------------  -----------------  -----------------
         O           -0.859161706531     0.891631370158     0.268237606198    15.994914619570
         O           -0.321450706531    -1.649038629842     1.305519606198    15.994914619570
         O            2.092353293469    -1.957914629842    -0.184540393802    15.994914619570
         O            2.742868293469     0.779379370158    -0.446414393802    15.994914619570
         O            0.726683293469     2.531905370158     0.575616606198    15.994914619570
         O           -3.494085706531     0.543381370158    -0.460007393802    15.994914619570
         C           -0.247567706531    -1.400333629842    -0.093934393802    12.000000000000
         C            1.215012893469    -1.033863429842    -0.509333293802    12.000000000000
         C           -1.228598706531    -0.294636629842    -0.479655393802    12.000000000000
         C            1.495675293469     0.367908370158     0.107223606198    12.000000000000
         C            0.409804293469     1.391723370158    -0.166568393802    12.000000000000
         C           -2.674310706531    -0.565711629842    -0.113098393802    12.000000000000
         H           -0.501281706531    -2.345060629842    -0.588384393802     1.007825032230
         H            1.131745293469    -0.812263629842    -1.628480393802     1.007825032230
         H           -1.171402706531    -0.073240629842    -1.556946393802     1.007825032230
         H            1.574044293469     0.233380370158     1.195261606198     1.007825032230
         H            0.355966293469     1.609052370158    -1.247655393802     1.007825032230
         H           -2.739975706531    -0.805659629842     0.954926606198     1.007825032230
         H           -3.043871706531    -1.424151629842    -0.680419393802     1.007825032230
         H           -0.401204706531    -0.771083629842     1.724598606198     1.007825032230
         H            2.965403293469    -1.558732629842    -0.358453393802     1.007825032230
         H            2.998038293469     1.595660370158     0.020660606198     1.007825032230
         H            0.108283293469     3.239904370158     0.321758606198     1.007825032230
         H           -3.092508706531     1.305928370158    -0.007196393802     1.007825032230

  Basis Set: AUG-CC-PVTZ
    Blend: AUG-CC-PVTZ
  Basis Set: (AUG-CC-PVTZ AUX)
    Blend: AUG-CC-PVTZ-JKFIT
	 Reference Energy          =    -683.5988977698730196 [Eh]
	 Singles Energy            =      -0.0000000000000000 [Eh]
	 Same-Spin Energy          =      -0.6662705562680731 [Eh]
	 Opposite-Spin Energy      =      -2.0451216138132899 [Eh]
	 Correlation Energy        =      -2.7113921700813632 [Eh]
	 Total Energy              =    -686.3102899399543730 [Eh]

	 ================> DF-SCS-MP2 Energies <==================
	-----------------------------------------------------------
	 SCS Same-Spin Scale       =       0.3333333333333333 [-]
	 SCS Opposite-Spin Scale   =       1.2000000000000000 [-]
	 SCS Same-Spin Energy      =      -0.2220901854226910 [Eh]
	 SCS Opposite-Spin Energy  =      -2.4541459365759479 [Eh]
	 SCS Correlation Energy    =      -2.6762361219986390 [Eh]
	 SCS Total Energy          =    -686.2751338918716328 [Eh]
	-----------------------------------------------------------

  Dipole Moment: [D]
     X:     0.9475      Y:     2.8762      Z:    -1.0169     Total:     3.1944

*** Psi4 exiting successfully. Buy a developer a beer!
