                               Psi4 1.3.2 release

  ==> Input File <==

--------------------------------------------------------------------------
#psi4
#
memory 32 gb

molecule  {
0 1
  O       -0.8456270     0.8862080     0.2793150
  O       -0.3079160    -1.6544620     1.3165970
  O        2.1058880    -1.9633380    -0.1734630
  O        2.7564030     0.7739560    -0.4353370
  O        0.7402180     2.5264820     0.5866940
  O       -3.4605124     0.5497925    -0.4575591
  C       -0.2340330    -1.4057570    -0.0828570
  C        1.1618270    -0.9690140    -0.5229560
  C       -1.2150640    -0.3000600    -0.4685780
  C        1.5092100     0.3624850     0.1183010
  C        0.4233390     1.3863000    -0.1554910
  C       -2.6607760    -0.5711350    -0.1020210
  H       -0.4877470    -2.3504840    -0.5773070
  H        1.1452800    -0.8176870    -1.6174030
  H       -1.1578680    -0.0786640    -1.5458690
  H        1.5875790     0.2279570     1.2063390
  H        0.3695010     1.6036290    -1.2365780
  H       -2.7264410    -0.8110830     0.9660040
  H       -3.0303370    -1.4295750    -0.6693420
  H       -0.3876700    -0.7765070     1.7356760
  H        2.9789380    -1.5641560    -0.3473760
  H        3.0115730     1.5902370     0.0317380
  H        0.1218180     3.2344810     0.3328360
  H       -3.0789740     1.3005050     0.0038810
units angstrom
no_reorient  #important for SAPT in psi4, default
symmetry c1  #important for SAPT in psi4, default
}

set PROPERTIES_ORIGIN ["COM"]
properties('MP2/aug-cc-pvtz', properties = ['dipole'])
--------------------------------------------------------------------------

    Molecular point group: c1
  Charge       = 0
  Multiplicity = 1
  Basis Set: AUG-CC-PVTZ
    Blend: AUG-CC-PVTZ
  Basis Set: (AUG-CC-PVTZ AUX)
    Blend: AUG-CC-PVTZ-JKFIT

    Orbital Energies [Eh]
    ---------------------

    Doubly Occupied:

       1A    -20.599900     2A    -20.594551     3A    -20.585176
       4A    -20.565056     5A    -20.563871     6A    -20.562982
       7A    -11.362201     8A    -11.304112     9A    -11.298712
      10A    -11.296519    11A    -11.294569    12A    -11.286313
      13A     -1.447959    14A     -1.391808    15A     -1.389072
      16A     -1.368900    17A     -1.357316    18A     -1.352153
      19A     -1.072686    20A     -1.051427    21A     -0.949271
      22A     -0.887211    23A     -0.848977    24A     -0.808476
      25A     -0.759416    26A     -0.737023    27A     -0.722167
      28A     -0.713988    29A     -0.691162    30A     -0.665958
      31A     -0.658414    32A     -0.640082    33A     -0.623110
      34A     -0.618737    35A     -0.599838    36A     -0.580754
      37A     -0.575552    38A     -0.562631    39A     -0.539845
      40A     -0.534510    41A     -0.528054    42A     -0.511602
      43A     -0.496150    44A     -0.483029    45A     -0.470613
      46A     -0.459742    47A     -0.444370    48A     -0.429730

  @DF-RHF Final Energy:  -683.60894914186201

   => Energetics <=

    Nuclear Repulsion Energy =            836.3273540586810668
    One-Electron Energy =               -2601.3012163988782959
    Two-Electron Energy =                1081.3649131983352163
    Total Energy =                       -683.6089491418620128
  Basis Set: (AUG-CC-PVTZ AUX)
    Blend: AUG-CC-PVTZ-RI
    Molecular point group: c1

    Geometry (in Angstrom), charge = 0, multiplicity = 1:

       Center              X                  Y                   Z               Mass
    ------------   -----------------  -----------------  -----------------  -----------------
         O           -0.856495248296     0.885896915042     0.270650217236    15.994914619570
         O           -0.318784248296    -1.654773084958     1.307932217236    15.994914619570
         O            2.095019751704    -1.963649084958    -0.182127782764    15.994914619570
         O            2.745534751704     0.773644915042    -0.444001782764    15.994914619570
         O            0.729349751704     2.526170915042     0.578029217236    15.994914619570
         O           -3.471380648296     0.549481415042    -0.466223882764    15.994914619570
         C           -0.244901248296    -1.406068084958    -0.091521782764    12.000000000000
         C            1.150958751704    -0.969325084958    -0.531620782764    12.000000000000
         C           -1.225932248296    -0.300371084958    -0.477242782764    12.000000000000
         C            1.498341751704     0.362173915042     0.109636217236    12.000000000000
         C            0.412470751704     1.385988915042    -0.164155782764    12.000000000000
         C           -2.671644248296    -0.571446084958    -0.110685782764    12.000000000000
         H           -0.498615248296    -2.350795084958    -0.585971782764     1.007825032230
         H            1.134411751704    -0.817998084958    -1.626067782764     1.007825032230
         H           -1.168736248296    -0.078975084958    -1.554533782764     1.007825032230
         H            1.576710751704     0.227645915042     1.197674217236     1.007825032230
         H            0.358632751704     1.603317915042    -1.245242782764     1.007825032230
         H           -2.737309248296    -0.811394084958     0.957339217236     1.007825032230
         H           -3.041205248296    -1.429886084958    -0.678006782764     1.007825032230
         H           -0.398538248296    -0.776818084958     1.727011217236     1.007825032230
         H            2.968069751704    -1.564467084958    -0.356040782764     1.007825032230
         H            3.000704751704     1.589925915042     0.023073217236     1.007825032230
         H            0.110949751704     3.234169915042     0.324171217236     1.007825032230
         H           -3.089842248296     1.300193915042    -0.004783782764     1.007825032230

  Basis Set: AUG-CC-PVTZ
    Blend: AUG-CC-PVTZ
  Basis Set: (AUG-CC-PVTZ AUX)
    Blend: AUG-CC-PVTZ-JKFIT
	 Reference Energy          =    -683.6089491418620128 [Eh]
	 Singles Energy            =      -0.0000000000000000 [Eh]
	 Same-Spin Energy          =      -0.6661692279623539 [Eh]
	 Opposite-Spin Energy      =      -2.0457245695678496 [Eh]
	 Correlation Energy        =      -2.7118937975302035 [Eh]
	 Total Energy              =    -686.3208429393922643 [Eh]

	 ================> DF-SCS-MP2 Energies <==================
	-----------------------------------------------------------
	 SCS Same-Spin Scale       =       0.3333333333333333 [-]
	 SCS Opposite-Spin Scale   =       1.2000000000000000 [-]
	 SCS Same-Spin Energy      =      -0.2220564093207846 [Eh]
	 SCS Opposite-Spin Energy  =      -2.4548694834814193 [Eh]
	 SCS Correlation Energy    =      -2.6769258928022039 [Eh]
	 SCS Total Energy          =    -686.2858750346641727 [Eh]
	-----------------------------------------------------------

  Dipole Moment: [D]
     X:     0.6088      Y:     3.1353      Z:    -1.0733     Total:     3.3694

*** Psi4 exiting successfully. Buy a developer a beer!
