                               Psi4 1.3.2 release

  ==> Input File <==

--------------------------------------------------------------------------
#psi4
#
memory 32 gb

molecule  {
0 1
  O       -0.9869669     0.8856140     0.3346706
  O       -0.3079160    -1.6544620     1.3165970
  O        2.1058880    -1.9633380    -0.1734630
  O        2.7564030     0.7739560    -0.4353370
  O        0.7402180     2.5264820     0.5866940
  O       -3.4805510     0.5379580    -0.4489300
  C       -0.2340330    -1.4057570    -0.0828570
  C        1.1618270    -0.9690140    -0.5229560
  C       -1.2150640    -0.3000600    -0.4685780
  C        1.5092100     0.3624850     0.1183010
  C        0.4233390     1.3863000    -0.1554910
  C       -2.6607760    -0.5711350    -0.1020210
  H       -0.4877470    -2.3504840    -0.5773070
  H        1.1452800    -0.8176870    -1.6174030
  H       -1.1578680    -0.0786640    -1.5458690
  H        1.5875790     0.2279570     1.2063390
  H        0.3695010     1.6036290    -1.2365780
  H       -2.7264410    -0.8110830     0.9660040
  H       -3.0303370    -1.4295750    -0.6693420
  H       -0.3876700    -0.7765070     1.7356760
  H        2.9789380    -1.5641560    -0.3473760
  H        3.0115730     1.5902370     0.0317380
  H        0.1218180     3.2344810     0.3328360
  H       -3.0789740     1.3005050     0.0038810
units angstrom
no_reorient  #important for SAPT in psi4, default
symmetry c1  #important for SAPT in psi4, default
}

set PROPERTIES_ORIGIN ["COM"]
properties('MP2/aug-cc-pvtz', properties = ['dipole'])
--------------------------------------------------------------------------

    Molecular point group: c1
  Charge       = 0
  Multiplicity = 1
  Basis Set: AUG-CC-PVTZ
    Blend: AUG-CC-PVTZ
  Basis Set: (AUG-CC-PVTZ AUX)
    Blend: AUG-CC-PVTZ-JKFIT

    Orbital Energies [Eh]
    ---------------------

    Doubly Occupied:

       1A    -20.608181     2A    -20.596751     3A    -20.593227
       4A    -20.566204     5A    -20.563982     6A    -20.556724
       7A    -11.377183     8A    -11.307953     9A    -11.297931
      10A    -11.297426    11A    -11.296592    12A    -11.277113
      13A     -1.434820    14A     -1.396006    15A     -1.387177
      16A     -1.367099    17A     -1.355914    18A     -1.338416
      19A     -1.077132    20A     -1.041677    21A     -0.948920
      22A     -0.891467    23A     -0.836653    24A     -0.808727
      25A     -0.760683    26A     -0.734361    27A     -0.720807
      28A     -0.709971    29A     -0.682108    30A     -0.667103
      31A     -0.661175    32A     -0.635618    33A     -0.623645
      34A     -0.611264    35A     -0.597644    36A     -0.582164
      37A     -0.572257    38A     -0.564780    39A     -0.539620
      40A     -0.536647    41A     -0.525876    42A     -0.512593
      43A     -0.483675    44A     -0.480928    45A     -0.472374
      46A     -0.462288    47A     -0.448269    48A     -0.428451

  @DF-RHF Final Energy:  -683.58588608401988

   => Energetics <=

    Nuclear Repulsion Energy =            832.8662019340808911
    One-Electron Energy =               -2594.4290273823389725
    Two-Electron Energy =                1077.9769393642382056
    Total Energy =                       -683.5858860840198759
  Basis Set: (AUG-CC-PVTZ AUX)
    Blend: AUG-CC-PVTZ-RI
    Molecular point group: c1

    Geometry (in Angstrom), charge = 0, multiplicity = 1:

       Center              X                  Y                   Z               Mass
    ------------   -----------------  -----------------  -----------------  -----------------
         O           -0.983500000235     0.886406930680     0.320322097607    15.994914619570
         O           -0.304449100235    -1.653669069320     1.302248497607    15.994914619570
         O            2.109354899765    -1.962545069320    -0.187811502393    15.994914619570
         O            2.759869899765     0.774748930680    -0.449685502393    15.994914619570
         O            0.743684899765     2.527274930680     0.572345497607    15.994914619570
         O           -3.477084100235     0.538750930680    -0.463278502393    15.994914619570
         C           -0.230566100235    -1.404964069320    -0.097205502393    12.000000000000
         C            1.165293899765    -0.968221069320    -0.537304502393    12.000000000000
         C           -1.211597100235    -0.299267069320    -0.482926502393    12.000000000000
         C            1.512676899765     0.363277930680     0.103952497607    12.000000000000
         C            0.426805899765     1.387092930680    -0.169839502393    12.000000000000
         C           -2.657309100235    -0.570342069320    -0.116369502393    12.000000000000
         H           -0.484280100235    -2.349691069320    -0.591655502393     1.007825032230
         H            1.148746899765    -0.816894069320    -1.631751502393     1.007825032230
         H           -1.154401100235    -0.077871069320    -1.560217502393     1.007825032230
         H            1.591045899765     0.228749930680     1.191990497607     1.007825032230
         H            0.372967899765     1.604421930680    -1.250926502393     1.007825032230
         H           -2.722974100235    -0.810290069320     0.951655497607     1.007825032230
         H           -3.026870100235    -1.428782069320    -0.683690502393     1.007825032230
         H           -0.384203100235    -0.775714069320     1.721327497607     1.007825032230
         H            2.982404899765    -1.563363069320    -0.361724502393     1.007825032230
         H            3.015039899765     1.591029930680     0.017389497607     1.007825032230
         H            0.125284899765     3.235273930680     0.318487497607     1.007825032230
         H           -3.075507100235     1.301297930680    -0.010467502393     1.007825032230

  Basis Set: AUG-CC-PVTZ
    Blend: AUG-CC-PVTZ
  Basis Set: (AUG-CC-PVTZ AUX)
    Blend: AUG-CC-PVTZ-JKFIT
	 Reference Energy          =    -683.5858860840198759 [Eh]
	 Singles Energy            =      -0.0000000000000000 [Eh]
	 Same-Spin Energy          =      -0.6685286980830273 [Eh]
	 Opposite-Spin Energy      =      -2.0525220433084801 [Eh]
	 Correlation Energy        =      -2.7210507413915073 [Eh]
	 Total Energy              =    -686.3069368254114124 [Eh]

	 ================> DF-SCS-MP2 Energies <==================
	-----------------------------------------------------------
	 SCS Same-Spin Scale       =       0.3333333333333333 [-]
	 SCS Opposite-Spin Scale   =       1.2000000000000000 [-]
	 SCS Same-Spin Energy      =      -0.2228428993610091 [Eh]
	 SCS Opposite-Spin Energy  =      -2.4630264519701761 [Eh]
	 SCS Correlation Energy    =      -2.6858693513311853 [Eh]
	 SCS Total Energy          =    -686.2717554353511105 [Eh]
	-----------------------------------------------------------

  Dipole Moment: [D]
     X:     1.3475      Y:     3.3900      Z:    -1.1774     Total:     3.8333

*** Psi4 exiting successfully. Buy a developer a beer!
