                               Psi4 1.3.2 release

  ==> Input File <==

--------------------------------------------------------------------------
#psi4
#
memory 32 gb

molecule  {
0 1
  O       -0.8456270     0.8862080     0.2793150
  O       -0.3079160    -1.6544620     1.3165970
  O        2.1058880    -1.9633380    -0.1734630
  O        2.7564030     0.7739560    -0.4353370
  O        0.7402180     2.5264820     0.5866940
  O       -3.4805510     0.5379580    -0.4489300
  C       -0.2357912    -1.3813829    -0.0783977
  C        1.1618270    -0.9690140    -0.5229560
  C       -1.2150640    -0.3000600    -0.4685780
  C        1.5092100     0.3624850     0.1183010
  C        0.4233390     1.3863000    -0.1554910
  C       -2.6607760    -0.5711350    -0.1020210
  H       -0.4877470    -2.3504840    -0.5773070
  H        1.1452800    -0.8176870    -1.6174030
  H       -1.1578680    -0.0786640    -1.5458690
  H        1.5875790     0.2279570     1.2063390
  H        0.3695010     1.6036290    -1.2365780
  H       -2.7264410    -0.8110830     0.9660040
  H       -3.0303370    -1.4295750    -0.6693420
  H       -0.3876700    -0.7765070     1.7356760
  H        2.9789380    -1.5641560    -0.3473760
  H        3.0115730     1.5902370     0.0317380
  H        0.1218180     3.2344810     0.3328360
  H       -3.0789740     1.3005050     0.0038810
units angstrom
no_reorient  #important for SAPT in psi4, default
symmetry c1  #important for SAPT in psi4, default
}

set PROPERTIES_ORIGIN ["COM"]
properties('MP2/aug-cc-pvtz', properties = ['dipole'])
--------------------------------------------------------------------------

    Molecular point group: c1
  Charge       = 0
  Multiplicity = 1
  Basis Set: AUG-CC-PVTZ
    Blend: AUG-CC-PVTZ
  Basis Set: (AUG-CC-PVTZ AUX)
    Blend: AUG-CC-PVTZ-JKFIT

    Orbital Energies [Eh]
    ---------------------

    Doubly Occupied:

       1A    -20.600235     2A    -20.594772     3A    -20.585181
       4A    -20.566092     5A    -20.565004     6A    -20.564548
       7A    -11.362621     8A    -11.304628     9A    -11.298682
      10A    -11.297351    11A    -11.294963    12A    -11.286399
      13A     -1.448651    14A     -1.391940    15A     -1.389733
      16A     -1.368188    17A     -1.357095    18A     -1.352597
      19A     -1.075093    20A     -1.052767    21A     -0.948758
      22A     -0.886957    23A     -0.849499    24A     -0.808308
      25A     -0.758865    26A     -0.737736    27A     -0.723095
      28A     -0.714597    29A     -0.689918    30A     -0.666306
      31A     -0.658268    32A     -0.639260    33A     -0.624571
      34A     -0.619440    35A     -0.599200    36A     -0.577064
      37A     -0.576413    38A     -0.563250    39A     -0.540026
      40A     -0.535794    41A     -0.527664    42A     -0.511833
      43A     -0.496206    44A     -0.484467    45A     -0.470136
      46A     -0.460310    47A     -0.443585    48A     -0.432157

  @DF-RHF Final Energy:  -683.60707007329233

   => Energetics <=

    Nuclear Repulsion Energy =            836.3949446805319212
    One-Electron Energy =               -2601.4035855370420904
    Two-Electron Energy =                1081.4015707832179487
    Total Energy =                       -683.6070700732923342
  Basis Set: (AUG-CC-PVTZ AUX)
    Blend: AUG-CC-PVTZ-RI
    Molecular point group: c1

    Geometry (in Angstrom), charge = 0, multiplicity = 1:

       Center              X                  Y                   Z               Mass
    ------------   -----------------  -----------------  -----------------  -----------------
         O           -0.854598060313     0.885323798075     0.269586517837    15.994914619570
         O           -0.316887060313    -1.655346201925     1.306868517837    15.994914619570
         O            2.096916939687    -1.964222201925    -0.183191482163    15.994914619570
         O            2.747431939687     0.773071798075    -0.445065482163    15.994914619570
         O            0.731246939687     2.525597798075     0.576965517837    15.994914619570
         O           -3.489522060313     0.537073798075    -0.458658482163    15.994914619570
         C           -0.244762260313    -1.382267101925    -0.088126182163    12.000000000000
         C            1.152855939687    -0.969898201925    -0.532684482163    12.000000000000
         C           -1.224035060313    -0.300944201925    -0.478306482163    12.000000000000
         C            1.500238939687     0.361600798075     0.108572517837    12.000000000000
         C            0.414367939687     1.385415798075    -0.165219482163    12.000000000000
         C           -2.669747060313    -0.572019201925    -0.111749482163    12.000000000000
         H           -0.496718060313    -2.351368201925    -0.587035482163     1.007825032230
         H            1.136308939687    -0.818571201925    -1.627131482163     1.007825032230
         H           -1.166839060313    -0.079548201925    -1.555597482163     1.007825032230
         H            1.578607939687     0.227072798075     1.196610517837     1.007825032230
         H            0.360529939687     1.602744798075    -1.246306482163     1.007825032230
         H           -2.735412060313    -0.811967201925     0.956275517837     1.007825032230
         H           -3.039308060313    -1.430459201925    -0.679070482163     1.007825032230
         H           -0.396641060313    -0.777391201925     1.725947517837     1.007825032230
         H            2.969966939687    -1.565040201925    -0.357104482163     1.007825032230
         H            3.002601939687     1.589352798075     0.022009517837     1.007825032230
         H            0.112846939687     3.233596798075     0.323107517837     1.007825032230
         H           -3.087945060313     1.299620798075    -0.005847482163     1.007825032230

  Basis Set: AUG-CC-PVTZ
    Blend: AUG-CC-PVTZ
  Basis Set: (AUG-CC-PVTZ AUX)
    Blend: AUG-CC-PVTZ-JKFIT
	 Reference Energy          =    -683.6070700732923342 [Eh]
	 Singles Energy            =      -0.0000000000000000 [Eh]
	 Same-Spin Energy          =      -0.6665931580834916 [Eh]
	 Opposite-Spin Energy      =      -2.0465099071895709 [Eh]
	 Correlation Energy        =      -2.7131030652730628 [Eh]
	 Total Energy              =    -686.3201731385654512 [Eh]

	 ================> DF-SCS-MP2 Energies <==================
	-----------------------------------------------------------
	 SCS Same-Spin Scale       =       0.3333333333333333 [-]
	 SCS Opposite-Spin Scale   =       1.2000000000000000 [-]
	 SCS Same-Spin Energy      =      -0.2221977193611639 [Eh]
	 SCS Opposite-Spin Energy  =      -2.4558118886274851 [Eh]
	 SCS Correlation Energy    =      -2.6780096079886491 [Eh]
	 SCS Total Energy          =    -686.2850796812809904 [Eh]
	-----------------------------------------------------------

  Dipole Moment: [D]
     X:     0.6535      Y:     3.1802      Z:    -1.0885     Total:     3.4243

*** Psi4 exiting successfully. Buy a developer a beer!
