                               Psi4 1.3.2 release

  ==> Input File <==

--------------------------------------------------------------------------
#psi4
#
memory 32 gb

molecule  {
0 1
  O       -0.8456270     0.8862080     0.2793150
  O       -0.3079160    -1.6544620     1.3165970
  O        2.1058880    -1.9633380    -0.1734630
  O        2.7564030     0.7739560    -0.4353370
  O        0.7402180     2.5264820     0.5866940
  O       -3.4805510     0.5379580    -0.4489300
  C       -0.2766242    -1.3952918    -0.2365962
  C        1.1618270    -0.9690140    -0.5229560
  C       -1.2150640    -0.3000600    -0.4685780
  C        1.5092100     0.3624850     0.1183010
  C        0.4233390     1.3863000    -0.1554910
  C       -2.6607760    -0.5711350    -0.1020210
  H       -0.4877470    -2.3504840    -0.5773070
  H        1.1452800    -0.8176870    -1.6174030
  H       -1.1578680    -0.0786640    -1.5458690
  H        1.5875790     0.2279570     1.2063390
  H        0.3695010     1.6036290    -1.2365780
  H       -2.7264410    -0.8110830     0.9660040
  H       -3.0303370    -1.4295750    -0.6693420
  H       -0.3876700    -0.7765070     1.7356760
  H        2.9789380    -1.5641560    -0.3473760
  H        3.0115730     1.5902370     0.0317380
  H        0.1218180     3.2344810     0.3328360
  H       -3.0789740     1.3005050     0.0038810
units angstrom
no_reorient  #important for SAPT in psi4, default
symmetry c1  #important for SAPT in psi4, default
}

set PROPERTIES_ORIGIN ["COM"]
properties('MP2/aug-cc-pvtz', properties = ['dipole'])
--------------------------------------------------------------------------

    Molecular point group: c1
  Charge       = 0
  Multiplicity = 1
  Basis Set: AUG-CC-PVTZ
    Blend: AUG-CC-PVTZ
  Basis Set: (AUG-CC-PVTZ AUX)
    Blend: AUG-CC-PVTZ-JKFIT

    Orbital Energies [Eh]
    ---------------------

    Doubly Occupied:

       1A    -20.601578     2A    -20.599393     3A    -20.586940
       4A    -20.567386     5A    -20.565623     6A    -20.546980
       7A    -11.364416     8A    -11.308703     9A    -11.302072
      10A    -11.301438    11A    -11.300867    12A    -11.288013
      13A     -1.449980    14A     -1.393744    15A     -1.384711
      16A     -1.364309    17A     -1.358137    18A     -1.312372
      19A     -1.088348    20A     -1.057030    21A     -0.953009
      22A     -0.894977    23A     -0.854735    24A     -0.809071
      25A     -0.760096    26A     -0.738249    27A     -0.719284
      28A     -0.716288    29A     -0.690789    30A     -0.666206
      31A     -0.653890    32A     -0.636299    33A     -0.623225
      34A     -0.616514    35A     -0.597443    36A     -0.586259
      37A     -0.569760    38A     -0.563465    39A     -0.538836
      40A     -0.534312    41A     -0.522254    42A     -0.505730
      43A     -0.497845    44A     -0.481854    45A     -0.471128
      46A     -0.457306    47A     -0.448612    48A     -0.434723

  @DF-RHF Final Energy:  -683.58400741417336

   => Energetics <=

    Nuclear Repulsion Energy =            834.7850802956685357
    One-Electron Energy =               -2598.1697724082155219
    Two-Electron Energy =                1079.8006846983735159
    Total Energy =                       -683.5840074141733567
  Basis Set: (AUG-CC-PVTZ AUX)
    Blend: AUG-CC-PVTZ-RI
    Molecular point group: c1

    Geometry (in Angstrom), charge = 0, multiplicity = 1:

       Center              X                  Y                   Z               Mass
    ------------   -----------------  -----------------  -----------------  -----------------
         O           -0.851876818615     0.886250731649     0.280129371773    15.994914619570
         O           -0.314165818615    -1.654419268351     1.317411371773    15.994914619570
         O            2.099638181385    -1.963295268351    -0.172648628227    15.994914619570
         O            2.750153181385     0.773998731649    -0.434522628227    15.994914619570
         O            0.733968181385     2.526524731649     0.587508371773    15.994914619570
         O           -3.486800818615     0.538000731649    -0.448115628227    15.994914619570
         C           -0.282874018615    -1.395249068351    -0.235781828227    12.000000000000
         C            1.155577181385    -0.968971268351    -0.522141628227    12.000000000000
         C           -1.221313818615    -0.300017268351    -0.467763628227    12.000000000000
         C            1.502960181385     0.362527731649     0.119115371773    12.000000000000
         C            0.417089181385     1.386342731649    -0.154676628227    12.000000000000
         C           -2.667025818615    -0.571092268351    -0.101206628227    12.000000000000
         H           -0.493996818615    -2.350441268351    -0.576492628227     1.007825032230
         H            1.139030181385    -0.817644268351    -1.616588628227     1.007825032230
         H           -1.164117818615    -0.078621268351    -1.545054628227     1.007825032230
         H            1.581329181385     0.227999731649     1.207153371773     1.007825032230
         H            0.363251181385     1.603671731649    -1.235763628227     1.007825032230
         H           -2.732690818615    -0.811040268351     0.966818371773     1.007825032230
         H           -3.036586818615    -1.429532268351    -0.668527628227     1.007825032230
         H           -0.393919818615    -0.776464268351     1.736490371773     1.007825032230
         H            2.972688181385    -1.564113268351    -0.346561628227     1.007825032230
         H            3.005323181385     1.590279731649     0.032552371773     1.007825032230
         H            0.115568181385     3.234523731649     0.333650371773     1.007825032230
         H           -3.085223818615     1.300547731649     0.004695371773     1.007825032230

  Basis Set: AUG-CC-PVTZ
    Blend: AUG-CC-PVTZ
  Basis Set: (AUG-CC-PVTZ AUX)
    Blend: AUG-CC-PVTZ-JKFIT
	 Reference Energy          =    -683.5840074141733567 [Eh]
	 Singles Energy            =      -0.0000000000000000 [Eh]
	 Same-Spin Energy          =      -0.6672566061297718 [Eh]
	 Opposite-Spin Energy      =      -2.0496920215311007 [Eh]
	 Correlation Energy        =      -2.7169486276608725 [Eh]
	 Total Energy              =    -686.3009560418341835 [Eh]

	 ================> DF-SCS-MP2 Energies <==================
	-----------------------------------------------------------
	 SCS Same-Spin Scale       =       0.3333333333333333 [-]
	 SCS Opposite-Spin Scale   =       1.2000000000000000 [-]
	 SCS Same-Spin Energy      =      -0.2224188687099239 [Eh]
	 SCS Opposite-Spin Energy  =      -2.4596304258373207 [Eh]
	 SCS Correlation Energy    =      -2.6820492945472445 [Eh]
	 SCS Total Energy          =    -686.2660567087206118 [Eh]
	-----------------------------------------------------------

  Dipole Moment: [D]
     X:     0.7013      Y:     3.2285      Z:    -1.4757     Total:     3.6184

*** Psi4 exiting successfully. Buy a developer a beer!
