                               Psi4 1.4a3.dev225

  ==> Input File <==

--------------------------------------------------------------------------
#psi4
#
memory 32 gb

molecule  {
0 1
  O       -0.8456650     0.8861440     0.2793920
  O       -0.3077290    -1.6543970     1.3165920
  O        2.1058490    -1.9633390    -0.1734930
  O        2.7563870     0.7740080    -0.4352340
  O        0.7401070     2.5265290     0.5865970
  O       -3.4805150     0.5379850    -0.4487790
  C       -0.2340150    -1.4057960    -0.0828600
  C        1.1618410    -0.9690160    -0.5229920
  C       -1.2471928    -0.2639339    -0.4812085
  C        1.5091960     0.3624950     0.1183140
  C        0.4232960     1.3863010    -0.1554910
  C       -2.6608140    -0.5711940    -0.1020800
  H       -0.4877200    -2.3505680    -0.5772350
  H        1.1452880    -0.8176810    -1.6174430
  H       -1.1578130    -0.0786490    -1.5458470
  H        1.5874550     0.2279380     1.2063560
  H        0.3693510     1.6035860    -1.2365730
  H       -2.7265370    -0.8113720     0.9658980
  H       -3.0304070    -1.4295080    -0.6695770
  H       -0.3878110    -0.7763940     1.7355090
  H        2.9789120    -1.5642300    -0.3474430
  H        3.0116250     1.5901680     0.0320000
  H        0.1223170     3.2347930     0.3320250
  H       -3.0786550     1.3004670     0.0038890
units angstrom
no_reorient  #important for SAPT in psi4, default
symmetry c1  #important for SAPT in psi4, default
}

set PROPERTIES_ORIGIN ["COM"]
properties('MP2/aug-cc-pvtz', properties = ['dipole'])
--------------------------------------------------------------------------

    Molecular point group: c1
  Charge       = 0
  Multiplicity = 1
  Basis Set: AUG-CC-PVTZ
    Blend: AUG-CC-PVTZ
  Basis Set: (AUG-CC-PVTZ AUX)
    Blend: AUG-CC-PVTZ-JKFIT

    Orbital Energies [Eh]
    ---------------------

    Doubly Occupied:

       1A    -20.600929     2A    -20.596114     3A    -20.585336
       4A    -20.564346     5A    -20.563550     6A    -20.563307
       7A    -11.363672     8A    -11.303830     9A    -11.298831
      10A    -11.297048    11A    -11.294141    12A    -11.284724
      13A     -1.450268    14A     -1.392353    15A     -1.389088
      16A     -1.367821    17A     -1.357085    18A     -1.352062
      19A     -1.068456    20A     -1.051976    21A     -0.949584
      22A     -0.885903    23A     -0.848816    24A     -0.809155
      25A     -0.759539    26A     -0.737234    27A     -0.721746
      28A     -0.715703    29A     -0.690163    30A     -0.664188
      31A     -0.657971    32A     -0.640144    33A     -0.623966
      34A     -0.620879    35A     -0.599098    36A     -0.580193
      37A     -0.576006    38A     -0.562876    39A     -0.539588
      40A     -0.536466    41A     -0.530081    42A     -0.513949
      43A     -0.496937    44A     -0.477784    45A     -0.470078
      46A     -0.460085    47A     -0.445262    48A     -0.424957

  @DF-RHF Final Energy:  -683.60680888927789

   => Energetics <=

    Nuclear Repulsion Energy =            835.6335208934083312
    One-Electron Energy =               -2599.9140839480073737
    Two-Electron Energy =                1080.6737541653210428
    Total Energy =                       -683.6068088892779997
  Basis Set: (AUG-CC-PVTZ AUX)
    Blend: AUG-CC-PVTZ-RI
    Molecular point group: c1

    Geometry (in Angstrom), charge = 0, multiplicity = 1:

       Center              X                  Y                   Z               Mass
    ------------   -----------------  -----------------  -----------------  -----------------
         O           -0.852611531406     0.884471922456     0.270796245329    15.994914619570
         O           -0.314675531406    -1.656069077544     1.307996245329    15.994914619570
         O            2.098902468594    -1.965011077544    -0.182088754671    15.994914619570
         O            2.749440468594     0.772335922456    -0.443829754671    15.994914619570
         O            0.733160468594     2.524856922456     0.578001245329    15.994914619570
         O           -3.487461531406     0.536312922456    -0.457374754671    15.994914619570
         C           -0.240961531406    -1.407468077544    -0.091455754671    12.000000000000
         C            1.154894468594    -0.970688077544    -0.531587754671    12.000000000000
         C           -1.254139331406    -0.265605977544    -0.489804254671    12.000000000000
         C            1.502249468594     0.360822922456     0.109718245329    12.000000000000
         C            0.416349468594     1.384628922456    -0.164086754671    12.000000000000
         C           -2.667760531406    -0.572866077544    -0.110675754671    12.000000000000
         H           -0.494666531406    -2.352240077544    -0.585830754671     1.007825032230
         H            1.138341468594    -0.819353077544    -1.626038754671     1.007825032230
         H           -1.164759531406    -0.080321077544    -1.554442754671     1.007825032230
         H            1.580508468594     0.226265922456     1.197760245329     1.007825032230
         H            0.362404468594     1.601913922456    -1.245168754671     1.007825032230
         H           -2.733483531406    -0.813044077544     0.957302245329     1.007825032230
         H           -3.037353531406    -1.431180077544    -0.678172754671     1.007825032230
         H           -0.394757531406    -0.778066077544     1.726913245329     1.007825032230
         H            2.971965468594    -1.565902077544    -0.356038754671     1.007825032230
         H            3.004678468594     1.588495922456     0.023404245329     1.007825032230
         H            0.115370468594     3.233120922456     0.323429245329     1.007825032230
         H           -3.085601531406     1.298794922456    -0.004706754671     1.007825032230

  Basis Set: AUG-CC-PVTZ
    Blend: AUG-CC-PVTZ
  Basis Set: (AUG-CC-PVTZ AUX)
    Blend: AUG-CC-PVTZ-JKFIT
	 Reference Energy          =    -683.6068088892778860 [Eh]
	 Singles Energy            =      -0.0000000000000000 [Eh]
	 Same-Spin Energy          =      -0.6661429310606681 [Eh]
	 Opposite-Spin Energy      =      -2.0458416847909042 [Eh]
	 Correlation Energy        =      -2.7119846158515726 [Eh]
	 Total Energy              =    -686.3187935051294062 [Eh]

	 ================> DF-SCS-MP2 Energies <==================
	-----------------------------------------------------------
	 SCS Same-Spin Scale       =       0.3333333333333333 [-]
	 SCS Opposite-Spin Scale   =       1.2000000000000000 [-]
	 SCS Same-Spin Energy      =      -0.2220476436868894 [Eh]
	 SCS Opposite-Spin Energy  =      -2.4550100217490849 [Eh]
	 SCS Correlation Energy    =      -2.6770576654359743 [Eh]
	 SCS Total Energy          =    -686.2838665547138817 [Eh]
	-----------------------------------------------------------

  Dipole Moment: [D]
     X:     0.6407      Y:     3.2105      Z:    -1.1049     Total:     3.4552

*** Psi4 exiting successfully. Buy a developer a beer!
