                               Psi4 1.3.2 release

  ==> Input File <==

--------------------------------------------------------------------------
#psi4
#
memory 32 gb

molecule  {
0 1
  O       -0.8456270     0.8862080     0.2793150
  O       -0.3079160    -1.6544620     1.3165970
  O        2.1058880    -1.9633380    -0.1734630
  O        2.7564030     0.7739560    -0.4353370
  O        0.7402180     2.5264820     0.5866940
  O       -3.4805510     0.5379580    -0.4489300
  C       -0.2340330    -1.4057570    -0.0828570
  C        1.3446066    -0.9118251    -0.5805844
  C       -1.2150640    -0.3000600    -0.4685780
  C        1.5092100     0.3624850     0.1183010
  C        0.4233390     1.3863000    -0.1554910
  C       -2.6607760    -0.5711350    -0.1020210
  H       -0.4877470    -2.3504840    -0.5773070
  H        1.1452800    -0.8176870    -1.6174030
  H       -1.1578680    -0.0786640    -1.5458690
  H        1.5875790     0.2279570     1.2063390
  H        0.3695010     1.6036290    -1.2365780
  H       -2.7264410    -0.8110830     0.9660040
  H       -3.0303370    -1.4295750    -0.6693420
  H       -0.3876700    -0.7765070     1.7356760
  H        2.9789380    -1.5641560    -0.3473760
  H        3.0115730     1.5902370     0.0317380
  H        0.1218180     3.2344810     0.3328360
  H       -3.0789740     1.3005050     0.0038810
units angstrom
no_reorient  #important for SAPT in psi4, default
symmetry c1  #important for SAPT in psi4, default
}

set PROPERTIES_ORIGIN ["COM"]
properties('MP2/aug-cc-pvtz', properties = ['dipole'])
--------------------------------------------------------------------------

    Molecular point group: c1
  Charge       = 0
  Multiplicity = 1
  Basis Set: AUG-CC-PVTZ
    Blend: AUG-CC-PVTZ
  Basis Set: (AUG-CC-PVTZ AUX)
    Blend: AUG-CC-PVTZ-JKFIT

    Orbital Energies [Eh]
    ---------------------

    Doubly Occupied:

       1A    -20.601557     2A    -20.592318     3A    -20.582620
       4A    -20.576486     5A    -20.562568     6A    -20.561719
       7A    -11.364362     8A    -11.299640     9A    -11.297339
      10A    -11.294407    11A    -11.293760    12A    -11.282338
      13A     -1.447620    14A     -1.409558    15A     -1.387506
      16A     -1.373837    17A     -1.360241    18A     -1.350463
      19A     -1.060575    20A     -1.048656    21A     -0.933271
      22A     -0.894472    23A     -0.842647    24A     -0.811167
      25A     -0.764063    26A     -0.734398    27A     -0.723639
      28A     -0.713479    29A     -0.690559    30A     -0.668324
      31A     -0.659342    32A     -0.637954    33A     -0.620476
      34A     -0.615512    35A     -0.600572    36A     -0.585254
      37A     -0.574931    38A     -0.567945    39A     -0.547818
      40A     -0.533111    41A     -0.525860    42A     -0.509451
      43A     -0.494190    44A     -0.481252    45A     -0.471002
      46A     -0.459900    47A     -0.448063    48A     -0.391698

  @DF-RHF Final Energy:  -683.57140112666809

   => Energetics <=

    Nuclear Repulsion Energy =            834.5687345946216738
    One-Electron Energy =               -2597.7844329304853090
    Two-Electron Energy =                1079.6442972091956563
    Total Energy =                       -683.5714011266679790
  Basis Set: (AUG-CC-PVTZ AUX)
    Blend: AUG-CC-PVTZ-RI
    Molecular point group: c1

    Geometry (in Angstrom), charge = 0, multiplicity = 1:

       Center              X                  Y                   Z               Mass
    ------------   -----------------  -----------------  -----------------  -----------------
         O           -0.866896249431     0.883136914866     0.273724240712    15.994914619570
         O           -0.329185249431    -1.657533085134     1.311006240712    15.994914619570
         O            2.084618750569    -1.966409085134    -0.179053759288    15.994914619570
         O            2.735133750569     0.770884914866    -0.440927759288    15.994914619570
         O            0.718948750569     2.523410914866     0.581103240712    15.994914619570
         O           -3.501820249431     0.534886914866    -0.454520759288    15.994914619570
         C           -0.255302249431    -1.408828085134    -0.088447759288    12.000000000000
         C            1.323337350569    -0.914896185134    -0.586175159288    12.000000000000
         C           -1.236333249431    -0.303131085134    -0.474168759288    12.000000000000
         C            1.487940750569     0.359413914866     0.112710240712    12.000000000000
         C            0.402069750569     1.383228914866    -0.161081759288    12.000000000000
         C           -2.682045249431    -0.574206085134    -0.107611759288    12.000000000000
         H           -0.509016249431    -2.353555085134    -0.582897759288     1.007825032230
         H            1.124010750569    -0.820758085134    -1.622993759288     1.007825032230
         H           -1.179137249431    -0.081735085134    -1.551459759288     1.007825032230
         H            1.566309750569     0.224885914866     1.200748240712     1.007825032230
         H            0.348231750569     1.600557914866    -1.242168759288     1.007825032230
         H           -2.747710249431    -0.814154085134     0.960413240712     1.007825032230
         H           -3.051606249431    -1.432646085134    -0.674932759288     1.007825032230
         H           -0.408939249431    -0.779578085134     1.730085240712     1.007825032230
         H            2.957668750569    -1.567227085134    -0.352966759288     1.007825032230
         H            2.990303750569     1.587165914866     0.026147240712     1.007825032230
         H            0.100548750569     3.231409914866     0.327245240712     1.007825032230
         H           -3.100243249431     1.297433914866    -0.001709759288     1.007825032230

  Basis Set: AUG-CC-PVTZ
    Blend: AUG-CC-PVTZ
  Basis Set: (AUG-CC-PVTZ AUX)
    Blend: AUG-CC-PVTZ-JKFIT
	 Reference Energy          =    -683.5714011266680927 [Eh]
	 Singles Energy            =      -0.0000000000000000 [Eh]
	 Same-Spin Energy          =      -0.6681270903155450 [Eh]
	 Opposite-Spin Energy      =      -2.0496234851689166 [Eh]
	 Correlation Energy        =      -2.7177505754844615 [Eh]
	 Total Energy              =    -686.2891517021525942 [Eh]

	 ================> DF-SCS-MP2 Energies <==================
	-----------------------------------------------------------
	 SCS Same-Spin Scale       =       0.3333333333333333 [-]
	 SCS Opposite-Spin Scale   =       1.2000000000000000 [-]
	 SCS Same-Spin Energy      =      -0.2227090301051816 [Eh]
	 SCS Opposite-Spin Energy  =      -2.4595481822026999 [Eh]
	 SCS Correlation Energy    =      -2.6822572123078814 [Eh]
	 SCS Total Energy          =    -686.2536583389759244 [Eh]
	-----------------------------------------------------------

  Dipole Moment: [D]
     X:     0.9563      Y:     3.0268      Z:    -1.0701     Total:     3.3498

*** Psi4 exiting successfully. Buy a developer a beer!
