                               Psi4 1.4a3.dev225

  ==> Input File <==

--------------------------------------------------------------------------
#psi4
#
memory 32 gb

molecule  {
0 1
  O       -0.8456650     0.8861440     0.2793920
  O       -0.3077290    -1.6543970     1.3165920
  O        2.1058490    -1.9633390    -0.1734930
  O        2.7563870     0.7740080    -0.4352340
  O        0.7401070     2.5265290     0.5865970
  O       -3.4805150     0.5379850    -0.4487790
  C       -0.2340150    -1.4057960    -0.0828600
  C        1.1435633    -0.9747353    -0.5172288
  C       -1.2150830    -0.3001220    -0.4685840
  C        1.5091960     0.3624950     0.1183140
  C        0.4232960     1.3863010    -0.1554910
  C       -2.6608140    -0.5711940    -0.1020800
  H       -0.4877200    -2.3505680    -0.5772350
  H        1.1452880    -0.8176810    -1.6174430
  H       -1.1578130    -0.0786490    -1.5458470
  H        1.5874550     0.2279380     1.2063560
  H        0.3693510     1.6035860    -1.2365730
  H       -2.7265370    -0.8113720     0.9658980
  H       -3.0304070    -1.4295080    -0.6695770
  H       -0.3878110    -0.7763940     1.7355090
  H        2.9789120    -1.5642300    -0.3474430
  H        3.0116250     1.5901680     0.0320000
  H        0.1223170     3.2347930     0.3320250
  H       -3.0786550     1.3004670     0.0038890
units angstrom
no_reorient  #important for SAPT in psi4, default
symmetry c1  #important for SAPT in psi4, default
}

set PROPERTIES_ORIGIN ["COM"]
properties('MP2/aug-cc-pvtz', properties = ['dipole'])
--------------------------------------------------------------------------

    Molecular point group: c1
  Charge       = 0
  Multiplicity = 1
  Basis Set: AUG-CC-PVTZ
    Blend: AUG-CC-PVTZ
  Basis Set: (AUG-CC-PVTZ AUX)
    Blend: AUG-CC-PVTZ-JKFIT

    Orbital Energies [Eh]
    ---------------------

    Doubly Occupied:

       1A    -20.600038     2A    -20.595325     3A    -20.585739
       4A    -20.565507     5A    -20.564769     6A    -20.562913
       7A    -11.362357     8A    -11.305296     9A    -11.299425
      10A    -11.296860    11A    -11.295536    12A    -11.286188
      13A     -1.448369    14A     -1.391137    15A     -1.389170
      16A     -1.367935    17A     -1.355846    18A     -1.351372
      19A     -1.075265    20A     -1.051449    21A     -0.950681
      22A     -0.886647    23A     -0.849202    24A     -0.808401
      25A     -0.759346    26A     -0.737620    27A     -0.721734
      28A     -0.714271    29A     -0.689579    30A     -0.665836
      31A     -0.658415    32A     -0.640640    33A     -0.624677
      34A     -0.618959    35A     -0.598789    36A     -0.580495
      37A     -0.575765    38A     -0.562125    39A     -0.539172
      40A     -0.534653    41A     -0.528576    42A     -0.512141
      43A     -0.496015    44A     -0.483392    45A     -0.471497
      46A     -0.459360    47A     -0.443750    48A     -0.431822

  @DF-RHF Final Energy:  -683.60782113717926

   => Energetics <=

    Nuclear Repulsion Energy =            836.0845259695798859
    One-Electron Energy =               -2600.7965741777315998
    Two-Electron Energy =                1081.1042270709726836
    Total Energy =                       -683.6078211371791440
  Basis Set: (AUG-CC-PVTZ AUX)
    Blend: AUG-CC-PVTZ-RI
    Molecular point group: c1

    Geometry (in Angstrom), charge = 0, multiplicity = 1:

       Center              X                  Y                   Z               Mass
    ------------   -----------------  -----------------  -----------------  -----------------
         O           -0.853533346783     0.887264765606     0.269570830200    15.994914619570
         O           -0.315597346783    -1.653276234394     1.306770830200    15.994914619570
         O            2.097980653217    -1.962218234394    -0.183314169800    15.994914619570
         O            2.748518653217     0.775128765606    -0.445055169800    15.994914619570
         O            0.732238653217     2.527649765606     0.576775830200    15.994914619570
         O           -3.488383346783     0.539105765606    -0.458600169800    15.994914619570
         C           -0.241883346783    -1.404675234394    -0.092681169800    12.000000000000
         C            1.135694953217    -0.973614534394    -0.527049969800    12.000000000000
         C           -1.222951346783    -0.299001234394    -0.478405169800    12.000000000000
         C            1.501327653217     0.363615765606     0.108492830200    12.000000000000
         C            0.415427653217     1.387421765606    -0.165312169800    12.000000000000
         C           -2.668682346783    -0.570073234394    -0.111901169800    12.000000000000
         H           -0.495588346783    -2.349447234394    -0.587056169800     1.007825032230
         H            1.137419653217    -0.816560234394    -1.627264169800     1.007825032230
         H           -1.165681346783    -0.077528234394    -1.555668169800     1.007825032230
         H            1.579586653217     0.229058765606     1.196534830200     1.007825032230
         H            0.361482653217     1.604706765606    -1.246394169800     1.007825032230
         H           -2.734405346783    -0.810251234394     0.956076830200     1.007825032230
         H           -3.038275346783    -1.428387234394    -0.679398169800     1.007825032230
         H           -0.395679346783    -0.775273234394     1.725687830200     1.007825032230
         H            2.971043653217    -1.563109234394    -0.357264169800     1.007825032230
         H            3.003756653217     1.591288765606     0.022178830200     1.007825032230
         H            0.114448653217     3.235913765606     0.322203830200     1.007825032230
         H           -3.086523346783     1.301587765606    -0.005932169800     1.007825032230

  Basis Set: AUG-CC-PVTZ
    Blend: AUG-CC-PVTZ
  Basis Set: (AUG-CC-PVTZ AUX)
    Blend: AUG-CC-PVTZ-JKFIT
	 Reference Energy          =    -683.6078211371792577 [Eh]
	 Singles Energy            =      -0.0000000000000000 [Eh]
	 Same-Spin Energy          =      -0.6663896288670812 [Eh]
	 Opposite-Spin Energy      =      -2.0462617723457179 [Eh]
	 Correlation Energy        =      -2.7126514012127991 [Eh]
	 Total Energy              =    -686.3204725383920959 [Eh]

	 ================> DF-SCS-MP2 Energies <==================
	-----------------------------------------------------------
	 SCS Same-Spin Scale       =       0.3333333333333333 [-]
	 SCS Opposite-Spin Scale   =       1.2000000000000000 [-]
	 SCS Same-Spin Energy      =      -0.2221298762890271 [Eh]
	 SCS Opposite-Spin Energy  =      -2.4555141268148613 [Eh]
	 SCS Correlation Energy    =      -2.6776440031038882 [Eh]
	 SCS Total Energy          =    -686.2854651402831223 [Eh]
	-----------------------------------------------------------

  Dipole Moment: [D]
     X:     0.6329      Y:     3.1698      Z:    -1.1015     Total:     3.4149

*** Psi4 exiting successfully. Buy a developer a beer!
