                               Psi4 1.3.2 release

  ==> Input File <==

--------------------------------------------------------------------------
#psi4
#
memory 32 gb

molecule  {
0 1
  O       -0.8456270     0.8862080     0.2793150
  O       -0.3079160    -1.6544620     1.3165970
  O        2.1058880    -1.9633380    -0.1734630
  O        2.7564030     0.7739560    -0.4353370
  O        0.7402180     2.5264820     0.5866940
  O       -3.4805510     0.5379580    -0.4489300
  C       -0.2340330    -1.4057570    -0.0828570
  C        1.1618270    -0.9690140    -0.5229560
  C       -1.1280337    -0.2907869    -0.5194271
  C        1.5092100     0.3624850     0.1183010
  C        0.4233390     1.3863000    -0.1554910
  C       -2.6607760    -0.5711350    -0.1020210
  H       -0.4877470    -2.3504840    -0.5773070
  H        1.1452800    -0.8176870    -1.6174030
  H       -1.1578680    -0.0786640    -1.5458690
  H        1.5875790     0.2279570     1.2063390
  H        0.3695010     1.6036290    -1.2365780
  H       -2.7264410    -0.8110830     0.9660040
  H       -3.0303370    -1.4295750    -0.6693420
  H       -0.3876700    -0.7765070     1.7356760
  H        2.9789380    -1.5641560    -0.3473760
  H        3.0115730     1.5902370     0.0317380
  H        0.1218180     3.2344810     0.3328360
  H       -3.0789740     1.3005050     0.0038810
units angstrom
no_reorient  #important for SAPT in psi4, default
symmetry c1  #important for SAPT in psi4, default
}

set PROPERTIES_ORIGIN ["COM"]
properties('MP2/aug-cc-pvtz', properties = ['dipole'])
--------------------------------------------------------------------------

    Molecular point group: c1
  Charge       = 0
  Multiplicity = 1
  Basis Set: AUG-CC-PVTZ
    Blend: AUG-CC-PVTZ
  Basis Set: (AUG-CC-PVTZ AUX)
    Blend: AUG-CC-PVTZ-JKFIT

    Orbital Energies [Eh]
    ---------------------

    Doubly Occupied:

       1A    -20.599607     2A    -20.598346     3A    -20.585806
       4A    -20.567334     5A    -20.563473     6A    -20.562843
       7A    -11.361940     8A    -11.302090     9A    -11.299426
      10A    -11.295759    11A    -11.293535    12A    -11.287645
      13A     -1.449919    14A     -1.392052    15A     -1.389073
      16A     -1.366760    17A     -1.355973    18A     -1.352587
      19A     -1.078441    20A     -1.044327    21A     -0.939370
      22A     -0.888238    23A     -0.851020    24A     -0.813388
      25A     -0.759198    26A     -0.736659    27A     -0.725677
      28A     -0.716742    29A     -0.685700    30A     -0.666766
      31A     -0.658479    32A     -0.640842    33A     -0.622616
      34A     -0.613002    35A     -0.595888    36A     -0.581529
      37A     -0.575353    38A     -0.565053    39A     -0.541547
      40A     -0.539646    41A     -0.530427    42A     -0.509319
      43A     -0.492183    44A     -0.488168    45A     -0.469640
      46A     -0.459795    47A     -0.443979    48A     -0.421426

  @DF-RHF Final Energy:  -683.59648932515370

   => Energetics <=

    Nuclear Repulsion Energy =            836.1770671211153285
    One-Electron Energy =               -2600.9899410233465460
    Two-Electron Energy =                1081.2163845770776334
    Total Energy =                       -683.5964893251536978
  Basis Set: (AUG-CC-PVTZ AUX)
    Blend: AUG-CC-PVTZ-RI
    Molecular point group: c1

    Geometry (in Angstrom), charge = 0, multiplicity = 1:

       Center              X                  Y                   Z               Mass
    ------------   -----------------  -----------------  -----------------  -----------------
         O           -0.860515209886     0.886330177005     0.273272446481    15.994914619570
         O           -0.322804209886    -1.654339822995     1.310554446481    15.994914619570
         O            2.090999790114    -1.963215822995    -0.179505553519    15.994914619570
         O            2.741514790114     0.774078177005    -0.441379553519    15.994914619570
         O            0.725329790114     2.526604177005     0.580651446481    15.994914619570
         O           -3.495439209886     0.538080177005    -0.454972553519    15.994914619570
         C           -0.248921209886    -1.405634822995    -0.088899553519    12.000000000000
         C            1.146938790114    -0.968891822995    -0.528998553519    12.000000000000
         C           -1.142921909886    -0.290664722995    -0.525469653519    12.000000000000
         C            1.494321790114     0.362607177005     0.112258446481    12.000000000000
         C            0.408450790114     1.386422177005    -0.161533553519    12.000000000000
         C           -2.675664209886    -0.571012822995    -0.108063553519    12.000000000000
         H           -0.502635209886    -2.350361822995    -0.583349553519     1.007825032230
         H            1.130391790114    -0.817564822995    -1.623445553519     1.007825032230
         H           -1.172756209886    -0.078541822995    -1.551911553519     1.007825032230
         H            1.572690790114     0.228079177005     1.200296446481     1.007825032230
         H            0.354612790114     1.603751177005    -1.242620553519     1.007825032230
         H           -2.741329209886    -0.810960822995     0.959961446481     1.007825032230
         H           -3.045225209886    -1.429452822995    -0.675384553519     1.007825032230
         H           -0.402558209886    -0.776384822995     1.729633446481     1.007825032230
         H            2.964049790114    -1.564033822995    -0.353418553519     1.007825032230
         H            2.996684790114     1.590359177005     0.025695446481     1.007825032230
         H            0.106929790114     3.234603177005     0.326793446481     1.007825032230
         H           -3.093862209886     1.300627177005    -0.002161553519     1.007825032230

  Basis Set: AUG-CC-PVTZ
    Blend: AUG-CC-PVTZ
  Basis Set: (AUG-CC-PVTZ AUX)
    Blend: AUG-CC-PVTZ-JKFIT
	 Reference Energy          =    -683.5964893251536978 [Eh]
	 Singles Energy            =      -0.0000000000000000 [Eh]
	 Same-Spin Energy          =      -0.6669723379966268 [Eh]
	 Opposite-Spin Energy      =      -2.0477719294722627 [Eh]
	 Correlation Energy        =      -2.7147442674688893 [Eh]
	 Total Energy              =    -686.3112335926225569 [Eh]

	 ================> DF-SCS-MP2 Energies <==================
	-----------------------------------------------------------
	 SCS Same-Spin Scale       =       0.3333333333333333 [-]
	 SCS Opposite-Spin Scale   =       1.2000000000000000 [-]
	 SCS Same-Spin Energy      =      -0.2223241126655423 [Eh]
	 SCS Opposite-Spin Energy  =      -2.4573263153667151 [Eh]
	 SCS Correlation Energy    =      -2.6796504280322573 [Eh]
	 SCS Total Energy          =    -686.2761397531859302 [Eh]
	-----------------------------------------------------------

  Dipole Moment: [D]
     X:     0.7006      Y:     3.1986      Z:    -1.1246     Total:     3.4622

*** Psi4 exiting successfully. Buy a developer a beer!
