                               Psi4 1.4a3.dev225

  ==> Input File <==

--------------------------------------------------------------------------
#psi4
#
memory 32 gb

molecule  {
0 1
  O       -0.8456650     0.8861440     0.2793920
  O       -0.3077290    -1.6543970     1.3165920
  O        2.1058490    -1.9633390    -0.1734930
  O        2.7563870     0.7740080    -0.4352340
  O        0.7401070     2.5265290     0.5865970
  O       -3.4805150     0.5379850    -0.4487790
  C       -0.2340150    -1.4057960    -0.0828600
  C        1.2075353    -0.9547177    -0.5374000
  C       -1.2150830    -0.3001220    -0.4685840
  C        1.5091960     0.3624950     0.1183140
  C        0.4232960     1.3863010    -0.1554910
  C       -2.6608140    -0.5711940    -0.1020800
  H       -0.4877200    -2.3505680    -0.5772350
  H        1.1452880    -0.8176810    -1.6174430
  H       -1.1578130    -0.0786490    -1.5458470
  H        1.5874550     0.2279380     1.2063560
  H        0.3693510     1.6035860    -1.2365730
  H       -2.7265370    -0.8113720     0.9658980
  H       -3.0304070    -1.4295080    -0.6695770
  H       -0.3878110    -0.7763940     1.7355090
  H        2.9789120    -1.5642300    -0.3474430
  H        3.0116250     1.5901680     0.0320000
  H        0.1223170     3.2347930     0.3320250
  H       -3.0786550     1.3004670     0.0038890
units angstrom
no_reorient  #important for SAPT in psi4, default
symmetry c1  #important for SAPT in psi4, default
}

set PROPERTIES_ORIGIN ["COM"]
properties('MP2/aug-cc-pvtz', properties = ['dipole'])
--------------------------------------------------------------------------

    Molecular point group: c1
  Charge       = 0
  Multiplicity = 1
  Basis Set: AUG-CC-PVTZ
    Blend: AUG-CC-PVTZ
  Basis Set: (AUG-CC-PVTZ AUX)
    Blend: AUG-CC-PVTZ-JKFIT

    Orbital Energies [Eh]
    ---------------------

    Doubly Occupied:

       1A    -20.600500     2A    -20.594340     3A    -20.584593
       4A    -20.567109     5A    -20.564509     6A    -20.563829
       7A    -11.362962     8A    -11.303424     9A    -11.298080
      10A    -11.296940    11A    -11.293603    12A    -11.285020
      13A     -1.448002    14A     -1.395009    15A     -1.388489
      16A     -1.368191    17A     -1.359572    18A     -1.352280
      19A     -1.068069    20A     -1.051530    21A     -0.944174
      22A     -0.889456    23A     -0.846806    24A     -0.809598
      25A     -0.760611    26A     -0.735941    27A     -0.722721
      28A     -0.713865    29A     -0.689890    30A     -0.666530
      31A     -0.658926    32A     -0.639202    33A     -0.620285
      34A     -0.618535    35A     -0.598703    36A     -0.581518
      37A     -0.575993    38A     -0.564750    39A     -0.542517
      40A     -0.534907    41A     -0.527810    42A     -0.511343
      43A     -0.495459    44A     -0.483058    45A     -0.467247
      46A     -0.462133    47A     -0.446218    48A     -0.423872

  @DF-RHF Final Energy:  -683.60573615357521

   => Energetics <=

    Nuclear Repulsion Energy =            835.6013818671503941
    One-Electron Energy =               -2599.8579955355953643
    Two-Electron Energy =                1080.6508775148697623
    Total Energy =                       -683.6057361535752079
  Basis Set: (AUG-CC-PVTZ AUX)
    Blend: AUG-CC-PVTZ-RI
    Molecular point group: c1

    Geometry (in Angstrom), charge = 0, multiplicity = 1:

       Center              X                  Y                   Z               Mass
    ------------   -----------------  -----------------  -----------------  -----------------
         O           -0.857796645436     0.885930728728     0.270915103472    15.994914619570
         O           -0.319860645436    -1.654610271272     1.308115103472    15.994914619570
         O            2.093717354564    -1.963552271272    -0.181969896528    15.994914619570
         O            2.744255354564     0.773794728728    -0.443710896528    15.994914619570
         O            0.727975354564     2.526315728728     0.578120103472    15.994914619570
         O           -3.492646645436     0.537771728728    -0.457255896528    15.994914619570
         C           -0.246146645436    -1.406009271272    -0.091336896528    12.000000000000
         C            1.195403654564    -0.954930971272    -0.545876896528    12.000000000000
         C           -1.227214645436    -0.300335271272    -0.477060896528    12.000000000000
         C            1.497064354564     0.362281728728     0.109837103472    12.000000000000
         C            0.411164354564     1.386087728728    -0.163967896528    12.000000000000
         C           -2.672945645436    -0.571407271272    -0.110556896528    12.000000000000
         H           -0.499851645436    -2.350781271272    -0.585711896528     1.007825032230
         H            1.133156354564    -0.817894271272    -1.625919896528     1.007825032230
         H           -1.169944645436    -0.078862271272    -1.554323896528     1.007825032230
         H            1.575323354564     0.227724728728     1.197879103472     1.007825032230
         H            0.357219354564     1.603372728728    -1.245049896528     1.007825032230
         H           -2.738668645436    -0.811585271272     0.957421103472     1.007825032230
         H           -3.042538645436    -1.429721271272    -0.678053896528     1.007825032230
         H           -0.399942645436    -0.776607271272     1.727032103472     1.007825032230
         H            2.966780354564    -1.564443271272    -0.355919896528     1.007825032230
         H            2.999493354564     1.589954728728     0.023523103472     1.007825032230
         H            0.110185354564     3.234579728728     0.323548103472     1.007825032230
         H           -3.090786645436     1.300253728728    -0.004587896528     1.007825032230

  Basis Set: AUG-CC-PVTZ
    Blend: AUG-CC-PVTZ
  Basis Set: (AUG-CC-PVTZ AUX)
    Blend: AUG-CC-PVTZ-JKFIT
	 Reference Energy          =    -683.6057361535752079 [Eh]
	 Singles Energy            =      -0.0000000000000000 [Eh]
	 Same-Spin Energy          =      -0.6664054239253432 [Eh]
	 Opposite-Spin Energy      =      -2.0463245874763101 [Eh]
	 Correlation Energy        =      -2.7127300114016535 [Eh]
	 Total Energy              =    -686.3184661649768259 [Eh]

	 ================> DF-SCS-MP2 Energies <==================
	-----------------------------------------------------------
	 SCS Same-Spin Scale       =       0.3333333333333333 [-]
	 SCS Opposite-Spin Scale   =       1.2000000000000000 [-]
	 SCS Same-Spin Energy      =      -0.2221351413084477 [Eh]
	 SCS Opposite-Spin Energy  =      -2.4555895049715719 [Eh]
	 SCS Correlation Energy    =      -2.6777246462800197 [Eh]
	 SCS Total Energy          =    -686.2834607998552201 [Eh]
	-----------------------------------------------------------

  Dipole Moment: [D]
     X:     0.7439      Y:     3.1234      Z:    -1.0956     Total:     3.3926

*** Psi4 exiting successfully. Buy a developer a beer!
