                               Psi4 1.3.2 release

  ==> Input File <==

--------------------------------------------------------------------------
#psi4
#
memory 32 gb

molecule  {
0 1
  O       -0.8456270     0.8862080     0.2793150
  O       -0.3079160    -1.6544620     1.3165970
  O        2.1058880    -1.9633380    -0.1734630
  O        2.7564030     0.7739560    -0.4353370
  O        0.7402180     2.5264820     0.5866940
  O       -3.4805510     0.5379580    -0.4489300
  C       -0.2340330    -1.4057570    -0.0828570
  C        1.1618270    -0.9690140    -0.5229560
  C       -1.1641140    -0.1364586    -0.3654341
  C        1.5092100     0.3624850     0.1183010
  C        0.4233390     1.3863000    -0.1554910
  C       -2.6607760    -0.5711350    -0.1020210
  H       -0.4877470    -2.3504840    -0.5773070
  H        1.1452800    -0.8176870    -1.6174030
  H       -1.1578680    -0.0786640    -1.5458690
  H        1.5875790     0.2279570     1.2063390
  H        0.3695010     1.6036290    -1.2365780
  H       -2.7264410    -0.8110830     0.9660040
  H       -3.0303370    -1.4295750    -0.6693420
  H       -0.3876700    -0.7765070     1.7356760
  H        2.9789380    -1.5641560    -0.3473760
  H        3.0115730     1.5902370     0.0317380
  H        0.1218180     3.2344810     0.3328360
  H       -3.0789740     1.3005050     0.0038810
units angstrom
no_reorient  #important for SAPT in psi4, default
symmetry c1  #important for SAPT in psi4, default
}

set PROPERTIES_ORIGIN ["COM"]
properties('MP2/aug-cc-pvtz', properties = ['dipole'])
--------------------------------------------------------------------------

    Molecular point group: c1
  Charge       = 0
  Multiplicity = 1
  Basis Set: AUG-CC-PVTZ
    Blend: AUG-CC-PVTZ
  Basis Set: (AUG-CC-PVTZ AUX)
    Blend: AUG-CC-PVTZ-JKFIT

    Orbital Energies [Eh]
    ---------------------

    Doubly Occupied:

       1A    -20.615961     2A    -20.609651     3A    -20.590036
       4A    -20.561877     5A    -20.560758     6A    -20.559702
       7A    -11.375968     8A    -11.305306     9A    -11.304356
      10A    -11.291148    11A    -11.289714    12A    -11.282045
      13A     -1.510423    14A     -1.414271    15A     -1.393652
      16A     -1.369759    17A     -1.359140    18A     -1.352532
      19A     -1.074105    20A     -1.040555    21A     -0.939669
      22A     -0.899212    23A     -0.853684    24A     -0.815125
      25A     -0.768535    26A     -0.754586    27A     -0.728849
      28A     -0.720269    29A     -0.697206    30A     -0.669584
      31A     -0.659682    32A     -0.649206    33A     -0.630234
      34A     -0.621472    35A     -0.599687    36A     -0.586106
      37A     -0.580198    38A     -0.559314    39A     -0.550209
      40A     -0.545768    41A     -0.528402    42A     -0.522299
      43A     -0.492456    44A     -0.475488    45A     -0.466963
      46A     -0.452931    47A     -0.429464    48A     -0.402096

  @DF-RHF Final Energy:  -683.57015893590562

   => Energetics <=

    Nuclear Repulsion Energy =            838.7836215234428892
    One-Electron Energy =               -2605.7882548958705229
    Two-Electron Energy =                1083.4344744365218958
    Total Energy =                       -683.5701589359057380
  Basis Set: (AUG-CC-PVTZ AUX)
    Blend: AUG-CC-PVTZ-RI
    Molecular point group: c1

    Geometry (in Angstrom), charge = 0, multiplicity = 1:

       Center              X                  Y                   Z               Mass
    ------------   -----------------  -----------------  -----------------  -----------------
         O           -0.858110703314     0.876045245574     0.263009860514    15.994914619570
         O           -0.320399703314    -1.664624754426     1.300291860514    15.994914619570
         O            2.093404296686    -1.973500754426    -0.189768139486    15.994914619570
         O            2.743919296686     0.763793245574    -0.451642139486    15.994914619570
         O            0.727734296686     2.516319245574     0.570388860514    15.994914619570
         O           -3.493034703314     0.527795245574    -0.465235139486    15.994914619570
         C           -0.246516703314    -1.415919754426    -0.099162139486    12.000000000000
         C            1.149343296686    -0.979176754426    -0.539261139486    12.000000000000
         C           -1.176597703314    -0.146621354426    -0.381739239486    12.000000000000
         C            1.496726296686     0.352322245574     0.101995860514    12.000000000000
         C            0.410855296686     1.376137245574    -0.171796139486    12.000000000000
         C           -2.673259703314    -0.581297754426    -0.118326139486    12.000000000000
         H           -0.500230703314    -2.360646754426    -0.593612139486     1.007825032230
         H            1.132796296686    -0.827849754426    -1.633708139486     1.007825032230
         H           -1.170351703314    -0.088826754426    -1.562174139486     1.007825032230
         H            1.575095296686     0.217794245574     1.190033860514     1.007825032230
         H            0.357017296686     1.593466245574    -1.252883139486     1.007825032230
         H           -2.738924703314    -0.821245754426     0.949698860514     1.007825032230
         H           -3.042820703314    -1.439737754426    -0.685647139486     1.007825032230
         H           -0.400153703314    -0.786669754426     1.719370860514     1.007825032230
         H            2.966454296686    -1.574318754426    -0.363681139486     1.007825032230
         H            2.999089296686     1.580074245574     0.015432860514     1.007825032230
         H            0.109334296686     3.224318245574     0.316530860514     1.007825032230
         H           -3.091457703314     1.290342245574    -0.012424139486     1.007825032230

  Basis Set: AUG-CC-PVTZ
    Blend: AUG-CC-PVTZ
  Basis Set: (AUG-CC-PVTZ AUX)
    Blend: AUG-CC-PVTZ-JKFIT
	 Reference Energy          =    -683.5701589359056243 [Eh]
	 Singles Energy            =      -0.0000000000000000 [Eh]
	 Same-Spin Energy          =      -0.6670999694196271 [Eh]
	 Opposite-Spin Energy      =      -2.0456608154571683 [Eh]
	 Correlation Energy        =      -2.7127607848767954 [Eh]
	 Total Energy              =    -686.2829197207823881 [Eh]

	 ================> DF-SCS-MP2 Energies <==================
	-----------------------------------------------------------
	 SCS Same-Spin Scale       =       0.3333333333333333 [-]
	 SCS Opposite-Spin Scale   =       1.2000000000000000 [-]
	 SCS Same-Spin Energy      =      -0.2223666564732090 [Eh]
	 SCS Opposite-Spin Energy  =      -2.4547929785486020 [Eh]
	 SCS Correlation Energy    =      -2.6771596350218112 [Eh]
	 SCS Total Energy          =    -686.2473185709274048 [Eh]
	-----------------------------------------------------------

  Dipole Moment: [D]
     X:     0.9721      Y:     3.7207      Z:    -0.7838     Total:     3.9247

*** Psi4 exiting successfully. Buy a developer a beer!
