                               Psi4 1.3.2 release

  ==> Input File <==

--------------------------------------------------------------------------
#psi4
#
memory 32 gb

molecule  {
0 1
  O       -0.8456270     0.8862080     0.2793150
  O       -0.3079160    -1.6544620     1.3165970
  O        2.1058880    -1.9633380    -0.1734630
  O        2.7564030     0.7739560    -0.4353370
  O        0.7402180     2.5264820     0.5866940
  O       -3.4805510     0.5379580    -0.4489300
  C       -0.2340330    -1.4057570    -0.0828570
  C        1.1618270    -0.9690140    -0.5229560
  C       -1.2150640    -0.3000600    -0.4685780
  C        1.5092100     0.3624850     0.1183010
  C        0.4233390     1.3863000    -0.1554910
  C       -2.6607760    -0.5711350    -0.1020210
  H       -0.4877470    -2.3504840    -0.5773070
  H        1.1437825    -0.8039920    -1.7164495
  H       -1.1578680    -0.0786640    -1.5458690
  H        1.5875790     0.2279570     1.2063390
  H        0.3695010     1.6036290    -1.2365780
  H       -2.7264410    -0.8110830     0.9660040
  H       -3.0303370    -1.4295750    -0.6693420
  H       -0.3876700    -0.7765070     1.7356760
  H        2.9789380    -1.5641560    -0.3473760
  H        3.0115730     1.5902370     0.0317380
  H        0.1218180     3.2344810     0.3328360
  H       -3.0789740     1.3005050     0.0038810
units angstrom
no_reorient  #important for SAPT in psi4, default
symmetry c1  #important for SAPT in psi4, default
}

set PROPERTIES_ORIGIN ["COM"]
properties('MP2/aug-cc-pvtz', properties = ['dipole'])
--------------------------------------------------------------------------

    Molecular point group: c1
  Charge       = 0
  Multiplicity = 1
  Basis Set: AUG-CC-PVTZ
    Blend: AUG-CC-PVTZ
  Basis Set: (AUG-CC-PVTZ AUX)
    Blend: AUG-CC-PVTZ-JKFIT

    Orbital Energies [Eh]
    ---------------------

    Doubly Occupied:

       1A    -20.600188     2A    -20.595004     3A    -20.585581
       4A    -20.566597     5A    -20.566228     6A    -20.564431
       7A    -11.362506     8A    -11.306847     9A    -11.304468
      10A    -11.300282    11A    -11.297859    12A    -11.285740
      13A     -1.448296    14A     -1.392432    15A     -1.389370
      16A     -1.368204    17A     -1.357509    18A     -1.352709
      19A     -1.071139    20A     -1.051455    21A     -0.947993
      22A     -0.886951    23A     -0.847346    24A     -0.804673
      25A     -0.759502    26A     -0.737229    27A     -0.719579
      28A     -0.712987    29A     -0.689191    30A     -0.661616
      31A     -0.659585    32A     -0.639463    33A     -0.623238
      34A     -0.619016    35A     -0.598254    36A     -0.579350
      37A     -0.576225    38A     -0.562097    39A     -0.540115
      40A     -0.535150    41A     -0.528336    42A     -0.512117
      43A     -0.495824    44A     -0.483411    45A     -0.469792
      46A     -0.457104    47A     -0.443078    48A     -0.430118

  @DF-RHF Final Energy:  -683.60149503480102

   => Energetics <=

    Nuclear Repulsion Energy =            835.3716499396944073
    One-Electron Energy =               -2599.3739237422023507
    Two-Electron Energy =                1080.4007787677069246
    Total Energy =                       -683.6014950348010188
  Basis Set: (AUG-CC-PVTZ AUX)
    Blend: AUG-CC-PVTZ-RI
    Molecular point group: c1

    Geometry (in Angstrom), charge = 0, multiplicity = 1:

       Center              X                  Y                   Z               Mass
    ------------   -----------------  -----------------  -----------------  -----------------
         O           -0.854706850791     0.886871514349     0.270438068747    15.994914619570
         O           -0.316995850791    -1.653798485651     1.307720068747    15.994914619570
         O            2.096808149209    -1.962674485651    -0.182339931253    15.994914619570
         O            2.747323149209     0.774619514349    -0.444213931253    15.994914619570
         O            0.731138149209     2.527145514349     0.577817068747    15.994914619570
         O           -3.489630850791     0.538621514349    -0.457806931253    15.994914619570
         C           -0.243112850791    -1.405093485651    -0.091733931253    12.000000000000
         C            1.152747149209    -0.968350485651    -0.531832931253    12.000000000000
         C           -1.224143850791    -0.299396485651    -0.477454931253    12.000000000000
         C            1.500130149209     0.363148514349     0.109424068747    12.000000000000
         C            0.414259149209     1.386963514349    -0.164367931253    12.000000000000
         C           -2.669855850791    -0.570471485651    -0.110897931253    12.000000000000
         H           -0.496826850791    -2.349820485651    -0.586183931253     1.007825032230
         H            1.134702649209    -0.803328485651    -1.725326431253     1.007825032230
         H           -1.166947850791    -0.078000485651    -1.554745931253     1.007825032230
         H            1.578499149209     0.228620514349     1.197462068747     1.007825032230
         H            0.360421149209     1.604292514349    -1.245454931253     1.007825032230
         H           -2.735520850791    -0.810419485651     0.957127068747     1.007825032230
         H           -3.039416850791    -1.428911485651    -0.678218931253     1.007825032230
         H           -0.396749850791    -0.775843485651     1.726799068747     1.007825032230
         H            2.969858149209    -1.563492485651    -0.356252931253     1.007825032230
         H            3.002493149209     1.590900514349     0.022861068747     1.007825032230
         H            0.112738149209     3.235144514349     0.323959068747     1.007825032230
         H           -3.088053850791     1.301168514349    -0.004995931253     1.007825032230

  Basis Set: AUG-CC-PVTZ
    Blend: AUG-CC-PVTZ
  Basis Set: (AUG-CC-PVTZ AUX)
    Blend: AUG-CC-PVTZ-JKFIT
	 Reference Energy          =    -683.6014950348010188 [Eh]
	 Singles Energy            =      -0.0000000000000000 [Eh]
	 Same-Spin Energy          =      -0.6665880753580955 [Eh]
	 Opposite-Spin Energy      =      -2.0471907416076727 [Eh]
	 Correlation Energy        =      -2.7137788169657684 [Eh]
	 Total Energy              =    -686.3152738517667331 [Eh]

	 ================> DF-SCS-MP2 Energies <==================
	-----------------------------------------------------------
	 SCS Same-Spin Scale       =       0.3333333333333333 [-]
	 SCS Opposite-Spin Scale   =       1.2000000000000000 [-]
	 SCS Same-Spin Energy      =      -0.2221960251193651 [Eh]
	 SCS Opposite-Spin Energy  =      -2.4566288899292070 [Eh]
	 SCS Correlation Energy    =      -2.6788249150485721 [Eh]
	 SCS Total Energy          =    -686.2803199498496269 [Eh]
	-----------------------------------------------------------

  Dipole Moment: [D]
     X:     0.6948      Y:     3.1286      Z:    -1.0212     Total:     3.3636

*** Psi4 exiting successfully. Buy a developer a beer!
