                               Psi4 1.4a3.dev225

  ==> Input File <==

--------------------------------------------------------------------------
#psi4
#
memory 32 gb

molecule  {
0 1
  O       -0.8456650     0.8861440     0.2793920
  O       -0.3077290    -1.6543970     1.3165920
  O        2.1058490    -1.9633390    -0.1734930
  O        2.7563870     0.7740080    -0.4352340
  O        0.7401070     2.5265290     0.5865970
  O       -3.4805150     0.5379850    -0.4487790
  C       -0.2340150    -1.4057960    -0.0828600
  C        1.1284818    -0.9338788    -0.5353425
  C       -1.2150830    -0.3001220    -0.4685840
  C        1.5091960     0.3624950     0.1183140
  C        0.4232960     1.3863010    -0.1554910
  C       -2.6608140    -0.5711940    -0.1020800
  H       -0.4877200    -2.3505680    -0.5772350
  H        1.1452880    -0.8176810    -1.6174430
  H       -1.1578130    -0.0786490    -1.5458470
  H        1.5874550     0.2279380     1.2063560
  H        0.3693510     1.6035860    -1.2365730
  H       -2.7265370    -0.8113720     0.9658980
  H       -3.0304070    -1.4295080    -0.6695770
  H       -0.3878110    -0.7763940     1.7355090
  H        2.9789120    -1.5642300    -0.3474430
  H        3.0116250     1.5901680     0.0320000
  H        0.1223170     3.2347930     0.3320250
  H       -3.0786550     1.3004670     0.0038890
units angstrom
no_reorient  #important for SAPT in psi4, default
symmetry c1  #important for SAPT in psi4, default
}

set PROPERTIES_ORIGIN ["COM"]
properties('MP2/aug-cc-pvtz', properties = ['dipole'])
--------------------------------------------------------------------------

    Molecular point group: c1
  Charge       = 0
  Multiplicity = 1
  Basis Set: AUG-CC-PVTZ
    Blend: AUG-CC-PVTZ
  Basis Set: (AUG-CC-PVTZ AUX)
    Blend: AUG-CC-PVTZ-JKFIT

    Orbital Energies [Eh]
    ---------------------

    Doubly Occupied:

       1A    -20.600627     2A    -20.596265     3A    -20.586450
       4A    -20.566645     5A    -20.564844     6A    -20.558561
       7A    -11.363065     8A    -11.305221     9A    -11.300468
      10A    -11.298218    11A    -11.294605    12A    -11.286183
      13A     -1.449309    14A     -1.391131    15A     -1.387626
      16A     -1.367483    17A     -1.354800    18A     -1.340641
      19A     -1.079738    20A     -1.053836    21A     -0.950644
      22A     -0.889171    23A     -0.848205    24A     -0.811371
      25A     -0.758983    26A     -0.738180    27A     -0.720461
      28A     -0.714963    29A     -0.689815    30A     -0.666775
      31A     -0.655463    32A     -0.638945    33A     -0.622546
      34A     -0.616006    35A     -0.598345    36A     -0.580992
      37A     -0.575768    38A     -0.561648    39A     -0.537599
      40A     -0.532677    41A     -0.528821    42A     -0.512908
      43A     -0.496164    44A     -0.484874    45A     -0.473392
      46A     -0.463356    47A     -0.446922    48A     -0.430806

  @DF-RHF Final Energy:  -683.60478607873540

   => Energetics <=

    Nuclear Repulsion Energy =            836.2482262094436010
    One-Electron Energy =               -2601.1229954965056095
    Two-Electron Energy =                1081.2699832083264937
    Total Energy =                       -683.6047860787355148
  Basis Set: (AUG-CC-PVTZ AUX)
    Blend: AUG-CC-PVTZ-RI
    Molecular point group: c1

    Geometry (in Angstrom), charge = 0, multiplicity = 1:

       Center              X                  Y                   Z               Mass
    ------------   -----------------  -----------------  -----------------  -----------------
         O           -0.852528267394     0.884541957793     0.270777985093    15.994914619570
         O           -0.314592267394    -1.655999042207     1.307977985093    15.994914619570
         O            2.098985732606    -1.964941042207    -0.182107014907    15.994914619570
         O            2.749523732606     0.772405957793    -0.443848014907    15.994914619570
         O            0.733243732606     2.524926957793     0.577982985093    15.994914619570
         O           -3.487378267394     0.536382957793    -0.457393014907    15.994914619570
         C           -0.240878267394    -1.407398042207    -0.091474014907    12.000000000000
         C            1.121618532606    -0.935480842207    -0.543956514907    12.000000000000
         C           -1.221946267394    -0.301724042207    -0.477198014907    12.000000000000
         C            1.502332732606     0.360892957793     0.109699985093    12.000000000000
         C            0.416432732606     1.384698957793    -0.164105014907    12.000000000000
         C           -2.667677267394    -0.572796042207    -0.110694014907    12.000000000000
         H           -0.494583267394    -2.352170042207    -0.585849014907     1.007825032230
         H            1.138424732606    -0.819283042207    -1.626057014907     1.007825032230
         H           -1.164676267394    -0.080251042207    -1.554461014907     1.007825032230
         H            1.580591732606     0.226335957793     1.197741985093     1.007825032230
         H            0.362487732606     1.601983957793    -1.245187014907     1.007825032230
         H           -2.733400267394    -0.812974042207     0.957283985093     1.007825032230
         H           -3.037270267394    -1.431110042207    -0.678191014907     1.007825032230
         H           -0.394674267394    -0.777996042207     1.726894985093     1.007825032230
         H            2.972048732606    -1.565832042207    -0.356057014907     1.007825032230
         H            3.004761732606     1.588565957793     0.023385985093     1.007825032230
         H            0.115453732606     3.233190957793     0.323410985093     1.007825032230
         H           -3.085518267394     1.298864957793    -0.004725014907     1.007825032230

  Basis Set: AUG-CC-PVTZ
    Blend: AUG-CC-PVTZ
  Basis Set: (AUG-CC-PVTZ AUX)
    Blend: AUG-CC-PVTZ-JKFIT
	 Reference Energy          =    -683.6047860787354011 [Eh]
	 Singles Energy            =      -0.0000000000000000 [Eh]
	 Same-Spin Energy          =      -0.6667147561716416 [Eh]
	 Opposite-Spin Energy      =      -2.0472772375838466 [Eh]
	 Correlation Energy        =      -2.7139919937554882 [Eh]
	 Total Energy              =    -686.3187780724908862 [Eh]

	 ================> DF-SCS-MP2 Energies <==================
	-----------------------------------------------------------
	 SCS Same-Spin Scale       =       0.3333333333333333 [-]
	 SCS Opposite-Spin Scale   =       1.2000000000000000 [-]
	 SCS Same-Spin Energy      =      -0.2222382520572138 [Eh]
	 SCS Opposite-Spin Energy  =      -2.4567326851006159 [Eh]
	 SCS Correlation Energy    =      -2.6789709371578296 [Eh]
	 SCS Total Energy          =    -686.2837570158932294 [Eh]
	-----------------------------------------------------------

  Dipole Moment: [D]
     X:     0.5383      Y:     3.2769      Z:    -1.1265     Total:     3.5066

*** Psi4 exiting successfully. Buy a developer a beer!
