                               Psi4 1.3.2 release

  ==> Input File <==

--------------------------------------------------------------------------
#psi4
#
memory 32 gb

molecule  {
0 1
  O       -0.7083347     0.8738050     0.2157653
  O       -0.3079160    -1.6544620     1.3165970
  O        2.1058880    -1.9633380    -0.1734630
  O        2.7564030     0.7739560    -0.4353370
  O        0.7402180     2.5264820     0.5866940
  O       -3.4805510     0.5379580    -0.4489300
  C       -0.2340330    -1.4057570    -0.0828570
  C        1.1618270    -0.9690140    -0.5229560
  C       -1.2150640    -0.3000600    -0.4685780
  C        1.5092100     0.3624850     0.1183010
  C        0.4233390     1.3863000    -0.1554910
  C       -2.6607760    -0.5711350    -0.1020210
  H       -0.4877470    -2.3504840    -0.5773070
  H        1.1452800    -0.8176870    -1.6174030
  H       -1.1578680    -0.0786640    -1.5458690
  H        1.5875790     0.2279570     1.2063390
  H        0.3695010     1.6036290    -1.2365780
  H       -2.7264410    -0.8110830     0.9660040
  H       -3.0303370    -1.4295750    -0.6693420
  H       -0.3876700    -0.7765070     1.7356760
  H        2.9789380    -1.5641560    -0.3473760
  H        3.0115730     1.5902370     0.0317380
  H        0.1218180     3.2344810     0.3328360
  H       -3.0789740     1.3005050     0.0038810
units angstrom
no_reorient  #important for SAPT in psi4, default
symmetry c1  #important for SAPT in psi4, default
}

set PROPERTIES_ORIGIN ["COM"]
properties('MP2/aug-cc-pvtz', properties = ['dipole'])
--------------------------------------------------------------------------

    Molecular point group: c1
  Charge       = 0
  Multiplicity = 1
  Basis Set: AUG-CC-PVTZ
    Blend: AUG-CC-PVTZ
  Basis Set: (AUG-CC-PVTZ AUX)
    Blend: AUG-CC-PVTZ-JKFIT

    Orbital Energies [Eh]
    ---------------------

    Doubly Occupied:

       1A    -20.592369     2A    -20.589072     3A    -20.576690
       4A    -20.572076     5A    -20.567052     6A    -20.562097
       7A    -11.348466     8A    -11.314451     9A    -11.297768
      10A    -11.295323    11A    -11.292586    12A    -11.288488
      13A     -1.481546    14A     -1.389277    15A     -1.387777
      16A     -1.370932    17A     -1.363261    18A     -1.352854
      19A     -1.079106    20A     -1.055027    21A     -0.949542
      22A     -0.887446    23A     -0.860192    24A     -0.812094
      25A     -0.760478    26A     -0.742053    27A     -0.723680
      28A     -0.721867    29A     -0.698383    30A     -0.667082
      31A     -0.656387    32A     -0.643729    33A     -0.628099
      34A     -0.621614    35A     -0.602508    36A     -0.581394
      37A     -0.578751    38A     -0.560128    39A     -0.543071
      40A     -0.534741    41A     -0.522664    42A     -0.516007
      43A     -0.495845    44A     -0.484004    45A     -0.471450
      46A     -0.454475    47A     -0.442546    48A     -0.421706

  @DF-RHF Final Energy:  -683.59844031729051

   => Energetics <=

    Nuclear Repulsion Energy =            839.5038082786351197
    One-Electron Energy =               -2607.4881901406047291
    Two-Electron Energy =                1084.3859415446793264
    Total Energy =                       -683.5984403172903967
  Basis Set: (AUG-CC-PVTZ AUX)
    Blend: AUG-CC-PVTZ-RI
    Molecular point group: c1

    Geometry (in Angstrom), charge = 0, multiplicity = 1:

       Center              X                  Y                   Z               Mass
    ------------   -----------------  -----------------  -----------------  -----------------
         O           -0.729618518835     0.875646916533     0.211979078709    15.994914619570
         O           -0.329199818835    -1.652620083467     1.312810778709    15.994914619570
         O            2.084604181165    -1.961496083467    -0.177249221291    15.994914619570
         O            2.735119181165     0.775797916533    -0.439123221291    15.994914619570
         O            0.718934181165     2.528323916533     0.582907778709    15.994914619570
         O           -3.501834818835     0.539799916533    -0.452716221291    15.994914619570
         C           -0.255316818835    -1.403915083467    -0.086643221291    12.000000000000
         C            1.140543181165    -0.967172083467    -0.526742221291    12.000000000000
         C           -1.236347818835    -0.298218083467    -0.472364221291    12.000000000000
         C            1.487926181165     0.364326916533     0.114514778709    12.000000000000
         C            0.402055181165     1.388141916533    -0.159277221291    12.000000000000
         C           -2.682059818835    -0.569293083467    -0.105807221291    12.000000000000
         H           -0.509030818835    -2.348642083467    -0.581093221291     1.007825032230
         H            1.123996181165    -0.815845083467    -1.621189221291     1.007825032230
         H           -1.179151818835    -0.076822083467    -1.549655221291     1.007825032230
         H            1.566295181165     0.229798916533     1.202552778709     1.007825032230
         H            0.348217181165     1.605470916533    -1.240364221291     1.007825032230
         H           -2.747724818835    -0.809241083467     0.962217778709     1.007825032230
         H           -3.051620818835    -1.427733083467    -0.673128221291     1.007825032230
         H           -0.408953818835    -0.774665083467     1.731889778709     1.007825032230
         H            2.957654181164    -1.562314083467    -0.351162221291     1.007825032230
         H            2.990289181165     1.592078916533     0.027951778709     1.007825032230
         H            0.100534181165     3.236322916533     0.329049778709     1.007825032230
         H           -3.100257818835     1.302346916533     0.000094778709     1.007825032230

  Basis Set: AUG-CC-PVTZ
    Blend: AUG-CC-PVTZ
  Basis Set: (AUG-CC-PVTZ AUX)
    Blend: AUG-CC-PVTZ-JKFIT
	 Reference Energy          =    -683.5984403172905104 [Eh]
	 Singles Energy            =      -0.0000000000000000 [Eh]
	 Same-Spin Energy          =      -0.6654703352259711 [Eh]
	 Opposite-Spin Energy      =      -2.0421813867445286 [Eh]
	 Correlation Energy        =      -2.7076517219704996 [Eh]
	 Total Energy              =    -686.3060920392609887 [Eh]

	 ================> DF-SCS-MP2 Energies <==================
	-----------------------------------------------------------
	 SCS Same-Spin Scale       =       0.3333333333333333 [-]
	 SCS Opposite-Spin Scale   =       1.2000000000000000 [-]
	 SCS Same-Spin Energy      =      -0.2218234450753237 [Eh]
	 SCS Opposite-Spin Energy  =      -2.4506176640934343 [Eh]
	 SCS Correlation Energy    =      -2.6724411091687581 [Eh]
	 SCS Total Energy          =    -686.2708814264592547 [Eh]
	-----------------------------------------------------------

  Dipole Moment: [D]
     X:    -0.0892      Y:     2.8993      Z:    -0.9737     Total:     3.0597

*** Psi4 exiting successfully. Buy a developer a beer!
