                               Psi4 1.4a3.dev225

  ==> Input File <==

--------------------------------------------------------------------------
#psi4
#
memory 32 gb

molecule  {
0 1
  O       -0.8456650     0.8861440     0.2793920
  O       -0.3077290    -1.6543970     1.3165920
  O        2.1058490    -1.9633390    -0.1734930
  O        2.7563870     0.7740080    -0.4352340
  O        0.7401070     2.5265290     0.5865970
  O       -3.4805150     0.5379850    -0.4487790
  C       -0.2340150    -1.4057960    -0.0828600
  C        1.1618410    -0.9690160    -0.5229920
  C       -1.2150830    -0.3001220    -0.4685840
  C        1.5091960     0.3624950     0.1183140
  C        0.4232960     1.3863010    -0.1554910
  C       -2.6417397    -0.5676176    -0.1069155
  H       -0.4877200    -2.3505680    -0.5772350
  H        1.1452880    -0.8176810    -1.6174430
  H       -1.1578130    -0.0786490    -1.5458470
  H        1.5874550     0.2279380     1.2063560
  H        0.3693510     1.6035860    -1.2365730
  H       -2.7265370    -0.8113720     0.9658980
  H       -3.0304070    -1.4295080    -0.6695770
  H       -0.3878110    -0.7763940     1.7355090
  H        2.9789120    -1.5642300    -0.3474430
  H        3.0116250     1.5901680     0.0320000
  H        0.1223170     3.2347930     0.3320250
  H       -3.0786550     1.3004670     0.0038890
units angstrom
no_reorient  #important for SAPT in psi4, default
symmetry c1  #important for SAPT in psi4, default
}

set PROPERTIES_ORIGIN ["COM"]
properties('MP2/aug-cc-pvtz', properties = ['dipole'])
--------------------------------------------------------------------------

    Molecular point group: c1
  Charge       = 0
  Multiplicity = 1
  Basis Set: AUG-CC-PVTZ
    Blend: AUG-CC-PVTZ
  Basis Set: (AUG-CC-PVTZ AUX)
    Blend: AUG-CC-PVTZ-JKFIT

    Orbital Energies [Eh]
    ---------------------

    Doubly Occupied:

       1A    -20.600350     2A    -20.595346     3A    -20.585614
       4A    -20.565502     5A    -20.564389     6A    -20.564049
       7A    -11.362771     8A    -11.304707     9A    -11.299235
      10A    -11.297541    11A    -11.295245    12A    -11.285942
      13A     -1.448665    14A     -1.392232    15A     -1.389277
      16A     -1.367173    17A     -1.356131    18A     -1.351782
      19A     -1.073979    20A     -1.054137    21A     -0.949732
      22A     -0.887885    23A     -0.847310    24A     -0.809236
      25A     -0.760024    26A     -0.737613    27A     -0.722570
      28A     -0.714662    29A     -0.688955    30A     -0.665967
      31A     -0.658989    32A     -0.640363    33A     -0.623153
      34A     -0.619249    35A     -0.596243    36A     -0.580660
      37A     -0.575833    38A     -0.562634    39A     -0.540243
      40A     -0.535081    41A     -0.528624    42A     -0.512623
      43A     -0.496009    44A     -0.483553    45A     -0.470421
      46A     -0.460382    47A     -0.445078    48A     -0.431349

  @DF-RHF Final Energy:  -683.60751469986735

   => Energetics <=

    Nuclear Repulsion Energy =            836.3026500037095730
    One-Electron Energy =               -2601.2233088571592816
    Two-Electron Energy =                1081.3131441535824706
    Total Energy =                       -683.6075146998673517
  Basis Set: (AUG-CC-PVTZ AUX)
    Blend: AUG-CC-PVTZ-RI
    Molecular point group: c1

    Geometry (in Angstrom), charge = 0, multiplicity = 1:

       Center              X                  Y                   Z               Mass
    ------------   -----------------  -----------------  -----------------  -----------------
         O           -0.856022603509     0.886645270432     0.270277161461    15.994914619570
         O           -0.318086603509    -1.653895729568     1.307477161461    15.994914619570
         O            2.095491396491    -1.962837729568    -0.182607838539    15.994914619570
         O            2.746029396491     0.774509270432    -0.444348838539    15.994914619570
         O            0.729749396491     2.527030270432     0.577482161461    15.994914619570
         O           -3.490872603509     0.538486270432    -0.457893838539    15.994914619570
         C           -0.244372603509    -1.405294729568    -0.091974838539    12.000000000000
         C            1.151483396491    -0.968514729568    -0.532106838539    12.000000000000
         C           -1.225440603509    -0.299620729568    -0.477698838539    12.000000000000
         C            1.498838396491     0.362996270432     0.109199161461    12.000000000000
         C            0.412938396491     1.386802270432    -0.164605838539    12.000000000000
         C           -2.652097303509    -0.567116329568    -0.116030338539    12.000000000000
         H           -0.498077603509    -2.350066729568    -0.586349838539     1.007825032230
         H            1.134930396491    -0.817179729568    -1.626557838539     1.007825032230
         H           -1.168170603509    -0.078147729568    -1.554961838539     1.007825032230
         H            1.577097396491     0.228439270432     1.197241161461     1.007825032230
         H            0.358993396491     1.604087270432    -1.245687838539     1.007825032230
         H           -2.736894603509    -0.810870729568     0.956783161461     1.007825032230
         H           -3.040764603509    -1.429006729568    -0.678691838539     1.007825032230
         H           -0.398168603509    -0.775892729568     1.726394161461     1.007825032230
         H            2.968554396491    -1.563728729568    -0.356557838539     1.007825032230
         H            3.001267396491     1.590669270432     0.022885161461     1.007825032230
         H            0.111959396491     3.235294270432     0.322910161461     1.007825032230
         H           -3.089012603509     1.300968270432    -0.005225838539     1.007825032230

  Basis Set: AUG-CC-PVTZ
    Blend: AUG-CC-PVTZ
  Basis Set: (AUG-CC-PVTZ AUX)
    Blend: AUG-CC-PVTZ-JKFIT
	 Reference Energy          =    -683.6075146998673517 [Eh]
	 Singles Energy            =      -0.0000000000000000 [Eh]
	 Same-Spin Energy          =      -0.6665188675511349 [Eh]
	 Opposite-Spin Energy      =      -2.0464863350626645 [Eh]
	 Correlation Energy        =      -2.7130052026137994 [Eh]
	 Total Energy              =    -686.3205199024811236 [Eh]

	 ================> DF-SCS-MP2 Energies <==================
	-----------------------------------------------------------
	 SCS Same-Spin Scale       =       0.3333333333333333 [-]
	 SCS Opposite-Spin Scale   =       1.2000000000000000 [-]
	 SCS Same-Spin Energy      =      -0.2221729558503783 [Eh]
	 SCS Opposite-Spin Energy  =      -2.4557836020751975 [Eh]
	 SCS Correlation Energy    =      -2.6779565579255760 [Eh]
	 SCS Total Energy          =    -686.2854712577928922 [Eh]
	-----------------------------------------------------------

  Dipole Moment: [D]
     X:     0.7069      Y:     3.1462      Z:    -1.1028     Total:     3.4080

*** Psi4 exiting successfully. Buy a developer a beer!
