                               Psi4 1.3.2 release

  ==> Input File <==

--------------------------------------------------------------------------
#psi4
#
memory 32 gb

molecule  {
0 1
  O       -0.8290091     0.7777558     0.1772568
  O       -0.3079160    -1.6544620     1.3165970
  O        2.1058880    -1.9633380    -0.1734630
  O        2.7564030     0.7739560    -0.4353370
  O        0.7402180     2.5264820     0.5866940
  O       -3.4805510     0.5379580    -0.4489300
  C       -0.2340330    -1.4057570    -0.0828570
  C        1.1618270    -0.9690140    -0.5229560
  C       -1.2150640    -0.3000600    -0.4685780
  C        1.5092100     0.3624850     0.1183010
  C        0.4233390     1.3863000    -0.1554910
  C       -2.6607760    -0.5711350    -0.1020210
  H       -0.4877470    -2.3504840    -0.5773070
  H        1.1452800    -0.8176870    -1.6174030
  H       -1.1578680    -0.0786640    -1.5458690
  H        1.5875790     0.2279570     1.2063390
  H        0.3695010     1.6036290    -1.2365780
  H       -2.7264410    -0.8110830     0.9660040
  H       -3.0303370    -1.4295750    -0.6693420
  H       -0.3876700    -0.7765070     1.7356760
  H        2.9789380    -1.5641560    -0.3473760
  H        3.0115730     1.5902370     0.0317380
  H        0.1218180     3.2344810     0.3328360
  H       -3.0789740     1.3005050     0.0038810
units angstrom
no_reorient  #important for SAPT in psi4, default
symmetry c1  #important for SAPT in psi4, default
}

set PROPERTIES_ORIGIN ["COM"]
properties('MP2/aug-cc-pvtz', properties = ['dipole'])
--------------------------------------------------------------------------

    Molecular point group: c1
  Charge       = 0
  Multiplicity = 1
  Basis Set: AUG-CC-PVTZ
    Blend: AUG-CC-PVTZ
  Basis Set: (AUG-CC-PVTZ AUX)
    Blend: AUG-CC-PVTZ-JKFIT

    Orbital Energies [Eh]
    ---------------------

    Doubly Occupied:

       1A    -20.612320     2A    -20.589765     3A    -20.585232
       4A    -20.563917     5A    -20.562971     6A    -20.562588
       7A    -11.370421     8A    -11.299321     9A    -11.292689
      10A    -11.292337    11A    -11.287927    12A    -11.281372
      13A     -1.473671    14A     -1.409009    15A     -1.391415
      16A     -1.368576    17A     -1.360491    18A     -1.352462
      19A     -1.068073    20A     -1.059785    21A     -0.946774
      22A     -0.893284    23A     -0.852963    24A     -0.811144
      25A     -0.766999    26A     -0.746031    27A     -0.727619
      28A     -0.717021    29A     -0.697189    30A     -0.669486
      31A     -0.659000    32A     -0.640994    33A     -0.629144
      34A     -0.622115    35A     -0.597338    36A     -0.585006
      37A     -0.577574    38A     -0.560003    39A     -0.543424
      40A     -0.537870    41A     -0.532486    42A     -0.515623
      43A     -0.490968    44A     -0.478641    45A     -0.464539
      46A     -0.456832    47A     -0.440819    48A     -0.420364

  @DF-RHF Final Energy:  -683.59675829368598

   => Energetics <=

    Nuclear Repulsion Energy =            839.5960255210464993
    One-Electron Energy =               -2607.6543826029383126
    Two-Electron Energy =                1084.4615987882057198
    Total Energy =                       -683.5967582936859799
  Basis Set: (AUG-CC-PVTZ AUX)
    Blend: AUG-CC-PVTZ-RI
    Molecular point group: c1

    Geometry (in Angstrom), charge = 0, multiplicity = 1:

       Center              X                  Y                   Z               Mass
    ------------   -----------------  -----------------  -----------------  -----------------
         O           -0.839573489722     0.788129705015     0.176891263925    15.994914619570
         O           -0.318480389722    -1.644088094985     1.316231463925    15.994914619570
         O            2.095323610278    -1.952964094985    -0.173828536075    15.994914619570
         O            2.745838610278     0.784329905015    -0.435702536075    15.994914619570
         O            0.729653610278     2.536855905015     0.586328463925    15.994914619570
         O           -3.491115389722     0.548331905015    -0.449295536075    15.994914619570
         C           -0.244597389722    -1.395383094985    -0.083222536075    12.000000000000
         C            1.151262610278    -0.958640094985    -0.523321536075    12.000000000000
         C           -1.225628389722    -0.289686094985    -0.468943536075    12.000000000000
         C            1.498645610278     0.372858905015     0.117935463925    12.000000000000
         C            0.412774610278     1.396673905015    -0.155856536075    12.000000000000
         C           -2.671340389722    -0.560761094985    -0.102386536075    12.000000000000
         H           -0.498311389722    -2.340110094985    -0.577672536075     1.007825032230
         H            1.134715610278    -0.807313094985    -1.617768536075     1.007825032230
         H           -1.168432389722    -0.068290094985    -1.546234536075     1.007825032230
         H            1.577014610278     0.238330905015     1.205973463925     1.007825032230
         H            0.358936610278     1.614002905015    -1.236943536075     1.007825032230
         H           -2.737005389722    -0.800709094985     0.965638463925     1.007825032230
         H           -3.040901389722    -1.419201094985    -0.669707536075     1.007825032230
         H           -0.398234389722    -0.766133094985     1.735310463925     1.007825032230
         H            2.968373610278    -1.553782094985    -0.347741536075     1.007825032230
         H            3.001008610278     1.600610905015     0.031372463925     1.007825032230
         H            0.111253610278     3.244854905015     0.332470463925     1.007825032230
         H           -3.089538389722     1.310878905015     0.003515463925     1.007825032230

  Basis Set: AUG-CC-PVTZ
    Blend: AUG-CC-PVTZ
  Basis Set: (AUG-CC-PVTZ AUX)
    Blend: AUG-CC-PVTZ-JKFIT
	 Reference Energy          =    -683.5967582936859799 [Eh]
	 Singles Energy            =      -0.0000000000000000 [Eh]
	 Same-Spin Energy          =      -0.6661882713045785 [Eh]
	 Opposite-Spin Energy      =      -2.0434721401754956 [Eh]
	 Correlation Energy        =      -2.7096604114800740 [Eh]
	 Total Energy              =    -686.3064187051660383 [Eh]

	 ================> DF-SCS-MP2 Energies <==================
	-----------------------------------------------------------
	 SCS Same-Spin Scale       =       0.3333333333333333 [-]
	 SCS Opposite-Spin Scale   =       1.2000000000000000 [-]
	 SCS Same-Spin Energy      =      -0.2220627571015261 [Eh]
	 SCS Opposite-Spin Energy  =      -2.4521665682105946 [Eh]
	 SCS Correlation Energy    =      -2.6742293253121208 [Eh]
	 SCS Total Energy          =    -686.2709876189981060 [Eh]
	-----------------------------------------------------------

  Dipole Moment: [D]
     X:     0.7531      Y:     3.6592      Z:    -0.8144     Total:     3.8236

*** Psi4 exiting successfully. Buy a developer a beer!
