                               Psi4 1.3.2 release

  ==> Input File <==

--------------------------------------------------------------------------
#psi4
#
memory 32 gb

molecule  {
0 1
  O       -0.8456270     0.8862080     0.2793150
  O       -0.3079160    -1.6544620     1.3165970
  O        2.1058880    -1.9633380    -0.1734630
  O        2.7564030     0.7739560    -0.4353370
  O        0.7402180     2.5264820     0.5866940
  O       -3.4805510     0.5379580    -0.4489300
  C       -0.2340330    -1.4057570    -0.0828570
  C        1.1618270    -0.9690140    -0.5229560
  C       -1.2660140    -0.4636614    -0.5717219
  C        1.5092100     0.3624850     0.1183010
  C        0.4233390     1.3863000    -0.1554910
  C       -2.6607760    -0.5711350    -0.1020210
  H       -0.4877470    -2.3504840    -0.5773070
  H        1.1452800    -0.8176870    -1.6174030
  H       -1.1578680    -0.0786640    -1.5458690
  H        1.5875790     0.2279570     1.2063390
  H        0.3695010     1.6036290    -1.2365780
  H       -2.7264410    -0.8110830     0.9660040
  H       -3.0303370    -1.4295750    -0.6693420
  H       -0.3876700    -0.7765070     1.7356760
  H        2.9789380    -1.5641560    -0.3473760
  H        3.0115730     1.5902370     0.0317380
  H        0.1218180     3.2344810     0.3328360
  H       -3.0789740     1.3005050     0.0038810
units angstrom
no_reorient  #important for SAPT in psi4, default
symmetry c1  #important for SAPT in psi4, default
}

set PROPERTIES_ORIGIN ["COM"]
properties('MP2/aug-cc-pvtz', properties = ['dipole'])
--------------------------------------------------------------------------

    Molecular point group: c1
  Charge       = 0
  Multiplicity = 1
  Basis Set: AUG-CC-PVTZ
    Blend: AUG-CC-PVTZ
  Basis Set: (AUG-CC-PVTZ AUX)
    Blend: AUG-CC-PVTZ-JKFIT

    Orbital Energies [Eh]
    ---------------------

    Doubly Occupied:

       1A    -20.589735     2A    -20.581015     3A    -20.570289
       4A    -20.570206     5A    -20.567884     6A    -20.565859
       7A    -11.349309     8A    -11.317605     9A    -11.304832
      10A    -11.298820    11A    -11.293844    12A    -11.293277
      13A     -1.424806    14A     -1.389636    15A     -1.380698
      16A     -1.369496    17A     -1.356357    18A     -1.322481
      19A     -1.089424    20A     -1.052017    21A     -0.957472
      22A     -0.884533    23A     -0.846062    24A     -0.807811
      25A     -0.755474    26A     -0.727126    27A     -0.725935
      28A     -0.708940    29A     -0.679216    30A     -0.663420
      31A     -0.660589    32A     -0.637288    33A     -0.629968
      34A     -0.615398    35A     -0.598798    36A     -0.583273
      37A     -0.569548    38A     -0.558382    39A     -0.542968
      40A     -0.530061    41A     -0.518843    42A     -0.494012
      43A     -0.488198    44A     -0.485240    45A     -0.470189
      46A     -0.456919    47A     -0.449368    48A     -0.433137

  @DF-RHF Final Energy:  -683.57686773317243

   => Energetics <=

    Nuclear Repulsion Energy =            833.2479431216974035
    One-Electron Energy =               -2595.3181061116338242
    Two-Electron Energy =                1078.4932952567637585
    Total Energy =                       -683.5768677331725485
  Basis Set: (AUG-CC-PVTZ AUX)
    Blend: AUG-CC-PVTZ-RI
    Molecular point group: c1

    Geometry (in Angstrom), charge = 0, multiplicity = 1:

       Center              X                  Y                   Z               Mass
    ------------   -----------------  -----------------  -----------------  -----------------
         O           -0.851319761453     0.897851086513     0.276757539184    15.994914619570
         O           -0.313608761453    -1.642818913487     1.314039539184    15.994914619570
         O            2.100195238547    -1.951694913487    -0.176020460816    15.994914619570
         O            2.750710238547     0.785599086513    -0.437894460816    15.994914619570
         O            0.734525238547     2.538125086513     0.584136539184    15.994914619570
         O           -3.486243761453     0.549601086513    -0.451487460816    15.994914619570
         C           -0.239725761453    -1.394113913487    -0.085414460816    12.000000000000
         C            1.156134238547    -0.957370913487    -0.525513460816    12.000000000000
         C           -1.271706761453    -0.452018313487    -0.574279360816    12.000000000000
         C            1.503517238547     0.374128086513     0.115743539184    12.000000000000
         C            0.417646238547     1.397943086513    -0.158048460816    12.000000000000
         C           -2.666468761453    -0.559491913487    -0.104578460816    12.000000000000
         H           -0.493439761453    -2.338840913487    -0.579864460816     1.007825032230
         H            1.139587238547    -0.806043913487    -1.619960460816     1.007825032230
         H           -1.163560761453    -0.067020913487    -1.548426460816     1.007825032230
         H            1.581886238547     0.239600086513     1.203781539184     1.007825032230
         H            0.363808238547     1.615272086513    -1.239135460816     1.007825032230
         H           -2.732133761453    -0.799439913487     0.963446539184     1.007825032230
         H           -3.036029761453    -1.417931913487    -0.671899460816     1.007825032230
         H           -0.393362761453    -0.764863913487     1.733118539184     1.007825032230
         H            2.973245238547    -1.552512913487    -0.349933460816     1.007825032230
         H            3.005880238547     1.601880086513     0.029180539184     1.007825032230
         H            0.116125238547     3.246124086513     0.330278539184     1.007825032230
         H           -3.084666761453     1.312148086513     0.001323539184     1.007825032230

  Basis Set: AUG-CC-PVTZ
    Blend: AUG-CC-PVTZ
  Basis Set: (AUG-CC-PVTZ AUX)
    Blend: AUG-CC-PVTZ-JKFIT
	 Reference Energy          =    -683.5768677331724348 [Eh]
	 Singles Energy            =      -0.0000000000000000 [Eh]
	 Same-Spin Energy          =      -0.6683587926386400 [Eh]
	 Opposite-Spin Energy      =      -2.0509877386851878 [Eh]
	 Correlation Energy        =      -2.7193465313238279 [Eh]
	 Total Energy              =    -686.2962142644962569 [Eh]

	 ================> DF-SCS-MP2 Energies <==================
	-----------------------------------------------------------
	 SCS Same-Spin Scale       =       0.3333333333333333 [-]
	 SCS Opposite-Spin Scale   =       1.2000000000000000 [-]
	 SCS Same-Spin Energy      =      -0.2227862642128800 [Eh]
	 SCS Opposite-Spin Energy  =      -2.4611852864222254 [Eh]
	 SCS Correlation Energy    =      -2.6839715506351056 [Eh]
	 SCS Total Energy          =    -686.2608392838075133 [Eh]
	-----------------------------------------------------------

  Dipole Moment: [D]
     X:     0.3718      Y:     2.6609      Z:    -1.3064     Total:     2.9875

*** Psi4 exiting successfully. Buy a developer a beer!
