                               Psi4 1.4a3.dev225

  ==> Input File <==

--------------------------------------------------------------------------
#psi4
#
memory 32 gb

molecule  {
0 1
  O       -0.8456650     0.8861440     0.2793920
  O       -0.3077290    -1.6543970     1.3165920
  O        2.1058490    -1.9633390    -0.1734930
  O        2.7563870     0.7740080    -0.4352340
  O        0.7401070     2.5265290     0.5865970
  O       -3.4805150     0.5379850    -0.4487790
  C       -0.2340150    -1.4057960    -0.0828600
  C        1.1618410    -0.9690160    -0.5229920
  C       -1.2150830    -0.3001220    -0.4685840
  C        1.5091960     0.3624950     0.1183140
  C        0.4232960     1.3863010    -0.1554910
  C       -2.6492860    -0.5867931    -0.0972041
  H       -0.4877200    -2.3505680    -0.5772350
  H        1.1452880    -0.8176810    -1.6174430
  H       -1.1578130    -0.0786490    -1.5458470
  H        1.5874550     0.2279380     1.2063560
  H        0.3693510     1.6035860    -1.2365730
  H       -2.7265370    -0.8113720     0.9658980
  H       -3.0304070    -1.4295080    -0.6695770
  H       -0.3878110    -0.7763940     1.7355090
  H        2.9789120    -1.5642300    -0.3474430
  H        3.0116250     1.5901680     0.0320000
  H        0.1223170     3.2347930     0.3320250
  H       -3.0786550     1.3004670     0.0038890
units angstrom
no_reorient  #important for SAPT in psi4, default
symmetry c1  #important for SAPT in psi4, default
}

set PROPERTIES_ORIGIN ["COM"]
properties('MP2/aug-cc-pvtz', properties = ['dipole'])
--------------------------------------------------------------------------

    Molecular point group: c1
  Charge       = 0
  Multiplicity = 1
  Basis Set: AUG-CC-PVTZ
    Blend: AUG-CC-PVTZ
  Basis Set: (AUG-CC-PVTZ AUX)
    Blend: AUG-CC-PVTZ-JKFIT

    Orbital Energies [Eh]
    ---------------------

    Doubly Occupied:

       1A    -20.600344     2A    -20.595393     3A    -20.585557
       4A    -20.565651     5A    -20.564252     6A    -20.562453
       7A    -11.362793     8A    -11.305318     9A    -11.299167
      10A    -11.297141    11A    -11.295029    12A    -11.285575
      13A     -1.448455    14A     -1.392081    15A     -1.388792
      16A     -1.365673    17A     -1.354870    18A     -1.349471
      19A     -1.073617    20A     -1.052934    21A     -0.949928
      22A     -0.887723    23A     -0.848788    24A     -0.809094
      25A     -0.759905    26A     -0.736664    27A     -0.722251
      28A     -0.714664    29A     -0.687530    30A     -0.665565
      31A     -0.658712    32A     -0.639964    33A     -0.623224
      34A     -0.618540    35A     -0.596333    36A     -0.580646
      37A     -0.575263    38A     -0.562596    39A     -0.540315
      40A     -0.534742    41A     -0.527959    42A     -0.513195
      43A     -0.497136    44A     -0.483530    45A     -0.471110
      46A     -0.460342    47A     -0.445265    48A     -0.430699

  @DF-RHF Final Energy:  -683.60765653994793

   => Energetics <=

    Nuclear Repulsion Energy =            835.9338203386369059
    One-Electron Energy =               -2600.5104577502070242
    Two-Electron Energy =                1080.9689808716220796
    Total Energy =                       -683.6076565399480387
  Basis Set: (AUG-CC-PVTZ AUX)
    Blend: AUG-CC-PVTZ-RI
    Molecular point group: c1

    Geometry (in Angstrom), charge = 0, multiplicity = 1:

       Center              X                  Y                   Z               Mass
    ------------   -----------------  -----------------  -----------------  -----------------
         O           -0.855519693945     0.887923187072     0.269629962709    15.994914619570
         O           -0.317583693945    -1.652617812928     1.306829962709    15.994914619570
         O            2.095994306055    -1.961559812928    -0.183255037291    15.994914619570
         O            2.746532306055     0.775787187072    -0.444996037291    15.994914619570
         O            0.730252306055     2.528308187072     0.576834962709    15.994914619570
         O           -3.490369693945     0.539764187072    -0.458541037291    15.994914619570
         C           -0.243869693945    -1.404016812928    -0.092622037291    12.000000000000
         C            1.151986306055    -0.967236812928    -0.532754037291    12.000000000000
         C           -1.224937693945    -0.298342812928    -0.478346037291    12.000000000000
         C            1.499341306055     0.364274187072     0.108551962709    12.000000000000
         C            0.413441306055     1.388080187072    -0.165253037291    12.000000000000
         C           -2.659140693945    -0.585013912928    -0.106966137291    12.000000000000
         H           -0.497574693945    -2.348788812928    -0.586997037291     1.007825032230
         H            1.135433306055    -0.815901812928    -1.627205037291     1.007825032230
         H           -1.167667693945    -0.076869812928    -1.555609037291     1.007825032230
         H            1.577600306055     0.229717187072     1.196593962709     1.007825032230
         H            0.359496306055     1.605365187072    -1.246335037291     1.007825032230
         H           -2.736391693945    -0.809592812928     0.956135962709     1.007825032230
         H           -3.040261693945    -1.427728812928    -0.679339037291     1.007825032230
         H           -0.397665693945    -0.774614812928     1.725746962709     1.007825032230
         H            2.969057306055    -1.562450812928    -0.357205037291     1.007825032230
         H            3.001770306055     1.591947187072     0.022237962709     1.007825032230
         H            0.112462306055     3.236572187072     0.322262962709     1.007825032230
         H           -3.088509693945     1.302246187072    -0.005873037291     1.007825032230

  Basis Set: AUG-CC-PVTZ
    Blend: AUG-CC-PVTZ
  Basis Set: (AUG-CC-PVTZ AUX)
    Blend: AUG-CC-PVTZ-JKFIT
	 Reference Energy          =    -683.6076565399479250 [Eh]
	 Singles Energy            =      -0.0000000000000000 [Eh]
	 Same-Spin Energy          =      -0.6663853481017541 [Eh]
	 Opposite-Spin Energy      =      -2.0465119688375477 [Eh]
	 Correlation Energy        =      -2.7128973169393018 [Eh]
	 Total Energy              =    -686.3205538568872726 [Eh]

	 ================> DF-SCS-MP2 Energies <==================
	-----------------------------------------------------------
	 SCS Same-Spin Scale       =       0.3333333333333333 [-]
	 SCS Opposite-Spin Scale   =       1.2000000000000000 [-]
	 SCS Same-Spin Energy      =      -0.2221284493672513 [Eh]
	 SCS Opposite-Spin Energy  =      -2.4558143626050573 [Eh]
	 SCS Correlation Energy    =      -2.6779428119723088 [Eh]
	 SCS Total Energy          =    -686.2855993519202684 [Eh]
	-----------------------------------------------------------

  Dipole Moment: [D]
     X:     0.7127      Y:     3.1065      Z:    -1.0855     Total:     3.3670

*** Psi4 exiting successfully. Buy a developer a beer!
