                               Psi4 1.3.2 release

  ==> Input File <==

--------------------------------------------------------------------------
#psi4
#
memory 32 gb

molecule  {
0 1
  O       -0.8456270     0.8862080     0.2793150
  O       -0.3079160    -1.6544620     1.3165970
  O        2.1058880    -1.9633380    -0.1734630
  O        2.7564030     0.7739560    -0.4353370
  O        0.7402180     2.5264820     0.5866940
  O       -3.3989598     0.5832335    -0.4827864
  C       -0.2340330    -1.4057570    -0.0828570
  C        1.1618270    -0.9690140    -0.5229560
  C       -1.2150640    -0.3000600    -0.4685780
  C        1.5092100     0.3624850     0.1183010
  C        0.4233390     1.3863000    -0.1554910
  C       -2.6607760    -0.5711350    -0.1020210
  H       -0.4877470    -2.3504840    -0.5773070
  H        1.1452800    -0.8176870    -1.6174030
  H       -1.1578680    -0.0786640    -1.5458690
  H        1.5875790     0.2279570     1.2063390
  H        0.3695010     1.6036290    -1.2365780
  H       -2.7264410    -0.8110830     0.9660040
  H       -3.0303370    -1.4295750    -0.6693420
  H       -0.3876700    -0.7765070     1.7356760
  H        2.9789380    -1.5641560    -0.3473760
  H        3.0115730     1.5902370     0.0317380
  H        0.1218180     3.2344810     0.3328360
  H       -3.0789740     1.3005050     0.0038810
units angstrom
no_reorient  #important for SAPT in psi4, default
symmetry c1  #important for SAPT in psi4, default
}

set PROPERTIES_ORIGIN ["COM"]
properties('MP2/aug-cc-pvtz', properties = ['dipole'])
--------------------------------------------------------------------------

    Molecular point group: c1
  Charge       = 0
  Multiplicity = 1
  Basis Set: AUG-CC-PVTZ
    Blend: AUG-CC-PVTZ
  Basis Set: (AUG-CC-PVTZ AUX)
    Blend: AUG-CC-PVTZ-JKFIT

    Orbital Energies [Eh]
    ---------------------

    Doubly Occupied:

       1A    -20.599081     2A    -20.592982     3A    -20.584456
       4A    -20.564506     5A    -20.563106     6A    -20.558565
       7A    -11.361189     8A    -11.302217     9A    -11.297861
      10A    -11.295092    11A    -11.293563    12A    -11.287693
      13A     -1.447050    14A     -1.391634    15A     -1.389541
      16A     -1.372766    17A     -1.357977    18A     -1.351742
      19A     -1.071823    20A     -1.051140    21A     -0.950896
      22A     -0.886379    23A     -0.850128    24A     -0.807572
      25A     -0.758596    26A     -0.736829    27A     -0.723271
      28A     -0.713608    29A     -0.695047    30A     -0.665732
      31A     -0.657759    32A     -0.639841    33A     -0.622608
      34A     -0.618567    35A     -0.602703    36A     -0.580537
      37A     -0.574612    38A     -0.561503    39A     -0.539208
      40A     -0.533097    41A     -0.527075    42A     -0.510397
      43A     -0.497215    44A     -0.482105    45A     -0.471259
      46A     -0.458766    47A     -0.443638    48A     -0.428497

  @DF-RHF Final Energy:  -683.60786163528905

   => Energetics <=

    Nuclear Repulsion Energy =            837.5223284991163837
    One-Electron Energy =               -2603.7175180227172859
    Two-Electron Energy =                1082.5873278883118473
    Total Energy =                       -683.6078616352890549
  Basis Set: (AUG-CC-PVTZ AUX)
    Blend: AUG-CC-PVTZ-RI
    Molecular point group: c1

    Geometry (in Angstrom), charge = 0, multiplicity = 1:

       Center              X                  Y                   Z               Mass
    ------------   -----------------  -----------------  -----------------  -----------------
         O           -0.861962926051     0.882926372582     0.272891142023    15.994914619570
         O           -0.324251926051    -1.657743627418     1.310173142023    15.994914619570
         O            2.089552073949    -1.966619627418    -0.179886857977    15.994914619570
         O            2.740067073949     0.770674372582    -0.441760857977    15.994914619570
         O            0.723882073949     2.523200372582     0.580270142023    15.994914619570
         O           -3.415295726051     0.579951872582    -0.489210257977    15.994914619570
         C           -0.250368926051    -1.409038627418    -0.089280857977    12.000000000000
         C            1.145491073949    -0.972295627418    -0.529379857977    12.000000000000
         C           -1.231399926051    -0.303341627418    -0.475001857977    12.000000000000
         C            1.492874073949     0.359203372582     0.111877142023    12.000000000000
         C            0.407003073949     1.383018372582    -0.161914857977    12.000000000000
         C           -2.677111926051    -0.574416627418    -0.108444857977    12.000000000000
         H           -0.504082926051    -2.353765627418    -0.583730857977     1.007825032230
         H            1.128944073949    -0.820968627418    -1.623826857977     1.007825032230
         H           -1.174203926051    -0.081945627418    -1.552292857977     1.007825032230
         H            1.571243073949     0.224675372582     1.199915142023     1.007825032230
         H            0.353165073949     1.600347372582    -1.243001857977     1.007825032230
         H           -2.742776926051    -0.814364627418     0.959580142023     1.007825032230
         H           -3.046672926051    -1.432856627418    -0.675765857977     1.007825032230
         H           -0.404005926051    -0.779788627418     1.729252142023     1.007825032230
         H            2.962602073949    -1.567437627418    -0.353799857977     1.007825032230
         H            2.995237073949     1.586955372582     0.025314142023     1.007825032230
         H            0.105482073949     3.231199372582     0.326412142023     1.007825032230
         H           -3.095309926051     1.297223372582    -0.002542857977     1.007825032230

  Basis Set: AUG-CC-PVTZ
    Blend: AUG-CC-PVTZ
  Basis Set: (AUG-CC-PVTZ AUX)
    Blend: AUG-CC-PVTZ-JKFIT
	 Reference Energy          =    -683.6078616352890549 [Eh]
	 Singles Energy            =      -0.0000000000000000 [Eh]
	 Same-Spin Energy          =      -0.6657584918494679 [Eh]
	 Opposite-Spin Energy      =      -2.0445959127950868 [Eh]
	 Correlation Energy        =      -2.7103544046445549 [Eh]
	 Total Energy              =    -686.3182160399336453 [Eh]

	 ================> DF-SCS-MP2 Energies <==================
	-----------------------------------------------------------
	 SCS Same-Spin Scale       =       0.3333333333333333 [-]
	 SCS Opposite-Spin Scale   =       1.2000000000000000 [-]
	 SCS Same-Spin Energy      =      -0.2219194972831560 [Eh]
	 SCS Opposite-Spin Energy  =      -2.4535150953541041 [Eh]
	 SCS Correlation Energy    =      -2.6754345926372602 [Eh]
	 SCS Total Energy          =    -686.2832962279263711 [Eh]
	-----------------------------------------------------------

  Dipole Moment: [D]
     X:     0.4319      Y:     3.0759      Z:    -0.9986     Total:     3.2626

*** Psi4 exiting successfully. Buy a developer a beer!
