                               Psi4 1.3.2 release

  ==> Input File <==

--------------------------------------------------------------------------
#psi4
#
memory 32 gb

molecule  {
0 1
  O       -0.8077724     0.8600437     0.3004033
  O       -0.3079160    -1.6544620     1.3165970
  O        2.1058880    -1.9633380    -0.1734630
  O        2.7564030     0.7739560    -0.4353370
  O        0.7402180     2.5264820     0.5866940
  O       -3.4805510     0.5379580    -0.4489300
  C       -0.2340330    -1.4057570    -0.0828570
  C        1.1618270    -0.9690140    -0.5229560
  C       -1.2150640    -0.3000600    -0.4685780
  C        1.5092100     0.3624850     0.1183010
  C        0.4233390     1.3863000    -0.1554910
  C       -2.6607760    -0.5711350    -0.1020210
  H       -0.4877470    -2.3504840    -0.5773070
  H        1.1452800    -0.8176870    -1.6174030
  H       -1.1578680    -0.0786640    -1.5458690
  H        1.5875790     0.2279570     1.2063390
  H        0.3695010     1.6036290    -1.2365780
  H       -2.7264410    -0.8110830     0.9660040
  H       -3.0303370    -1.4295750    -0.6693420
  H       -0.3876700    -0.7765070     1.7356760
  H        2.9789380    -1.5641560    -0.3473760
  H        3.0115730     1.5902370     0.0317380
  H        0.1218180     3.2344810     0.3328360
  H       -3.0789740     1.3005050     0.0038810
units angstrom
no_reorient  #important for SAPT in psi4, default
symmetry c1  #important for SAPT in psi4, default
}

set PROPERTIES_ORIGIN ["COM"]
properties('MP2/aug-cc-pvtz', properties = ['dipole'])
--------------------------------------------------------------------------

    Molecular point group: c1
  Charge       = 0
  Multiplicity = 1
  Basis Set: AUG-CC-PVTZ
    Blend: AUG-CC-PVTZ
  Basis Set: (AUG-CC-PVTZ AUX)
    Blend: AUG-CC-PVTZ-JKFIT

    Orbital Energies [Eh]
    ---------------------

    Doubly Occupied:

       1A    -20.599516     2A    -20.594585     3A    -20.583377
       4A    -20.566231     5A    -20.564005     6A    -20.563402
       7A    -11.360910     8A    -11.305907     9A    -11.296693
      10A    -11.295848    11A    -11.294015    12A    -11.287286
      13A     -1.451726    14A     -1.390813    15A     -1.389146
      16A     -1.367671    17A     -1.357758    18A     -1.352061
      19A     -1.071840    20A     -1.052915    21A     -0.948657
      22A     -0.886618    23A     -0.849695    24A     -0.809436
      25A     -0.758695    26A     -0.737357    27A     -0.722112
      28A     -0.715934    29A     -0.690442    30A     -0.666092
      31A     -0.657869    32A     -0.640652    33A     -0.623499
      34A     -0.619144    35A     -0.598827    36A     -0.579999
      37A     -0.575123    38A     -0.562303    39A     -0.540162
      40A     -0.534406    41A     -0.528522    42A     -0.511849
      43A     -0.497923    44A     -0.482416    45A     -0.470172
      46A     -0.459139    47A     -0.444315    48A     -0.428697

  @DF-RHF Final Energy:  -683.60844925599008

   => Energetics <=

    Nuclear Repulsion Energy =            836.7879029483333397
    One-Electron Energy =               -2602.2211792200714626
    Two-Electron Energy =                1081.8248270157480420
    Total Energy =                       -683.6084492559900809
  Basis Set: (AUG-CC-PVTZ AUX)
    Blend: AUG-CC-PVTZ-RI
    Molecular point group: c1

    Geometry (in Angstrom), charge = 0, multiplicity = 1:

       Center              X                  Y                   Z               Mass
    ------------   -----------------  -----------------  -----------------  -----------------
         O           -0.820223232084     0.863108023936     0.289098739762    15.994914619570
         O           -0.320366832084    -1.651397676064     1.305292439762    15.994914619570
         O            2.093437167916    -1.960273676064    -0.184767560238    15.994914619570
         O            2.743952167916     0.777020323936    -0.446641560238    15.994914619570
         O            0.727767167916     2.529546323936     0.575389439762    15.994914619570
         O           -3.493001832084     0.541022323936    -0.460234560238    15.994914619570
         C           -0.246483832084    -1.402692676064    -0.094161560238    12.000000000000
         C            1.149376167916    -0.965949676064    -0.534260560238    12.000000000000
         C           -1.227514832084    -0.296995676064    -0.479882560238    12.000000000000
         C            1.496759167916     0.365549323936     0.106996439762    12.000000000000
         C            0.410888167916     1.389364323936    -0.166795560238    12.000000000000
         C           -2.673226832084    -0.568070676064    -0.113325560238    12.000000000000
         H           -0.500197832084    -2.347419676064    -0.588611560238     1.007825032230
         H            1.132829167916    -0.814622676064    -1.628707560238     1.007825032230
         H           -1.170318832084    -0.075599676064    -1.557173560238     1.007825032230
         H            1.575128167916     0.231021323936     1.195034439762     1.007825032230
         H            0.357050167916     1.606693323936    -1.247882560238     1.007825032230
         H           -2.738891832084    -0.808018676064     0.954699439762     1.007825032230
         H           -3.042787832084    -1.426510676064    -0.680646560238     1.007825032230
         H           -0.400120832084    -0.773442676064     1.724371439762     1.007825032230
         H            2.966487167916    -1.561091676064    -0.358680560238     1.007825032230
         H            2.999122167916     1.593301323936     0.020433439762     1.007825032230
         H            0.109367167916     3.237545323936     0.321531439762     1.007825032230
         H           -3.091424832084     1.303569323936    -0.007423560238     1.007825032230

  Basis Set: AUG-CC-PVTZ
    Blend: AUG-CC-PVTZ
  Basis Set: (AUG-CC-PVTZ AUX)
    Blend: AUG-CC-PVTZ-JKFIT
	 Reference Energy          =    -683.6084492559900809 [Eh]
	 Singles Energy            =      -0.0000000000000000 [Eh]
	 Same-Spin Energy          =      -0.6662601406853303 [Eh]
	 Opposite-Spin Energy      =      -2.0456818578098921 [Eh]
	 Correlation Energy        =      -2.7119419984952224 [Eh]
	 Total Energy              =    -686.3203912544853438 [Eh]

	 ================> DF-SCS-MP2 Energies <==================
	-----------------------------------------------------------
	 SCS Same-Spin Scale       =       0.3333333333333333 [-]
	 SCS Opposite-Spin Scale   =       1.2000000000000000 [-]
	 SCS Same-Spin Energy      =      -0.2220867135617768 [Eh]
	 SCS Opposite-Spin Energy  =      -2.4548182293718703 [Eh]
	 SCS Correlation Energy    =      -2.6769049429336471 [Eh]
	 SCS Total Energy          =    -686.2853541989237556 [Eh]
	-----------------------------------------------------------

  Dipole Moment: [D]
     X:     0.5121      Y:     3.1917      Z:    -1.1382     Total:     3.4270

*** Psi4 exiting successfully. Buy a developer a beer!
