                               Psi4 1.3.2 release

  ==> Input File <==

--------------------------------------------------------------------------
#psi4
#
memory 32 gb

molecule  {
0 1
  O       -0.8456270     0.8862080     0.2793150
  O       -0.3079160    -1.6544620     1.3165970
  O        2.1058880    -1.9633380    -0.1734630
  O        2.7564030     0.7739560    -0.4353370
  O        0.7402180     2.5264820     0.5866940
  O       -3.4805510     0.5379580    -0.4489300
  C       -0.2449007    -1.2609077    -0.0497589
  C        1.1618270    -0.9690140    -0.5229560
  C       -1.2150640    -0.3000600    -0.4685780
  C        1.5092100     0.3624850     0.1183010
  C        0.4233390     1.3863000    -0.1554910
  C       -2.6607760    -0.5711350    -0.1020210
  H       -0.4877470    -2.3504840    -0.5773070
  H        1.1452800    -0.8176870    -1.6174030
  H       -1.1578680    -0.0786640    -1.5458690
  H        1.5875790     0.2279570     1.2063390
  H        0.3695010     1.6036290    -1.2365780
  H       -2.7264410    -0.8110830     0.9660040
  H       -3.0303370    -1.4295750    -0.6693420
  H       -0.3876700    -0.7765070     1.7356760
  H        2.9789380    -1.5641560    -0.3473760
  H        3.0115730     1.5902370     0.0317380
  H        0.1218180     3.2344810     0.3328360
  H       -3.0789740     1.3005050     0.0038810
units angstrom
no_reorient  #important for SAPT in psi4, default
symmetry c1  #important for SAPT in psi4, default
}

set PROPERTIES_ORIGIN ["COM"]
properties('MP2/aug-cc-pvtz', properties = ['dipole'])
--------------------------------------------------------------------------

    Molecular point group: c1
  Charge       = 0
  Multiplicity = 1
  Basis Set: AUG-CC-PVTZ
    Blend: AUG-CC-PVTZ
  Basis Set: (AUG-CC-PVTZ AUX)
    Blend: AUG-CC-PVTZ-JKFIT

    Orbital Energies [Eh]
    ---------------------

    Doubly Occupied:

       1A    -20.600825     2A    -20.593622     3A    -20.584227
       4A    -20.571571     5A    -20.567357     6A    -20.566807
       7A    -11.363372     8A    -11.303935     9A    -11.301429
      10A    -11.297633    11A    -11.296679    12A    -11.289002
      13A     -1.451426    14A     -1.394129    15A     -1.391953
      16A     -1.370467    17A     -1.358627    18A     -1.355393
      19A     -1.086673    20A     -1.059020    21A     -0.949009
      22A     -0.887589    23A     -0.853115    24A     -0.807553
      25A     -0.756220    26A     -0.739916    27A     -0.728810
      28A     -0.716844    29A     -0.691062    30A     -0.669098
      31A     -0.659768    32A     -0.635970    33A     -0.629620
      34A     -0.622896    35A     -0.601529    36A     -0.581539
      37A     -0.567442    38A     -0.561756    39A     -0.541012
      40A     -0.539248    41A     -0.521991    42A     -0.510934
      43A     -0.498483    44A     -0.489666    45A     -0.467158
      46A     -0.461720    47A     -0.440954    48A     -0.429869

  @DF-RHF Final Energy:  -683.57989158795010

   => Energetics <=

    Nuclear Repulsion Energy =            838.6299237013864740
    One-Electron Energy =               -2605.6897940373423808
    Two-Electron Energy =                1083.4799787480058058
    Total Energy =                       -683.5798915879502147
  Basis Set: (AUG-CC-PVTZ AUX)
    Blend: AUG-CC-PVTZ-RI
    Molecular point group: c1

    Geometry (in Angstrom), charge = 0, multiplicity = 1:

       Center              X                  Y                   Z               Mass
    ------------   -----------------  -----------------  -----------------  -----------------
         O           -0.853990974102     0.877294945484     0.267677936622    15.994914619570
         O           -0.316279974102    -1.663375054516     1.304959936622    15.994914619570
         O            2.097524025898    -1.972251054516    -0.185100063378    15.994914619570
         O            2.748039025898     0.765042945484    -0.446974063378    15.994914619570
         O            0.731854025898     2.517568945484     0.575056936622    15.994914619570
         O           -3.488914974102     0.529044945484    -0.460567063378    15.994914619570
         C           -0.253264674102    -1.269820754516    -0.061395963378    12.000000000000
         C            1.153463025898    -0.977927054516    -0.534593063378    12.000000000000
         C           -1.223427974102    -0.308973054516    -0.480215063378    12.000000000000
         C            1.500846025898     0.353571945484     0.106663936622    12.000000000000
         C            0.414975025898     1.377386945484    -0.167128063378    12.000000000000
         C           -2.669139974102    -0.580048054516    -0.113658063378    12.000000000000
         H           -0.496110974102    -2.359397054516    -0.588944063378     1.007825032230
         H            1.136916025898    -0.826600054516    -1.629040063378     1.007825032230
         H           -1.166231974102    -0.087577054516    -1.557506063378     1.007825032230
         H            1.579215025898     0.219043945484     1.194701936622     1.007825032230
         H            0.361137025898     1.594715945484    -1.248215063378     1.007825032230
         H           -2.734804974102    -0.819996054516     0.954366936622     1.007825032230
         H           -3.038700974102    -1.438488054516    -0.680979063378     1.007825032230
         H           -0.396033974102    -0.785420054516     1.724038936622     1.007825032230
         H            2.970574025898    -1.573069054516    -0.359013063378     1.007825032230
         H            3.003209025898     1.581323945484     0.020100936622     1.007825032230
         H            0.113454025898     3.225567945484     0.321198936622     1.007825032230
         H           -3.087337974102     1.291591945484    -0.007756063378     1.007825032230

  Basis Set: AUG-CC-PVTZ
    Blend: AUG-CC-PVTZ
  Basis Set: (AUG-CC-PVTZ AUX)
    Blend: AUG-CC-PVTZ-JKFIT
	 Reference Energy          =    -683.5798915879501010 [Eh]
	 Singles Energy            =      -0.0000000000000000 [Eh]
	 Same-Spin Energy          =      -0.6685797572350614 [Eh]
	 Opposite-Spin Energy      =      -2.0496525109288353 [Eh]
	 Correlation Energy        =      -2.7182322681638968 [Eh]
	 Total Energy              =    -686.2981238561139889 [Eh]

	 ================> DF-SCS-MP2 Energies <==================
	-----------------------------------------------------------
	 SCS Same-Spin Scale       =       0.3333333333333333 [-]
	 SCS Opposite-Spin Scale   =       1.2000000000000000 [-]
	 SCS Same-Spin Energy      =      -0.2228599190783538 [Eh]
	 SCS Opposite-Spin Energy  =      -2.4595830131146021 [Eh]
	 SCS Correlation Energy    =      -2.6824429321929557 [Eh]
	 SCS Total Energy          =    -686.2623345201430993 [Eh]
	-----------------------------------------------------------

  Dipole Moment: [D]
     X:     0.6119      Y:     3.3241      Z:    -1.0100     Total:     3.5276

*** Psi4 exiting successfully. Buy a developer a beer!
