                               Psi4 1.4a3.dev225

  ==> Input File <==

--------------------------------------------------------------------------
#psi4
#
memory 32 gb

molecule  {
0 1
  O       -0.8456650     0.8861440     0.2793920
  O       -0.3077290    -1.6543970     1.3165920
  O        2.1058490    -1.9633390    -0.1734930
  O        2.7563870     0.7740080    -0.4352340
  O        0.7401070     2.5265290     0.5865970
  O       -3.4805150     0.5379850    -0.4487790
  C       -0.2340150    -1.4057960    -0.0828600
  C        1.1618410    -0.9690160    -0.5229920
  C       -1.2150830    -0.3001220    -0.4685840
  C        1.5091960     0.3624950     0.1183140
  C        0.4232960     1.3863010    -0.1554910
  C       -2.6608140    -0.5711940    -0.1020800
  H       -0.4877200    -2.3505680    -0.5772350
  H        1.1452880    -0.8176810    -1.6174430
  H       -1.1578130    -0.0786490    -1.5458470
  H        1.5874550     0.2279380     1.2063560
  H        0.3693510     1.6035860    -1.2365730
  H       -2.7265370    -0.8113720     0.9658980
  H       -3.0304070    -1.4295080    -0.6695770
  H       -0.3878110    -0.7763940     1.7355090
  H        2.9789120    -1.5642300    -0.3474430
  H        3.0116250     1.5901680     0.0320000
  H        0.1223170     3.2347930     0.3320250
  H       -3.0580159     1.3396273     0.0271376
units angstrom
no_reorient  #important for SAPT in psi4, default
symmetry c1  #important for SAPT in psi4, default
}

set PROPERTIES_ORIGIN ["COM"]
properties('MP2/aug-cc-pvtz', properties = ['dipole'])
--------------------------------------------------------------------------

    Molecular point group: c1
  Charge       = 0
  Multiplicity = 1
  Basis Set: AUG-CC-PVTZ
    Blend: AUG-CC-PVTZ
  Basis Set: (AUG-CC-PVTZ AUX)
    Blend: AUG-CC-PVTZ-JKFIT

    Orbital Energies [Eh]
    ---------------------

    Doubly Occupied:

       1A    -20.600384     2A    -20.595230     3A    -20.585454
       4A    -20.568103     5A    -20.565109     6A    -20.564076
       7A    -11.362665     8A    -11.304488     9A    -11.299029
      10A    -11.296825    11A    -11.294830    12A    -11.285272
      13A     -1.448352    14A     -1.391934    15A     -1.388410
      16A     -1.365082    17A     -1.354291    18A     -1.347689
      19A     -1.072777    20A     -1.050711    21A     -0.947040
      22A     -0.887416    23A     -0.846325    24A     -0.808769
      25A     -0.759684    26A     -0.736205    27A     -0.721490
      28A     -0.713989    29A     -0.684483    30A     -0.664584
      31A     -0.658563    32A     -0.639232    33A     -0.622535
      34A     -0.618422    35A     -0.597423    36A     -0.580502
      37A     -0.575640    38A     -0.562459    39A     -0.539237
      40A     -0.534624    41A     -0.528001    42A     -0.510697
      43A     -0.494796    44A     -0.483276    45A     -0.469580
      46A     -0.459803    47A     -0.444282    48A     -0.429701

  @DF-RHF Final Energy:  -683.60319720731150

   => Energetics <=

    Nuclear Repulsion Energy =            835.7163475559095787
    One-Electron Energy =               -2600.1201519718824784
    Two-Electron Energy =                1080.8006072086614040
    Total Energy =                       -683.6031972073114957
  Basis Set: (AUG-CC-PVTZ AUX)
    Blend: AUG-CC-PVTZ-RI
    Molecular point group: c1

    Geometry (in Angstrom), charge = 0, multiplicity = 1:

       Center              X                  Y                   Z               Mass
    ------------   -----------------  -----------------  -----------------  -----------------
         O           -0.854866949378     0.886664430736     0.269824784540    15.994914619570
         O           -0.316930949378    -1.653876569264     1.307024784540    15.994914619570
         O            2.096647050622    -1.962818569264    -0.183060215460    15.994914619570
         O            2.747185050622     0.774528430736    -0.444801215460    15.994914619570
         O            0.730905050622     2.527049430736     0.577029784540    15.994914619570
         O           -3.489716949378     0.538505430736    -0.458346215460    15.994914619570
         C           -0.243216949378    -1.405275569264    -0.092427215460    12.000000000000
         C            1.152639050622    -0.968495569264    -0.532559215460    12.000000000000
         C           -1.224284949378    -0.299601569264    -0.478151215460    12.000000000000
         C            1.499994050622     0.363015430736     0.108746784540    12.000000000000
         C            0.414094050622     1.386821430736    -0.165058215460    12.000000000000
         C           -2.670015949378    -0.570673569264    -0.111647215460    12.000000000000
         H           -0.496921949378    -2.350047569264    -0.586802215460     1.007825032230
         H            1.136086050622    -0.817160569264    -1.627010215460     1.007825032230
         H           -1.167014949378    -0.078128569264    -1.555414215460     1.007825032230
         H            1.578253050622     0.228458430736     1.196788784540     1.007825032230
         H            0.360149050622     1.604106430736    -1.246140215460     1.007825032230
         H           -2.735738949378    -0.810851569264     0.956330784540     1.007825032230
         H           -3.039608949378    -1.428987569264    -0.679144215460     1.007825032230
         H           -0.397012949378    -0.775873569264     1.725941784540     1.007825032230
         H            2.969710050622    -1.563709569264    -0.357010215460     1.007825032230
         H            3.002423050622     1.590688430736     0.022432784540     1.007825032230
         H            0.113115050622     3.235313430736     0.322457784540     1.007825032230
         H           -3.067217849378     1.340147730736     0.017570384540     1.007825032230

  Basis Set: AUG-CC-PVTZ
    Blend: AUG-CC-PVTZ
  Basis Set: (AUG-CC-PVTZ AUX)
    Blend: AUG-CC-PVTZ-JKFIT
	 Reference Energy          =    -683.6031972073114957 [Eh]
	 Singles Energy            =      -0.0000000000000000 [Eh]
	 Same-Spin Energy          =      -0.6669528083677356 [Eh]
	 Opposite-Spin Energy      =      -2.0477577272788579 [Eh]
	 Correlation Energy        =      -2.7147105356465935 [Eh]
	 Total Energy              =    -686.3179077429581412 [Eh]

	 ================> DF-SCS-MP2 Energies <==================
	-----------------------------------------------------------
	 SCS Same-Spin Scale       =       0.3333333333333333 [-]
	 SCS Opposite-Spin Scale   =       1.2000000000000000 [-]
	 SCS Same-Spin Energy      =      -0.2223176027892452 [Eh]
	 SCS Opposite-Spin Energy  =      -2.4573092727346295 [Eh]
	 SCS Correlation Energy    =      -2.6796268755238746 [Eh]
	 SCS Total Energy          =    -686.2828240828354183 [Eh]
	-----------------------------------------------------------

  Dipole Moment: [D]
     X:     0.6841      Y:     3.1924      Z:    -1.0845     Total:     3.4403

*** Psi4 exiting successfully. Buy a developer a beer!
