                               Psi4 1.3.2 release

  ==> Input File <==

--------------------------------------------------------------------------
#psi4
#
memory 32 gb

molecule  {
0 1
  O       -0.8456270     0.8862080     0.2793150
  O       -0.3015361    -1.6308450     1.3209105
  O        2.1058880    -1.9633380    -0.1734630
  O        2.7564030     0.7739560    -0.4353370
  O        0.7402180     2.5264820     0.5866940
  O       -3.4805510     0.5379580    -0.4489300
  C       -0.2340330    -1.4057570    -0.0828570
  C        1.1618270    -0.9690140    -0.5229560
  C       -1.2150640    -0.3000600    -0.4685780
  C        1.5092100     0.3624850     0.1183010
  C        0.4233390     1.3863000    -0.1554910
  C       -2.6607760    -0.5711350    -0.1020210
  H       -0.4877470    -2.3504840    -0.5773070
  H        1.1452800    -0.8176870    -1.6174030
  H       -1.1578680    -0.0786640    -1.5458690
  H        1.5875790     0.2279570     1.2063390
  H        0.3695010     1.6036290    -1.2365780
  H       -2.7264410    -0.8110830     0.9660040
  H       -3.0303370    -1.4295750    -0.6693420
  H       -0.3876700    -0.7765070     1.7356760
  H        2.9789380    -1.5641560    -0.3473760
  H        3.0115730     1.5902370     0.0317380
  H        0.1218180     3.2344810     0.3328360
  H       -3.0789740     1.3005050     0.0038810
units angstrom
no_reorient  #important for SAPT in psi4, default
symmetry c1  #important for SAPT in psi4, default
}

set PROPERTIES_ORIGIN ["COM"]
properties('MP2/aug-cc-pvtz', properties = ['dipole'])
--------------------------------------------------------------------------

    Molecular point group: c1
  Charge       = 0
  Multiplicity = 1
  Basis Set: AUG-CC-PVTZ
    Blend: AUG-CC-PVTZ
  Basis Set: (AUG-CC-PVTZ AUX)
    Blend: AUG-CC-PVTZ-JKFIT

    Orbital Energies [Eh]
    ---------------------

    Doubly Occupied:

       1A    -20.599950     2A    -20.594693     3A    -20.585172
       4A    -20.564488     5A    -20.564041     6A    -20.562486
       7A    -11.362266     8A    -11.304621     9A    -11.298668
      10A    -11.297566    11A    -11.294708    12A    -11.285883
      13A     -1.448138    14A     -1.391910    15A     -1.390280
      16A     -1.368756    17A     -1.356902    18A     -1.353347
      19A     -1.073495    20A     -1.051514    21A     -0.949116
      22A     -0.887929    23A     -0.848540    24A     -0.809582
      25A     -0.760306    26A     -0.737502    27A     -0.722296
      28A     -0.714207    29A     -0.689734    30A     -0.665591
      31A     -0.660411    32A     -0.641014    33A     -0.623534
      34A     -0.618664    35A     -0.598756    36A     -0.582471
      37A     -0.575378    38A     -0.562793    39A     -0.540020
      40A     -0.534425    41A     -0.528612    42A     -0.511930
      43A     -0.495737    44A     -0.482991    45A     -0.470374
      46A     -0.459801    47A     -0.444521    48A     -0.430082

  @DF-RHF Final Energy:  -683.60937651472807

   => Energetics <=

    Nuclear Repulsion Energy =            836.3891320908796843
    One-Electron Energy =               -2601.4066143596446636
    Two-Electron Energy =                1081.4081057540370239
    Total Energy =                       -683.6093765147279555
  Basis Set: (AUG-CC-PVTZ AUX)
    Blend: AUG-CC-PVTZ-RI
    Molecular point group: c1

    Geometry (in Angstrom), charge = 0, multiplicity = 1:

       Center              X                  Y                   Z               Mass
    ------------   -----------------  -----------------  -----------------  -----------------
         O           -0.855281954786     0.884850283167     0.269500534426    15.994914619570
         O           -0.311191054786    -1.632202716833     1.311096034426    15.994914619570
         O            2.096233045214    -1.964695716833    -0.183277465574    15.994914619570
         O            2.746748045214     0.772598283167    -0.445151465574    15.994914619570
         O            0.730563045214     2.525124283167     0.576879534426    15.994914619570
         O           -3.490205954786     0.536600283167    -0.458744465574    15.994914619570
         C           -0.243687954786    -1.407114716833    -0.092671465574    12.000000000000
         C            1.152172045214    -0.970371716833    -0.532770465574    12.000000000000
         C           -1.224718954786    -0.301417716833    -0.478392465574    12.000000000000
         C            1.499555045214     0.361127283167     0.108486534426    12.000000000000
         C            0.413684045214     1.384942283167    -0.165305465574    12.000000000000
         C           -2.670430954786    -0.572492716833    -0.111835465574    12.000000000000
         H           -0.497401954786    -2.351841716833    -0.587121465574     1.007825032230
         H            1.135625045214    -0.819044716833    -1.627217465574     1.007825032230
         H           -1.167522954786    -0.080021716833    -1.555683465574     1.007825032230
         H            1.577924045214     0.226599283167     1.196524534426     1.007825032230
         H            0.359846045214     1.602271283167    -1.246392465574     1.007825032230
         H           -2.736095954786    -0.812440716833     0.956189534426     1.007825032230
         H           -3.039991954786    -1.430932716833    -0.679156465574     1.007825032230
         H           -0.397324954786    -0.777864716833     1.725861534426     1.007825032230
         H            2.969283045214    -1.565513716833    -0.357190465574     1.007825032230
         H            3.001918045214     1.588879283167     0.021923534426     1.007825032230
         H            0.112163045214     3.233123283167     0.323021534426     1.007825032230
         H           -3.088628954786     1.299147283167    -0.005933465574     1.007825032230

  Basis Set: AUG-CC-PVTZ
    Blend: AUG-CC-PVTZ
  Basis Set: (AUG-CC-PVTZ AUX)
    Blend: AUG-CC-PVTZ-JKFIT
	 Reference Energy          =    -683.6093765147280692 [Eh]
	 Singles Energy            =      -0.0000000000000000 [Eh]
	 Same-Spin Energy          =      -0.6660010619751888 [Eh]
	 Opposite-Spin Energy      =      -2.0453584906539852 [Eh]
	 Correlation Energy        =      -2.7113595526291743 [Eh]
	 Total Energy              =    -686.3207360673571884 [Eh]

	 ================> DF-SCS-MP2 Energies <==================
	-----------------------------------------------------------
	 SCS Same-Spin Scale       =       0.3333333333333333 [-]
	 SCS Opposite-Spin Scale   =       1.2000000000000000 [-]
	 SCS Same-Spin Energy      =      -0.2220003539917296 [Eh]
	 SCS Opposite-Spin Energy  =      -2.4544301887847824 [Eh]
	 SCS Correlation Energy    =      -2.6764305427765120 [Eh]
	 SCS Total Energy          =    -686.2858070575045986 [Eh]
	-----------------------------------------------------------

  Dipole Moment: [D]
     X:     0.6473      Y:     3.1204      Z:    -1.1051     Total:     3.3730

*** Psi4 exiting successfully. Buy a developer a beer!
