                               Psi4 1.3.2 release

  ==> Input File <==

--------------------------------------------------------------------------
#psi4
#
memory 32 gb

molecule  {
0 1
  O       -0.9617041     0.9559104     0.2106912
  O       -0.3079160    -1.6544620     1.3165970
  O        2.1058880    -1.9633380    -0.1734630
  O        2.7564030     0.7739560    -0.4353370
  O        0.7402180     2.5264820     0.5866940
  O       -3.4805510     0.5379580    -0.4489300
  C       -0.2340330    -1.4057570    -0.0828570
  C        1.1618270    -0.9690140    -0.5229560
  C       -1.2150640    -0.3000600    -0.4685780
  C        1.5092100     0.3624850     0.1183010
  C        0.4233390     1.3863000    -0.1554910
  C       -2.6607760    -0.5711350    -0.1020210
  H       -0.4877470    -2.3504840    -0.5773070
  H        1.1452800    -0.8176870    -1.6174030
  H       -1.1578680    -0.0786640    -1.5458690
  H        1.5875790     0.2279570     1.2063390
  H        0.3695010     1.6036290    -1.2365780
  H       -2.7264410    -0.8110830     0.9660040
  H       -3.0303370    -1.4295750    -0.6693420
  H       -0.3876700    -0.7765070     1.7356760
  H        2.9789380    -1.5641560    -0.3473760
  H        3.0115730     1.5902370     0.0317380
  H        0.1218180     3.2344810     0.3328360
  H       -3.0789740     1.3005050     0.0038810
units angstrom
no_reorient  #important for SAPT in psi4, default
symmetry c1  #important for SAPT in psi4, default
}

set PROPERTIES_ORIGIN ["COM"]
properties('MP2/aug-cc-pvtz', properties = ['dipole'])
--------------------------------------------------------------------------

    Molecular point group: c1
  Charge       = 0
  Multiplicity = 1
  Basis Set: AUG-CC-PVTZ
    Blend: AUG-CC-PVTZ
  Basis Set: (AUG-CC-PVTZ AUX)
    Blend: AUG-CC-PVTZ-JKFIT

    Orbital Energies [Eh]
    ---------------------

    Doubly Occupied:

       1A    -20.603131     2A    -20.595600     3A    -20.591370
       4A    -20.568416     5A    -20.566276     6A    -20.558739
       7A    -11.368461     8A    -11.306075     9A    -11.301019
      10A    -11.300193    11A    -11.297410    12A    -11.281134
      13A     -1.439131    14A     -1.395505    15A     -1.388562
      16A     -1.368762    17A     -1.357474    18A     -1.345933
      19A     -1.077095    20A     -1.046328    21A     -0.949354
      22A     -0.890181    23A     -0.843773    24A     -0.807262
      25A     -0.762705    26A     -0.736497    27A     -0.722394
      28A     -0.708238    29A     -0.687072    30A     -0.666262
      31A     -0.660837    32A     -0.637168    33A     -0.623693
      34A     -0.616603    35A     -0.598908    36A     -0.583139
      37A     -0.576184    38A     -0.564457    39A     -0.541359
      40A     -0.537458    41A     -0.525952    42A     -0.510542
      43A     -0.489951    44A     -0.484186    45A     -0.472469
      46A     -0.460765    47A     -0.444599    48A     -0.432328

  @DF-RHF Final Energy:  -683.59785120006745

   => Energetics <=

    Nuclear Repulsion Energy =            833.4242848195624447
    One-Electron Energy =               -2595.4623749770362338
    Two-Electron Energy =                1078.4402389574063363
    Total Energy =                       -683.5978512000674527
  Basis Set: (AUG-CC-PVTZ AUX)
    Blend: AUG-CC-PVTZ-RI
    Molecular point group: c1

    Geometry (in Angstrom), charge = 0, multiplicity = 1:

       Center              X                  Y                   Z               Mass
    ------------   -----------------  -----------------  -----------------  -----------------
         O           -0.960481278464     0.950458946811     0.207355707739    15.994914619570
         O           -0.306693178464    -1.659913453189     1.313261507739    15.994914619570
         O            2.107110821536    -1.968789453189    -0.176798492261    15.994914619570
         O            2.757625821536     0.768504546811    -0.438672492261    15.994914619570
         O            0.741440821536     2.521030546811     0.583358507739    15.994914619570
         O           -3.479328178464     0.532506546811    -0.452265492261    15.994914619570
         C           -0.232810178464    -1.411208453189    -0.086192492261    12.000000000000
         C            1.163049821536    -0.974465453189    -0.526291492261    12.000000000000
         C           -1.213841178464    -0.305511453189    -0.471913492261    12.000000000000
         C            1.510432821536     0.357033546811     0.114965507739    12.000000000000
         C            0.424561821536     1.380848546811    -0.158826492261    12.000000000000
         C           -2.659553178464    -0.576586453189    -0.105356492261    12.000000000000
         H           -0.486524178464    -2.355935453189    -0.580642492261     1.007825032230
         H            1.146502821536    -0.823138453189    -1.620738492261     1.007825032230
         H           -1.156645178464    -0.084115453189    -1.549204492261     1.007825032230
         H            1.588801821536     0.222505546811     1.203003507739     1.007825032230
         H            0.370723821536     1.598177546811    -1.239913492261     1.007825032230
         H           -2.725218178464    -0.816534453189     0.962668507739     1.007825032230
         H           -3.029114178464    -1.435026453189    -0.672677492261     1.007825032230
         H           -0.386447178464    -0.781958453189     1.732340507739     1.007825032230
         H            2.980160821536    -1.569607453189    -0.350711492261     1.007825032230
         H            3.012795821536     1.584785546811     0.028402507739     1.007825032230
         H            0.123040821536     3.229029546811     0.329500507739     1.007825032230
         H           -3.077751178464     1.295053546811     0.000545507739     1.007825032230

  Basis Set: AUG-CC-PVTZ
    Blend: AUG-CC-PVTZ
  Basis Set: (AUG-CC-PVTZ AUX)
    Blend: AUG-CC-PVTZ-JKFIT
	 Reference Energy          =    -683.5978512000674527 [Eh]
	 Singles Energy            =      -0.0000000000000000 [Eh]
	 Same-Spin Energy          =      -0.6671150357080414 [Eh]
	 Opposite-Spin Energy      =      -2.0487814030776073 [Eh]
	 Correlation Energy        =      -2.7158964387856486 [Eh]
	 Total Energy              =    -686.3137476388531013 [Eh]

	 ================> DF-SCS-MP2 Energies <==================
	-----------------------------------------------------------
	 SCS Same-Spin Scale       =       0.3333333333333333 [-]
	 SCS Opposite-Spin Scale   =       1.2000000000000000 [-]
	 SCS Same-Spin Energy      =      -0.2223716785693471 [Eh]
	 SCS Opposite-Spin Energy  =      -2.4585376836931285 [Eh]
	 SCS Correlation Energy    =      -2.6809093622624758 [Eh]
	 SCS Total Energy          =    -686.2787605623299214 [Eh]
	-----------------------------------------------------------

  Dipole Moment: [D]
     X:     1.1437      Y:     3.0913      Z:    -0.9707     Total:     3.4360

*** Psi4 exiting successfully. Buy a developer a beer!
