                               Psi4 1.3.2 release

  ==> Input File <==

--------------------------------------------------------------------------
#psi4
#
memory 32 gb

molecule  {
0 1
  O       -0.8456270     0.8862080     0.2793150
  O       -0.3079160    -1.6544620     1.3165970
  O        2.1058880    -1.9633380    -0.1734630
  O        2.7564030     0.7739560    -0.4353370
  O        0.7402180     2.5264820     0.5866940
  O       -3.4805510     0.5379580    -0.4489300
  C       -0.2499559    -1.4027957    -0.1336499
  C        1.1618270    -0.9690140    -0.5229560
  C       -1.2150640    -0.3000600    -0.4685780
  C        1.5092100     0.3624850     0.1183010
  C        0.4233390     1.3863000    -0.1554910
  C       -2.6607760    -0.5711350    -0.1020210
  H       -0.4877470    -2.3504840    -0.5773070
  H        1.1452800    -0.8176870    -1.6174030
  H       -1.1578680    -0.0786640    -1.5458690
  H        1.5875790     0.2279570     1.2063390
  H        0.3695010     1.6036290    -1.2365780
  H       -2.7264410    -0.8110830     0.9660040
  H       -3.0303370    -1.4295750    -0.6693420
  H       -0.3876700    -0.7765070     1.7356760
  H        2.9789380    -1.5641560    -0.3473760
  H        3.0115730     1.5902370     0.0317380
  H        0.1218180     3.2344810     0.3328360
  H       -3.0789740     1.3005050     0.0038810
units angstrom
no_reorient  #important for SAPT in psi4, default
symmetry c1  #important for SAPT in psi4, default
}

set PROPERTIES_ORIGIN ["COM"]
properties('MP2/aug-cc-pvtz', properties = ['dipole'])
--------------------------------------------------------------------------

    Molecular point group: c1
  Charge       = 0
  Multiplicity = 1
  Basis Set: AUG-CC-PVTZ
    Blend: AUG-CC-PVTZ
  Basis Set: (AUG-CC-PVTZ AUX)
    Blend: AUG-CC-PVTZ-JKFIT

    Orbital Energies [Eh]
    ---------------------

    Doubly Occupied:

       1A    -20.600596     2A    -20.596463     3A    -20.585868
       4A    -20.565116     5A    -20.564897     6A    -20.559510
       7A    -11.363102     8A    -11.305994     9A    -11.299797
      10A    -11.297464    11A    -11.296725    12A    -11.286571
      13A     -1.448714    14A     -1.392452    15A     -1.385688
      16A     -1.364825    17A     -1.357081    18A     -1.341059
      19A     -1.077519    20A     -1.053741    21A     -0.950106
      22A     -0.889879    23A     -0.850397    24A     -0.808440
      25A     -0.759034    26A     -0.736807    27A     -0.720703
      28A     -0.714861    29A     -0.689705    30A     -0.665204
      31A     -0.656411    32A     -0.639843    33A     -0.622448
      34A     -0.618196    35A     -0.598366    36A     -0.582186
      37A     -0.570832    38A     -0.564160    39A     -0.538691
      40A     -0.532276    41A     -0.529868    42A     -0.510045
      43A     -0.496529    44A     -0.485696    45A     -0.471414
      46A     -0.459618    47A     -0.446190    48A     -0.432887

  @DF-RHF Final Energy:  -683.60481992104735

   => Energetics <=

    Nuclear Repulsion Energy =            835.5516727339046383
    One-Electron Energy =               -2599.7450303442446966
    Two-Electron Energy =                1080.5885376892929344
    Total Energy =                       -683.6048199210472376
  Basis Set: (AUG-CC-PVTZ AUX)
    Blend: AUG-CC-PVTZ-RI
    Molecular point group: c1

    Geometry (in Angstrom), charge = 0, multiplicity = 1:

       Center              X                  Y                   Z               Mass
    ------------   -----------------  -----------------  -----------------  -----------------
         O           -0.853654079409     0.886750815542     0.273268701133    15.994914619570
         O           -0.315943079409    -1.653919184458     1.310550701133    15.994914619570
         O            2.097860920591    -1.962795184458    -0.179509298867    15.994914619570
         O            2.748375920591     0.774498815542    -0.441383298867    15.994914619570
         O            0.732190920591     2.527024815542     0.580647701133    15.994914619570
         O           -3.488578079409     0.538500815542    -0.454976298867    15.994914619570
         C           -0.257982979409    -1.402252884458    -0.139696198867    12.000000000000
         C            1.153799920591    -0.968471184458    -0.529002298867    12.000000000000
         C           -1.223091079409    -0.299517184458    -0.474624298867    12.000000000000
         C            1.501182920591     0.363027815542     0.112254701133    12.000000000000
         C            0.415311920591     1.386842815542    -0.161537298867    12.000000000000
         C           -2.668803079409    -0.570592184458    -0.108067298867    12.000000000000
         H           -0.495774079409    -2.349941184458    -0.583353298867     1.007825032230
         H            1.137252920591    -0.817144184458    -1.623449298867     1.007825032230
         H           -1.165895079409    -0.078121184458    -1.551915298867     1.007825032230
         H            1.579551920591     0.228499815542     1.200292701133     1.007825032230
         H            0.361473920591     1.604171815542    -1.242624298867     1.007825032230
         H           -2.734468079409    -0.810540184458     0.959957701133     1.007825032230
         H           -3.038364079409    -1.429032184458    -0.675388298867     1.007825032230
         H           -0.395697079409    -0.775964184458     1.729629701133     1.007825032230
         H            2.970910920591    -1.563613184458    -0.353422298867     1.007825032230
         H            3.003545920591     1.590779815542     0.025691701133     1.007825032230
         H            0.113790920591     3.235023815542     0.326789701133     1.007825032230
         H           -3.087001079409     1.301047815542    -0.002165298867     1.007825032230

  Basis Set: AUG-CC-PVTZ
    Blend: AUG-CC-PVTZ
  Basis Set: (AUG-CC-PVTZ AUX)
    Blend: AUG-CC-PVTZ-JKFIT
	 Reference Energy          =    -683.6048199210473513 [Eh]
	 Singles Energy            =      -0.0000000000000000 [Eh]
	 Same-Spin Energy          =      -0.6664419481560255 [Eh]
	 Opposite-Spin Energy      =      -2.0469900509447729 [Eh]
	 Correlation Energy        =      -2.7134319991007985 [Eh]
	 Total Energy              =    -686.3182519201481000 [Eh]

	 ================> DF-SCS-MP2 Energies <==================
	-----------------------------------------------------------
	 SCS Same-Spin Scale       =       0.3333333333333333 [-]
	 SCS Opposite-Spin Scale   =       1.2000000000000000 [-]
	 SCS Same-Spin Energy      =      -0.2221473160520085 [Eh]
	 SCS Opposite-Spin Energy  =      -2.4563880611337274 [Eh]
	 SCS Correlation Energy    =      -2.6785353771857361 [Eh]
	 SCS Total Energy          =    -686.2833552982331184 [Eh]
	-----------------------------------------------------------

  Dipole Moment: [D]
     X:     0.6722      Y:     3.1775      Z:    -1.2311     Total:     3.4733

*** Psi4 exiting successfully. Buy a developer a beer!
