                               Psi4 1.4a3.dev225

  ==> Input File <==

--------------------------------------------------------------------------
#psi4
#
memory 32 gb

molecule  {
0 1
  O       -0.8456650     0.8861440     0.2793920
  O       -0.3077290    -1.6543970     1.3165920
  O        2.1058490    -1.9633390    -0.1734930
  O        2.7563870     0.7740080    -0.4352340
  O        0.7401070     2.5265290     0.5865970
  O       -3.4805150     0.5379850    -0.4487790
  C       -0.2340150    -1.4057960    -0.0828600
  C        1.1618410    -0.9690160    -0.5229920
  C       -1.2150830    -0.3001220    -0.4685840
  C        1.5091960     0.3624950     0.1183140
  C        0.4232960     1.3863010    -0.1554910
  C       -2.7084997    -0.5801350    -0.0899913
  H       -0.4877200    -2.3505680    -0.5772350
  H        1.1452880    -0.8176810    -1.6174430
  H       -1.1578130    -0.0786490    -1.5458470
  H        1.5874550     0.2279380     1.2063560
  H        0.3693510     1.6035860    -1.2365730
  H       -2.7265370    -0.8113720     0.9658980
  H       -3.0304070    -1.4295080    -0.6695770
  H       -0.3878110    -0.7763940     1.7355090
  H        2.9789120    -1.5642300    -0.3474430
  H        3.0116250     1.5901680     0.0320000
  H        0.1223170     3.2347930     0.3320250
  H       -3.0786550     1.3004670     0.0038890
units angstrom
no_reorient  #important for SAPT in psi4, default
symmetry c1  #important for SAPT in psi4, default
}

set PROPERTIES_ORIGIN ["COM"]
properties('MP2/aug-cc-pvtz', properties = ['dipole'])
--------------------------------------------------------------------------

    Molecular point group: c1
  Charge       = 0
  Multiplicity = 1
  Basis Set: AUG-CC-PVTZ
    Blend: AUG-CC-PVTZ
  Basis Set: (AUG-CC-PVTZ AUX)
    Blend: AUG-CC-PVTZ-JKFIT

    Orbital Energies [Eh]
    ---------------------

    Doubly Occupied:

       1A    -20.599680     2A    -20.594240     3A    -20.584855
       4A    -20.565763     5A    -20.564462     6A    -20.563383
       7A    -11.361868     8A    -11.304418     9A    -11.298313
      10A    -11.295518    11A    -11.293935    12A    -11.286131
      13A     -1.447230    14A     -1.391401    15A     -1.388519
      16A     -1.370424    17A     -1.358127    18A     -1.351969
      19A     -1.070945    20A     -1.045267    21A     -0.946550
      22A     -0.886460    23A     -0.851046    24A     -0.807605
      25A     -0.758794    26A     -0.736025    27A     -0.720710
      28A     -0.713078    29A     -0.691808    30A     -0.665840
      31A     -0.657707    32A     -0.639783    33A     -0.623854
      34A     -0.617584    35A     -0.605057    36A     -0.580673
      37A     -0.575585    38A     -0.563490    39A     -0.539523
      40A     -0.534726    41A     -0.527667    42A     -0.510143
      43A     -0.496435    44A     -0.482791    45A     -0.468688
      46A     -0.458772    47A     -0.442832    48A     -0.425977

  @DF-RHF Final Energy:  -683.60688731915832

   => Energetics <=

    Nuclear Repulsion Energy =            835.0628452499628338
    One-Electron Energy =               -2598.8081648773663801
    Two-Electron Energy =                1080.1384323082454557
    Total Energy =                       -683.6068873191582043
  Basis Set: (AUG-CC-PVTZ AUX)
    Blend: AUG-CC-PVTZ-RI
    Molecular point group: c1

    Geometry (in Angstrom), charge = 0, multiplicity = 1:

       Center              X                  Y                   Z               Mass
    ------------   -----------------  -----------------  -----------------  -----------------
         O           -0.851573503620     0.887479469996     0.269149278652    15.994914619570
         O           -0.313637503620    -1.653061530004     1.306349278652    15.994914619570
         O            2.099940496380    -1.962003530004    -0.183735721348    15.994914619570
         O            2.750478496380     0.775343469996    -0.445476721348    15.994914619570
         O            0.734198496380     2.527864469996     0.576354278652    15.994914619570
         O           -3.486423503620     0.539320469996    -0.459021721348    15.994914619570
         C           -0.239923503620    -1.404460530004    -0.093102721348    12.000000000000
         C            1.155932496380    -0.967680530004    -0.533234721348    12.000000000000
         C           -1.220991503620    -0.298786530004    -0.478826721348    12.000000000000
         C            1.503287496380     0.363830469996     0.108071278652    12.000000000000
         C            0.417387496380     1.387636469996    -0.165733721348    12.000000000000
         C           -2.714408203620    -0.578799530004    -0.100234021348    12.000000000000
         H           -0.493628503620    -2.349232530004    -0.587477721348     1.007825032230
         H            1.139379496380    -0.816345530004    -1.627685721348     1.007825032230
         H           -1.163721503620    -0.077313530004    -1.556089721348     1.007825032230
         H            1.581546496380     0.229273469996     1.196113278652     1.007825032230
         H            0.363442496380     1.604921469996    -1.246815721348     1.007825032230
         H           -2.732445503620    -0.810036530004     0.955655278652     1.007825032230
         H           -3.036315503620    -1.428172530004    -0.679819721348     1.007825032230
         H           -0.393719503620    -0.775058530004     1.725266278652     1.007825032230
         H            2.973003496380    -1.562894530004    -0.357685721348     1.007825032230
         H            3.005716496380     1.591503469996     0.021757278652     1.007825032230
         H            0.116408496380     3.236128469996     0.321782278652     1.007825032230
         H           -3.084563503620     1.301802469996    -0.006353721348     1.007825032230

  Basis Set: AUG-CC-PVTZ
    Blend: AUG-CC-PVTZ
  Basis Set: (AUG-CC-PVTZ AUX)
    Blend: AUG-CC-PVTZ-JKFIT
	 Reference Energy          =    -683.6068873191583180 [Eh]
	 Singles Energy            =      -0.0000000000000000 [Eh]
	 Same-Spin Energy          =      -0.6660569204563490 [Eh]
	 Opposite-Spin Energy      =      -2.0456997748776380 [Eh]
	 Correlation Energy        =      -2.7117566953339871 [Eh]
	 Total Energy              =    -686.3186440144922926 [Eh]

	 ================> DF-SCS-MP2 Energies <==================
	-----------------------------------------------------------
	 SCS Same-Spin Scale       =       0.3333333333333333 [-]
	 SCS Opposite-Spin Scale   =       1.2000000000000000 [-]
	 SCS Same-Spin Energy      =      -0.2220189734854497 [Eh]
	 SCS Opposite-Spin Energy  =      -2.4548397298531657 [Eh]
	 SCS Correlation Energy    =      -2.6768587033386155 [Eh]
	 SCS Total Energy          =    -686.2837460224969846 [Eh]
	-----------------------------------------------------------

  Dipole Moment: [D]
     X:     0.5571      Y:     3.1821      Z:    -1.0931     Total:     3.4104

*** Psi4 exiting successfully. Buy a developer a beer!
