                               Psi4 1.3.2 release

  ==> Input File <==

--------------------------------------------------------------------------
#psi4
#
memory 32 gb

molecule  {
0 1
  O       -0.8456270     0.8862080     0.2793150
  O       -0.3079160    -1.6544620     1.3165970
  O        2.1058880    -1.9633380    -0.1734630
  O        2.7564030     0.7739560    -0.4353370
  O        0.7402180     2.5264820     0.5866940
  O       -3.4402302     0.5612856    -0.4660800
  C       -0.2340330    -1.4057570    -0.0828570
  C        1.1618270    -0.9690140    -0.5229560
  C       -1.2150640    -0.3000600    -0.4685780
  C        1.5092100     0.3624850     0.1183010
  C        0.4233390     1.3863000    -0.1554910
  C       -2.6607760    -0.5711350    -0.1020210
  H       -0.4877470    -2.3504840    -0.5773070
  H        1.1452800    -0.8176870    -1.6174030
  H       -1.1578680    -0.0786640    -1.5458690
  H        1.5875790     0.2279570     1.2063390
  H        0.3695010     1.6036290    -1.2365780
  H       -2.7264410    -0.8110830     0.9660040
  H       -3.0303370    -1.4295750    -0.6693420
  H       -0.3876700    -0.7765070     1.7356760
  H        2.9789380    -1.5641560    -0.3473760
  H        3.0115730     1.5902370     0.0317380
  H        0.1218180     3.2344810     0.3328360
  H       -3.0789740     1.3005050     0.0038810
units angstrom
no_reorient  #important for SAPT in psi4, default
symmetry c1  #important for SAPT in psi4, default
}

set PROPERTIES_ORIGIN ["COM"]
properties('MP2/aug-cc-pvtz', properties = ['dipole'])
--------------------------------------------------------------------------

    Molecular point group: c1
  Charge       = 0
  Multiplicity = 1
  Basis Set: AUG-CC-PVTZ
    Blend: AUG-CC-PVTZ
  Basis Set: (AUG-CC-PVTZ AUX)
    Blend: AUG-CC-PVTZ-JKFIT

    Orbital Energies [Eh]
    ---------------------

    Doubly Occupied:

       1A    -20.599633     2A    -20.594043     3A    -20.584943
       4A    -20.564882     5A    -20.563622     6A    -20.561478
       7A    -11.361872     8A    -11.303479     9A    -11.298436
      10A    -11.296057    11A    -11.294243    12A    -11.286773
      13A     -1.447657    14A     -1.391662    15A     -1.389201
      16A     -1.370149    17A     -1.357688    18A     -1.352074
      19A     -1.072404    20A     -1.051326    21A     -0.949806
      22A     -0.886940    23A     -0.849415    24A     -0.808180
      25A     -0.759151    26A     -0.736949    27A     -0.722425
      28A     -0.713855    29A     -0.692582    30A     -0.665921
      31A     -0.658204    32A     -0.640011    33A     -0.622933
      34A     -0.618671    35A     -0.600903    36A     -0.580721
      37A     -0.575250    38A     -0.562279    39A     -0.539641
      40A     -0.534065    41A     -0.527729    42A     -0.511237
      43A     -0.496469    44A     -0.482702    45A     -0.470894
      46A     -0.459446    47A     -0.444157    48A     -0.429338

  @DF-RHF Final Energy:  -683.60908082575452

   => Energetics <=

    Nuclear Repulsion Energy =            836.7194053477973057
    One-Electron Energy =               -2602.0939866318008171
    Two-Electron Energy =                1081.7655004582488800
    Total Energy =                       -683.6090808257545177
  Basis Set: (AUG-CC-PVTZ AUX)
    Blend: AUG-CC-PVTZ-RI
    Molecular point group: c1

    Geometry (in Angstrom), charge = 0, multiplicity = 1:

       Center              X                  Y                   Z               Mass
    ------------   -----------------  -----------------  -----------------  -----------------
         O           -0.858296903040     0.884875990382     0.271407123287    15.994914619570
         O           -0.320585903040    -1.655794009618     1.308689123287    15.994914619570
         O            2.093218096960    -1.964670009618    -0.181370876713    15.994914619570
         O            2.743733096960     0.772623990382    -0.443244876713    15.994914619570
         O            0.727548096960     2.525149990382     0.578786123287    15.994914619570
         O           -3.452900103040     0.559953590382    -0.473987876713    15.994914619570
         C           -0.246702903040    -1.407089009618    -0.090764876713    12.000000000000
         C            1.149157096960    -0.970346009618    -0.530863876713    12.000000000000
         C           -1.227733903040    -0.301392009618    -0.476485876713    12.000000000000
         C            1.496540096960     0.361152990382     0.110393123287    12.000000000000
         C            0.410669096960     1.384967990382    -0.163398876713    12.000000000000
         C           -2.673445903040    -0.572467009618    -0.109928876713    12.000000000000
         H           -0.500416903040    -2.351816009618    -0.585214876713     1.007825032230
         H            1.132610096960    -0.819019009618    -1.625310876713     1.007825032230
         H           -1.170537903040    -0.079996009618    -1.553776876713     1.007825032230
         H            1.574909096960     0.226624990382     1.198431123287     1.007825032230
         H            0.356831096960     1.602296990382    -1.244485876713     1.007825032230
         H           -2.739110903040    -0.812415009618     0.958096123287     1.007825032230
         H           -3.043006903040    -1.430907009618    -0.677249876713     1.007825032230
         H           -0.400339903040    -0.777839009618     1.727768123287     1.007825032230
         H            2.966268096960    -1.565488009618    -0.355283876713     1.007825032230
         H            2.998903096960     1.588904990382     0.023830123287     1.007825032230
         H            0.109148096960     3.233148990382     0.324928123287     1.007825032230
         H           -3.091643903040     1.299172990382    -0.004026876713     1.007825032230

  Basis Set: AUG-CC-PVTZ
    Blend: AUG-CC-PVTZ
  Basis Set: (AUG-CC-PVTZ AUX)
    Blend: AUG-CC-PVTZ-JKFIT
	 Reference Energy          =    -683.6090808257545177 [Eh]
	 Singles Energy            =      -0.0000000000000000 [Eh]
	 Same-Spin Energy          =      -0.6660157692295087 [Eh]
	 Opposite-Spin Energy      =      -2.0453090818252386 [Eh]
	 Correlation Energy        =      -2.7113248510547474 [Eh]
	 Total Energy              =    -686.3204056768092869 [Eh]

	 ================> DF-SCS-MP2 Energies <==================
	-----------------------------------------------------------
	 SCS Same-Spin Scale       =       0.3333333333333333 [-]
	 SCS Opposite-Spin Scale   =       1.2000000000000000 [-]
	 SCS Same-Spin Energy      =      -0.2220052564098362 [Eh]
	 SCS Opposite-Spin Energy  =      -2.4543708981902861 [Eh]
	 SCS Correlation Energy    =      -2.6763761546001223 [Eh]
	 SCS Total Energy          =    -686.2854569803546383 [Eh]
	-----------------------------------------------------------

  Dipole Moment: [D]
     X:     0.5516      Y:     3.1149      Z:    -1.0482     Total:     3.3325

*** Psi4 exiting successfully. Buy a developer a beer!
