                               Psi4 1.4a3.dev225

  ==> Input File <==

--------------------------------------------------------------------------
#psi4
#
memory 32 gb

molecule  {
0 1
  O       -0.8456650     0.8861440     0.2793920
  O       -0.3077290    -1.6543970     1.3165920
  O        2.1058490    -1.9633390    -0.1734930
  O        2.7563870     0.7740080    -0.4352340
  O        0.7401070     2.5265290     0.5865970
  O       -3.4805150     0.5379850    -0.4487790
  C       -0.2340150    -1.4057960    -0.0828600
  C        1.1618410    -0.9690160    -0.5229920
  C       -1.2150830    -0.3001220    -0.4685840
  C        1.5091960     0.3624950     0.1183140
  C        0.4232960     1.3863010    -0.1554910
  C       -2.6608140    -0.5711940    -0.1020800
  H       -0.4877200    -2.3505680    -0.5772350
  H        1.1460370    -0.8245288    -1.5679198
  H       -1.1578130    -0.0786490    -1.5458470
  H        1.5874550     0.2279380     1.2063560
  H        0.3693510     1.6035860    -1.2365730
  H       -2.7265370    -0.8113720     0.9658980
  H       -3.0304070    -1.4295080    -0.6695770
  H       -0.3878110    -0.7763940     1.7355090
  H        2.9789120    -1.5642300    -0.3474430
  H        3.0116250     1.5901680     0.0320000
  H        0.1223170     3.2347930     0.3320250
  H       -3.0786550     1.3004670     0.0038890
units angstrom
no_reorient  #important for SAPT in psi4, default
symmetry c1  #important for SAPT in psi4, default
}

set PROPERTIES_ORIGIN ["COM"]
properties('MP2/aug-cc-pvtz', properties = ['dipole'])
--------------------------------------------------------------------------

    Molecular point group: c1
  Charge       = 0
  Multiplicity = 1
  Basis Set: AUG-CC-PVTZ
    Blend: AUG-CC-PVTZ
  Basis Set: (AUG-CC-PVTZ AUX)
    Blend: AUG-CC-PVTZ-JKFIT

    Orbital Energies [Eh]
    ---------------------

    Doubly Occupied:

       1A    -20.600172     2A    -20.595079     3A    -20.585354
       4A    -20.564802     5A    -20.564548     6A    -20.563060
       7A    -11.362554     8A    -11.304894     9A    -11.298406
      10A    -11.296547    11A    -11.288730    12A    -11.285927
      13A     -1.448262    14A     -1.391879    15A     -1.388870
      16A     -1.367671    17A     -1.356552    18A     -1.351858
      19A     -1.074324    20A     -1.051638    21A     -0.949366
      22A     -0.888038    23A     -0.849437    24A     -0.811350
      25A     -0.759985    26A     -0.737172    27A     -0.723725
      28A     -0.714561    29A     -0.689960    30A     -0.668198
      31A     -0.658214    32A     -0.640469    33A     -0.623355
      34A     -0.618745    35A     -0.598933    36A     -0.581441
      37A     -0.575694    38A     -0.563352    39A     -0.540032
      40A     -0.534854    41A     -0.528408    42A     -0.511858
      43A     -0.495890    44A     -0.483423    45A     -0.470801
      46A     -0.461166    47A     -0.444953    48A     -0.430031

  @DF-RHF Final Energy:  -683.60777849262820

   => Energetics <=

    Nuclear Repulsion Energy =            836.2484624926747756
    One-Electron Energy =               -2601.1234067758050514
    Two-Electron Energy =                1081.2671657905023039
    Total Energy =                       -683.6077784926280856
  Basis Set: (AUG-CC-PVTZ AUX)
    Blend: AUG-CC-PVTZ-RI
    Molecular point group: c1

    Geometry (in Angstrom), charge = 0, multiplicity = 1:

       Center              X                  Y                   Z               Mass
    ------------   -----------------  -----------------  -----------------  -----------------
         O           -0.854755623356     0.886921940691     0.269677724108    15.994914619570
         O           -0.316819623356    -1.653619059309     1.306877724108    15.994914619570
         O            2.096758376644    -1.962561059309    -0.183207275892    15.994914619570
         O            2.747296376644     0.774785940691    -0.444948275892    15.994914619570
         O            0.731016376644     2.527306940691     0.576882724108    15.994914619570
         O           -3.489605623356     0.538762940691    -0.458493275892    15.994914619570
         C           -0.243105623356    -1.405018059309    -0.092574275892    12.000000000000
         C            1.152750376644    -0.968238059309    -0.532706275892    12.000000000000
         C           -1.224173623356    -0.299344059309    -0.478298275892    12.000000000000
         C            1.500105376644     0.363272940691     0.108599724108    12.000000000000
         C            0.414205376644     1.387078940691    -0.165205275892    12.000000000000
         C           -2.669904623356    -0.570416059309    -0.111794275892    12.000000000000
         H           -0.496810623356    -2.349790059309    -0.586949275892     1.007825032230
         H            1.136946376644    -0.823750859309    -1.577634075892     1.007825032230
         H           -1.166903623356    -0.077871059309    -1.555561275892     1.007825032230
         H            1.578364376644     0.228715940691     1.196641724108     1.007825032230
         H            0.360260376644     1.604363940691    -1.246287275892     1.007825032230
         H           -2.735627623356    -0.810594059309     0.956183724108     1.007825032230
         H           -3.039497623356    -1.428730059309    -0.679291275892     1.007825032230
         H           -0.396901623356    -0.775616059309     1.725794724108     1.007825032230
         H            2.969821376644    -1.563452059309    -0.357157275892     1.007825032230
         H            3.002534376644     1.590945940691     0.022285724108     1.007825032230
         H            0.113226376644     3.235570940691     0.322310724108     1.007825032230
         H           -3.087745623356     1.301244940691    -0.005825275892     1.007825032230

  Basis Set: AUG-CC-PVTZ
    Blend: AUG-CC-PVTZ
  Basis Set: (AUG-CC-PVTZ AUX)
    Blend: AUG-CC-PVTZ-JKFIT
	 Reference Energy          =    -683.6077784926281993 [Eh]
	 Singles Energy            =      -0.0000000000000000 [Eh]
	 Same-Spin Energy          =      -0.6662311740693958 [Eh]
	 Opposite-Spin Energy      =      -2.0457639183966134 [Eh]
	 Correlation Energy        =      -2.7119950924660090 [Eh]
	 Total Energy              =    -686.3197735850942536 [Eh]

	 ================> DF-SCS-MP2 Energies <==================
	-----------------------------------------------------------
	 SCS Same-Spin Scale       =       0.3333333333333333 [-]
	 SCS Opposite-Spin Scale   =       1.2000000000000000 [-]
	 SCS Same-Spin Energy      =      -0.2220770580231319 [Eh]
	 SCS Opposite-Spin Energy  =      -2.4549167020759359 [Eh]
	 SCS Correlation Energy    =      -2.6769937600990676 [Eh]
	 SCS Total Energy          =    -686.2847722527272936 [Eh]
	-----------------------------------------------------------

  Dipole Moment: [D]
     X:     0.6508      Y:     3.1691      Z:    -1.1305     Total:     3.4271

*** Psi4 exiting successfully. Buy a developer a beer!
