                               Psi4 1.3.2 release

  ==> Input File <==

--------------------------------------------------------------------------
#psi4
#
memory 32 gb

molecule  {
0 1
  O       -0.8456270     0.8862080     0.2793150
  O       -0.3079160    -1.6544620     1.3165970
  O        2.1058880    -1.9633380    -0.1734630
  O        2.7564030     0.7739560    -0.4353370
  O        0.7402180     2.5264820     0.5866940
  O       -3.4805510     0.5379580    -0.4489300
  C       -0.2340330    -1.4057570    -0.0828570
  C        1.1618270    -0.9690140    -0.5229560
  C       -1.2150640    -0.3000600    -0.4685780
  C        1.5092100     0.3624850     0.1183010
  C        0.4233390     1.3863000    -0.1554910
  C       -2.6607760    -0.5711350    -0.1020210
  H       -0.4877470    -2.3504840    -0.5773070
  H        1.1452800    -0.8176870    -1.6174030
  H       -1.1578680    -0.0786640    -1.5458690
  H        1.5875790     0.2279570     1.2063390
  H        0.3695010     1.6036290    -1.2365780
  H       -2.7264410    -0.8110830     0.9660040
  H       -3.0303370    -1.4295750    -0.6693420
  H       -0.3876700    -0.7765070     1.7356760
  H        3.1579138    -1.4823234    -0.3830283
  H        3.0115730     1.5902370     0.0317380
  H        0.1218180     3.2344810     0.3328360
  H       -3.0789740     1.3005050     0.0038810
units angstrom
no_reorient  #important for SAPT in psi4, default
symmetry c1  #important for SAPT in psi4, default
}

set PROPERTIES_ORIGIN ["COM"]
properties('MP2/aug-cc-pvtz', properties = ['dipole'])
--------------------------------------------------------------------------

    Molecular point group: c1
  Charge       = 0
  Multiplicity = 1
  Basis Set: AUG-CC-PVTZ
    Blend: AUG-CC-PVTZ
  Basis Set: (AUG-CC-PVTZ AUX)
    Blend: AUG-CC-PVTZ-JKFIT

    Orbital Energies [Eh]
    ---------------------

    Doubly Occupied:

       1A    -20.599700     2A    -20.594473     3A    -20.586321
       4A    -20.575168     5A    -20.564262     6A    -20.564080
       7A    -11.361835     8A    -11.304159     9A    -11.297950
      10A    -11.296050    11A    -11.292500    12A    -11.285353
      13A     -1.447634    14A     -1.390041    15A     -1.385539
      16A     -1.366023    17A     -1.353390    18A     -1.328753
      19A     -1.067820    20A     -1.050252    21A     -0.945814
      22A     -0.885430    23A     -0.843828    24A     -0.807172
      25A     -0.755233    26A     -0.734718    27A     -0.715219
      28A     -0.712179    29A     -0.688228    30A     -0.663714
      31A     -0.647766    32A     -0.627588    33A     -0.620306
      34A     -0.615183    35A     -0.596706    36A     -0.579792
      37A     -0.574557    38A     -0.561539    39A     -0.534582
      40A     -0.531751    41A     -0.522874    42A     -0.510827
      43A     -0.495127    44A     -0.482026    45A     -0.467870
      46A     -0.457502    47A     -0.441446    48A     -0.427339

  @DF-RHF Final Energy:  -683.57279822834937

   => Energetics <=

    Nuclear Repulsion Energy =            834.8734699789972638
    One-Electron Energy =               -2598.5772925299702365
    Two-Electron Energy =                1080.1310243226237162
    Total Energy =                       -683.5727982283492565
  Basis Set: (AUG-CC-PVTZ AUX)
    Blend: AUG-CC-PVTZ-RI
    Molecular point group: c1

    Geometry (in Angstrom), charge = 0, multiplicity = 1:

       Center              X                  Y                   Z               Mass
    ------------   -----------------  -----------------  -----------------  -----------------
         O           -0.855716970123     0.886490144323     0.270083247801    15.994914619570
         O           -0.318005970123    -1.654179855677     1.307365247801    15.994914619570
         O            2.095798029877    -1.963055855677    -0.182694752199    15.994914619570
         O            2.746313029877     0.774238144323    -0.444568752199    15.994914619570
         O            0.730128029877     2.526764144323     0.577462247801    15.994914619570
         O           -3.490640970123     0.538240144323    -0.458161752199    15.994914619570
         C           -0.244122970123    -1.405474855677    -0.092088752199    12.000000000000
         C            1.151737029877    -0.968731855677    -0.532187752199    12.000000000000
         C           -1.225153970123    -0.299777855677    -0.477809752199    12.000000000000
         C            1.499120029877     0.362767144323     0.109069247801    12.000000000000
         C            0.413249029877     1.386582144323    -0.164722752199    12.000000000000
         C           -2.670865970123    -0.570852855677    -0.111252752199    12.000000000000
         H           -0.497836970123    -2.350201855677    -0.586538752199     1.007825032230
         H            1.135190029877    -0.817404855677    -1.626634752199     1.007825032230
         H           -1.167957970123    -0.078381855677    -1.555100752199     1.007825032230
         H            1.577489029877     0.228239144323     1.197107247801     1.007825032230
         H            0.359411029877     1.603911144323    -1.245809752199     1.007825032230
         H           -2.736530970123    -0.810800855677     0.956772247801     1.007825032230
         H           -3.040426970123    -1.429292855677    -0.678573752199     1.007825032230
         H           -0.397759970123    -0.776224855677     1.726444247801     1.007825032230
         H            3.147823829877    -1.482041255677    -0.392260052199     1.007825032230
         H            3.001483029877     1.590519144323     0.022506247801     1.007825032230
         H            0.111728029877     3.234763144323     0.323604247801     1.007825032230
         H           -3.089063970123     1.300787144323    -0.005350752199     1.007825032230

  Basis Set: AUG-CC-PVTZ
    Blend: AUG-CC-PVTZ
  Basis Set: (AUG-CC-PVTZ AUX)
    Blend: AUG-CC-PVTZ-JKFIT
	 Reference Energy          =    -683.5727982283493702 [Eh]
	 Singles Energy            =      -0.0000000000000000 [Eh]
	 Same-Spin Energy          =      -0.6688047014419377 [Eh]
	 Opposite-Spin Energy      =      -2.0529891110678484 [Eh]
	 Correlation Energy        =      -2.7217938125097860 [Eh]
	 Total Energy              =    -686.2945920408591292 [Eh]

	 ================> DF-SCS-MP2 Energies <==================
	-----------------------------------------------------------
	 SCS Same-Spin Scale       =       0.3333333333333333 [-]
	 SCS Opposite-Spin Scale   =       1.2000000000000000 [-]
	 SCS Same-Spin Energy      =      -0.2229349004806459 [Eh]
	 SCS Opposite-Spin Energy  =      -2.4635869332814182 [Eh]
	 SCS Correlation Energy    =      -2.6865218337620642 [Eh]
	 SCS Total Energy          =    -686.2593200621114420 [Eh]
	-----------------------------------------------------------

  Dipole Moment: [D]
     X:     0.8418      Y:     3.2256      Z:    -1.1176     Total:     3.5160

*** Psi4 exiting successfully. Buy a developer a beer!
