                               Psi4 1.3.2 release

  ==> Input File <==

--------------------------------------------------------------------------
#psi4
#
memory 32 gb

molecule  {
0 1
  O       -0.8456270     0.8862080     0.2793150
  O       -0.3079160    -1.6544620     1.3165970
  O        2.1058880    -1.9633380    -0.1734630
  O        2.7564030     0.7739560    -0.4353370
  O        0.7402180     2.5264820     0.5866940
  O       -3.4805510     0.5379580    -0.4489300
  C       -0.2340330    -1.4057570    -0.0828570
  C        1.1618270    -0.9690140    -0.5229560
  C       -1.0866289    -0.4448162    -0.4180800
  C        1.5092100     0.3624850     0.1183010
  C        0.4233390     1.3863000    -0.1554910
  C       -2.6607760    -0.5711350    -0.1020210
  H       -0.4877470    -2.3504840    -0.5773070
  H        1.1452800    -0.8176870    -1.6174030
  H       -1.1578680    -0.0786640    -1.5458690
  H        1.5875790     0.2279570     1.2063390
  H        0.3695010     1.6036290    -1.2365780
  H       -2.7264410    -0.8110830     0.9660040
  H       -3.0303370    -1.4295750    -0.6693420
  H       -0.3876700    -0.7765070     1.7356760
  H        2.9789380    -1.5641560    -0.3473760
  H        3.0115730     1.5902370     0.0317380
  H        0.1218180     3.2344810     0.3328360
  H       -3.0789740     1.3005050     0.0038810
units angstrom
no_reorient  #important for SAPT in psi4, default
symmetry c1  #important for SAPT in psi4, default
}

set PROPERTIES_ORIGIN ["COM"]
properties('MP2/aug-cc-pvtz', properties = ['dipole'])
--------------------------------------------------------------------------

    Molecular point group: c1
  Charge       = 0
  Multiplicity = 1
  Basis Set: AUG-CC-PVTZ
    Blend: AUG-CC-PVTZ
  Basis Set: (AUG-CC-PVTZ AUX)
    Blend: AUG-CC-PVTZ-JKFIT

    Orbital Energies [Eh]
    ---------------------

    Doubly Occupied:

       1A    -20.596432     2A    -20.589911     3A    -20.585526
       4A    -20.569878     5A    -20.569255     6A    -20.566035
       7A    -11.357434     8A    -11.310910     9A    -11.299472
      10A    -11.298315    11A    -11.292506    12A    -11.291033
      13A     -1.440268    14A     -1.394436    15A     -1.388984
      16A     -1.367121    17A     -1.358498    18A     -1.346615
      19A     -1.106738    20A     -1.048812    21A     -0.943386
      22A     -0.896498    23A     -0.849153    24A     -0.804591
      25A     -0.760755    26A     -0.740856    27A     -0.724073
      28A     -0.704379    29A     -0.687634    30A     -0.672760
      31A     -0.661411    32A     -0.639202    33A     -0.631715
      34A     -0.604922    35A     -0.596575    36A     -0.584833
      37A     -0.574184    38A     -0.565965    39A     -0.543775
      40A     -0.533110    41A     -0.519081    42A     -0.504677
      43A     -0.495884    44A     -0.488844    45A     -0.469725
      46A     -0.459953    47A     -0.442988    48A     -0.425931

  @DF-RHF Final Energy:  -683.55451996948079

   => Energetics <=

    Nuclear Repulsion Energy =            837.3578600687994822
    One-Electron Energy =               -2603.2146873896549550
    Two-Electron Energy =                1082.3023073513745658
    Total Energy =                       -683.5545199694809071
  Basis Set: (AUG-CC-PVTZ AUX)
    Blend: AUG-CC-PVTZ-RI
    Molecular point group: c1

    Geometry (in Angstrom), charge = 0, multiplicity = 1:

       Center              X                  Y                   Z               Mass
    ------------   -----------------  -----------------  -----------------  -----------------
         O           -0.863274558165     0.896595182121     0.266518351644    15.994914619570
         O           -0.325563558165    -1.644074817879     1.303800351644    15.994914619570
         O            2.088240441835    -1.952950817879    -0.186259648356    15.994914619570
         O            2.738755441835     0.784343182121    -0.448133648356    15.994914619570
         O            0.722570441835     2.536869182121     0.573897351644    15.994914619570
         O           -3.498198558165     0.548345182121    -0.461726648356    15.994914619570
         C           -0.251680558165    -1.395369817879    -0.095653648356    12.000000000000
         C            1.144179441835    -0.958626817879    -0.535752648356    12.000000000000
         C           -1.104276458165    -0.434429017879    -0.430876648356    12.000000000000
         C            1.491562441835     0.372872182121     0.105504351644    12.000000000000
         C            0.405691441835     1.396687182121    -0.168287648356    12.000000000000
         C           -2.678423558165    -0.560747817879    -0.114817648356    12.000000000000
         H           -0.505394558165    -2.340096817879    -0.590103648356     1.007825032230
         H            1.127632441835    -0.807299817879    -1.630199648356     1.007825032230
         H           -1.175515558165    -0.068276817879    -1.558665648356     1.007825032230
         H            1.569931441835     0.238344182121     1.193542351644     1.007825032230
         H            0.351853441835     1.614016182121    -1.249374648356     1.007825032230
         H           -2.744088558165    -0.800695817879     0.953207351644     1.007825032230
         H           -3.047984558165    -1.419187817879    -0.682138648356     1.007825032230
         H           -0.405317558165    -0.766119817879     1.722879351644     1.007825032230
         H            2.961290441835    -1.553768817879    -0.360172648356     1.007825032230
         H            2.993925441835     1.600624182121     0.018941351644     1.007825032230
         H            0.104170441835     3.244868182121     0.320039351644     1.007825032230
         H           -3.096621558165     1.310892182121    -0.008915648356     1.007825032230

  Basis Set: AUG-CC-PVTZ
    Blend: AUG-CC-PVTZ
  Basis Set: (AUG-CC-PVTZ AUX)
    Blend: AUG-CC-PVTZ-JKFIT
	 Reference Energy          =    -683.5545199694807934 [Eh]
	 Singles Energy            =      -0.0000000000000000 [Eh]
	 Same-Spin Energy          =      -0.6700445368928396 [Eh]
	 Opposite-Spin Energy      =      -2.0525133963582625 [Eh]
	 Correlation Energy        =      -2.7225579332511023 [Eh]
	 Total Energy              =    -686.2770779027318895 [Eh]

	 ================> DF-SCS-MP2 Energies <==================
	-----------------------------------------------------------
	 SCS Same-Spin Scale       =       0.3333333333333333 [-]
	 SCS Opposite-Spin Scale   =       1.2000000000000000 [-]
	 SCS Same-Spin Energy      =      -0.2233481789642799 [Eh]
	 SCS Opposite-Spin Energy  =      -2.4630160756299149 [Eh]
	 SCS Correlation Energy    =      -2.6863642545941948 [Eh]
	 SCS Total Energy          =    -686.2408842240749891 [Eh]
	-----------------------------------------------------------

  Dipole Moment: [D]
     X:     0.7369      Y:     2.9243      Z:    -1.0610     Total:     3.1969

*** Psi4 exiting successfully. Buy a developer a beer!
