                               Psi4 1.3.2 release

  ==> Input File <==

--------------------------------------------------------------------------
#psi4
#
memory 32 gb

molecule  {
0 1
  O       -0.8456270     0.8862080     0.2793150
  O       -0.3079160    -1.6544620     1.3165970
  O        2.1058880    -1.9633380    -0.1734630
  O        2.7564030     0.7739560    -0.4353370
  O        0.7402180     2.5264820     0.5866940
  O       -3.4805510     0.5379580    -0.4489300
  C       -0.2340330    -1.4057570    -0.0828570
  C        1.1618270    -0.9690140    -0.5229560
  C       -1.2150640    -0.3000600    -0.4685780
  C        1.5092100     0.3624850     0.1183010
  C        0.4233390     1.3863000    -0.1554910
  C       -2.6607760    -0.5711350    -0.1020210
  H       -0.4877470    -2.3504840    -0.5773070
  H        1.1452800    -0.8176870    -1.6174030
  H       -1.1578680    -0.0786640    -1.5458690
  H        1.5875790     0.2279570     1.2063390
  H        0.3695010     1.6036290    -1.2365780
  H       -2.7264410    -0.8110830     0.9660040
  H       -3.0303370    -1.4295750    -0.6693420
  H       -0.3876700    -0.7765070     1.7356760
  H        2.9789380    -1.5641560    -0.3473760
  H        3.0115730     1.5902370     0.0317380
  H        0.1218180     3.2344810     0.3328360
  H       -3.0789740     1.3005050     0.0038810
units angstrom
no_reorient  #important for SAPT in psi4, default
symmetry c1  #important for SAPT in psi4, default
}

set PROPERTIES_ORIGIN ["COM"]
properties('MP2/aug-cc-pvtz', properties = ['dipole'])
--------------------------------------------------------------------------

    Molecular point group: c1
  Charge       = 0
  Multiplicity = 1
  Basis Set: AUG-CC-PVTZ
    Blend: AUG-CC-PVTZ
  Basis Set: (AUG-CC-PVTZ AUX)
    Blend: AUG-CC-PVTZ-JKFIT

    Orbital Energies [Eh]
    ---------------------

    Doubly Occupied:

       1A    -20.600161     2A    -20.595046     3A    -20.585404
       4A    -20.565221     5A    -20.564506     6A    -20.564112
       7A    -11.362522     8A    -11.304744     9A    -11.298980
      10A    -11.296969    11A    -11.294886    12A    -11.285857
      13A     -1.448259    14A     -1.391986    15A     -1.388996
      16A     -1.367809    17A     -1.356785    18A     -1.352122
      19A     -1.072963    20A     -1.051535    21A     -0.948751
      22A     -0.887476    23A     -0.848493    24A     -0.808768
      25A     -0.759672    26A     -0.737101    27A     -0.722000
      28A     -0.714131    29A     -0.689669    30A     -0.665949
      31A     -0.658616    32A     -0.640141    33A     -0.623293
      34A     -0.618815    35A     -0.598692    36A     -0.580739
      37A     -0.575843    38A     -0.562956    39A     -0.540037
      40A     -0.534928    41A     -0.528376    42A     -0.511922
      43A     -0.495859    44A     -0.483368    45A     -0.470285
      46A     -0.460007    47A     -0.444553    48A     -0.430102

  @DF-RHF Final Energy:  -683.60830022747348

   => Energetics <=

    Nuclear Repulsion Energy =            835.9418332706011370
    One-Electron Energy =               -2600.5214523624472349
    Two-Electron Energy =                1080.9713188643727335
    Total Energy =                       -683.6083002274733644
  Basis Set: (AUG-CC-PVTZ AUX)
    Blend: AUG-CC-PVTZ-RI
    Molecular point group: c1

    Geometry (in Angstrom), charge = 0, multiplicity = 1:

       Center              X                  Y                   Z               Mass
    ------------   -----------------  -----------------  -----------------  -----------------
         O           -0.854715232384     0.886948166043     0.269883699849    15.994914619570
         O           -0.317004232384    -1.653721833957     1.307165699849    15.994914619570
         O            2.096799767616    -1.962597833957    -0.182894300151    15.994914619570
         O            2.747314767616     0.774696166043    -0.444768300151    15.994914619570
         O            0.731129767616     2.527222166043     0.577262699849    15.994914619570
         O           -3.489639232384     0.538698166043    -0.458361300151    15.994914619570
         C           -0.243121232384    -1.405016833957    -0.092288300151    12.000000000000
         C            1.152738767616    -0.968273833957    -0.532387300151    12.000000000000
         C           -1.224152232384    -0.299319833957    -0.478009300151    12.000000000000
         C            1.500121767616     0.363225166043     0.108869699849    12.000000000000
         C            0.414250767616     1.387040166043    -0.164922300151    12.000000000000
         C           -2.669864232384    -0.570394833957    -0.111452300151    12.000000000000
         H           -0.496835232384    -2.349743833957    -0.586738300151     1.007825032230
         H            1.136191767616    -0.816946833957    -1.626834300151     1.007825032230
         H           -1.166956232384    -0.077923833957    -1.555300300151     1.007825032230
         H            1.578490767616     0.228697166043     1.196907699849     1.007825032230
         H            0.360412767616     1.604369166043    -1.246009300151     1.007825032230
         H           -2.735529232384    -0.810342833957     0.956572699849     1.007825032230
         H           -3.039425232384    -1.428834833957    -0.678773300151     1.007825032230
         H           -0.396758232384    -0.775766833957     1.726244699849     1.007825032230
         H            2.969849767616    -1.563415833957    -0.356807300151     1.007825032230
         H            3.002484767616     1.590977166043     0.022306699849     1.007825032230
         H            0.112729767616     3.235221166043     0.323404699849     1.007825032230
         H           -3.088062232384     1.301245166043    -0.005550300151     1.007825032230

  Basis Set: AUG-CC-PVTZ
    Blend: AUG-CC-PVTZ
  Basis Set: (AUG-CC-PVTZ AUX)
    Blend: AUG-CC-PVTZ-JKFIT
	 Reference Energy          =    -683.6083002274734781 [Eh]
	 Singles Energy            =      -0.0000000000000000 [Eh]
	 Same-Spin Energy          =      -0.6663384272814477 [Eh]
	 Opposite-Spin Energy      =      -2.0461789025521036 [Eh]
	 Correlation Energy        =      -2.7125173298335512 [Eh]
	 Total Energy              =    -686.3208175573070093 [Eh]

	 ================> DF-SCS-MP2 Energies <==================
	-----------------------------------------------------------
	 SCS Same-Spin Scale       =       0.3333333333333333 [-]
	 SCS Opposite-Spin Scale   =       1.2000000000000000 [-]
	 SCS Same-Spin Energy      =      -0.2221128090938159 [Eh]
	 SCS Opposite-Spin Energy  =      -2.4554146830625241 [Eh]
	 SCS Correlation Energy    =      -2.6775274921563401 [Eh]
	 SCS Total Energy          =    -686.2858277196297649 [Eh]
	-----------------------------------------------------------

  Dipole Moment: [D]
     X:     0.6642      Y:     3.1561      Z:    -1.0985     Total:     3.4072

*** Psi4 exiting successfully. Buy a developer a beer!
