                               Psi4 1.3.2 release

  ==> Input File <==

--------------------------------------------------------------------------
#psi4
#
memory 32 gb

molecule  {
0 1
  O       -0.8456270     0.8862080     0.2793150
  O       -0.3079160    -1.6544620     1.3165970
  O        2.1058880    -1.9633380    -0.1734630
  O        2.7564030     0.7739560    -0.4353370
  O        0.7402180     2.5264820     0.5866940
  O       -3.4805510     0.5379580    -0.4489300
  C       -0.2422083    -1.4043426    -0.1081903
  C        1.1618270    -0.9690140    -0.5229560
  C       -1.2150640    -0.3000600    -0.4685780
  C        1.5092100     0.3624850     0.1183010
  C        0.4233390     1.3863000    -0.1554910
  C       -2.6607760    -0.5711350    -0.1020210
  H       -0.4877470    -2.3504840    -0.5773070
  H        1.1452800    -0.8176870    -1.6174030
  H       -1.1578680    -0.0786640    -1.5458690
  H        1.5875790     0.2279570     1.2063390
  H        0.3695010     1.6036290    -1.2365780
  H       -2.7264410    -0.8110830     0.9660040
  H       -3.0303370    -1.4295750    -0.6693420
  H       -0.3876700    -0.7765070     1.7356760
  H        2.9789380    -1.5641560    -0.3473760
  H        3.0115730     1.5902370     0.0317380
  H        0.1218180     3.2344810     0.3328360
  H       -3.0789740     1.3005050     0.0038810
units angstrom
no_reorient  #important for SAPT in psi4, default
symmetry c1  #important for SAPT in psi4, default
}

set PROPERTIES_ORIGIN ["COM"]
properties('MP2/aug-cc-pvtz', properties = ['dipole'])
--------------------------------------------------------------------------

    Molecular point group: c1
  Charge       = 0
  Multiplicity = 1
  Basis Set: AUG-CC-PVTZ
    Blend: AUG-CC-PVTZ
  Basis Set: (AUG-CC-PVTZ AUX)
    Blend: AUG-CC-PVTZ-JKFIT

    Orbital Energies [Eh]
    ---------------------

    Doubly Occupied:

       1A    -20.600374     2A    -20.595750     3A    -20.585629
       4A    -20.564706     5A    -20.564603     6A    -20.562394
       7A    -11.362806     8A    -11.305371     9A    -11.299375
      10A    -11.297063    11A    -11.295798    12A    -11.286215
      13A     -1.448464    14A     -1.392183    15A     -1.386854
      16A     -1.365876    17A     -1.356878    18A     -1.347370
      19A     -1.075142    20A     -1.052705    21A     -0.949420
      22A     -0.888657    23A     -0.849424    24A     -0.808540
      25A     -0.759211    26A     -0.736871    27A     -0.721310
      28A     -0.714504    29A     -0.689648    30A     -0.665447
      31A     -0.657476    32A     -0.640119    33A     -0.622730
      34A     -0.618550    35A     -0.598544    36A     -0.581177
      37A     -0.573260    38A     -0.563556    39A     -0.539241
      40A     -0.533585    41A     -0.529365    42A     -0.511063
      43A     -0.496180    44A     -0.484858    45A     -0.470941
      46A     -0.459846    47A     -0.445420    48A     -0.431655

  @DF-RHF Final Energy:  -683.60722050618358

   => Energetics <=

    Nuclear Repulsion Energy =            835.7456734670578271
    One-Electron Energy =               -2600.1334759855699303
    Two-Electron Energy =                1080.7805820123285230
    Total Energy =                       -683.6072205061836939
  Basis Set: (AUG-CC-PVTZ AUX)
    Blend: AUG-CC-PVTZ-RI
    Molecular point group: c1

    Geometry (in Angstrom), charge = 0, multiplicity = 1:

       Center              X                  Y                   Z               Mass
    ------------   -----------------  -----------------  -----------------  -----------------
         O           -0.854170404248     0.886853905904     0.271571991973    15.994914619570
         O           -0.316459404248    -1.653816094096     1.308853991973    15.994914619570
         O            2.097344595752    -1.962692094096    -0.181206008027    15.994914619570
         O            2.747859595752     0.774601905904    -0.443080008027    15.994914619570
         O            0.731674595752     2.527127905904     0.578950991973    15.994914619570
         O           -3.489094404248     0.538603905904    -0.456673008027    15.994914619570
         C           -0.250751704248    -1.403696694096    -0.115933308027    12.000000000000
         C            1.153283595752    -0.968368094096    -0.530699008027    12.000000000000
         C           -1.223607404248    -0.299414094096    -0.476321008027    12.000000000000
         C            1.500666595752     0.363130905904     0.110557991973    12.000000000000
         C            0.414795595752     1.386945905904    -0.163234008027    12.000000000000
         C           -2.669319404248    -0.570489094096    -0.109764008027    12.000000000000
         H           -0.496290404248    -2.349838094096    -0.585050008027     1.007825032230
         H            1.136736595752    -0.817041094096    -1.625146008027     1.007825032230
         H           -1.166411404248    -0.078018094096    -1.553612008027     1.007825032230
         H            1.579035595752     0.228602905904     1.198595991973     1.007825032230
         H            0.360957595752     1.604274905904    -1.244321008027     1.007825032230
         H           -2.734984404248    -0.810437094096     0.958260991973     1.007825032230
         H           -3.038880404248    -1.428929094096    -0.677085008027     1.007825032230
         H           -0.396213404248    -0.775861094096     1.727932991973     1.007825032230
         H            2.970394595752    -1.563510094096    -0.355119008027     1.007825032230
         H            3.003029595752     1.590882905904     0.023994991973     1.007825032230
         H            0.113274595752     3.235126905904     0.325092991973     1.007825032230
         H           -3.087517404248     1.301150905904    -0.003862008027     1.007825032230

  Basis Set: AUG-CC-PVTZ
    Blend: AUG-CC-PVTZ
  Basis Set: (AUG-CC-PVTZ AUX)
    Blend: AUG-CC-PVTZ-JKFIT
	 Reference Energy          =    -683.6072205061835803 [Eh]
	 Singles Energy            =      -0.0000000000000000 [Eh]
	 Same-Spin Energy          =      -0.6663634119457376 [Eh]
	 Opposite-Spin Energy      =      -2.0465344711083633 [Eh]
	 Correlation Energy        =      -2.7128978830541008 [Eh]
	 Total Energy              =    -686.3201183892376775 [Eh]

	 ================> DF-SCS-MP2 Energies <==================
	-----------------------------------------------------------
	 SCS Same-Spin Scale       =       0.3333333333333333 [-]
	 SCS Opposite-Spin Scale   =       1.2000000000000000 [-]
	 SCS Same-Spin Energy      =      -0.2221211373152459 [Eh]
	 SCS Opposite-Spin Energy  =      -2.4558413653300359 [Eh]
	 SCS Correlation Energy    =      -2.6779625026452818 [Eh]
	 SCS Total Energy          =    -686.2851830088288807 [Eh]
	-----------------------------------------------------------

  Dipole Moment: [D]
     X:     0.6675      Y:     3.1664      Z:    -1.1659     Total:     3.4397

*** Psi4 exiting successfully. Buy a developer a beer!
