                               Psi4 1.3.2 release

  ==> Input File <==

--------------------------------------------------------------------------
#psi4
#
memory 32 gb

molecule  {
0 1
  O       -0.8456270     0.8862080     0.2793150
  O       -0.3079160    -1.6544620     1.3165970
  O        2.1058880    -1.9633380    -0.1734630
  O        2.7564030     0.7739560    -0.4353370
  O        0.7402180     2.5264820     0.5866940
  O       -3.4805510     0.5379580    -0.4489300
  C       -0.2340330    -1.4057570    -0.0828570
  C        1.1618270    -0.9690140    -0.5229560
  C       -1.1508464    -0.3724381    -0.4433290
  C        1.5092100     0.3624850     0.1183010
  C        0.4233390     1.3863000    -0.1554910
  C       -2.6607760    -0.5711350    -0.1020210
  H       -0.4877470    -2.3504840    -0.5773070
  H        1.1452800    -0.8176870    -1.6174030
  H       -1.1578680    -0.0786640    -1.5458690
  H        1.5875790     0.2279570     1.2063390
  H        0.3695010     1.6036290    -1.2365780
  H       -2.7264410    -0.8110830     0.9660040
  H       -3.0303370    -1.4295750    -0.6693420
  H       -0.3876700    -0.7765070     1.7356760
  H        2.9789380    -1.5641560    -0.3473760
  H        3.0115730     1.5902370     0.0317380
  H        0.1218180     3.2344810     0.3328360
  H       -3.0789740     1.3005050     0.0038810
units angstrom
no_reorient  #important for SAPT in psi4, default
symmetry c1  #important for SAPT in psi4, default
}

set PROPERTIES_ORIGIN ["COM"]
properties('MP2/aug-cc-pvtz', properties = ['dipole'])
--------------------------------------------------------------------------

    Molecular point group: c1
  Charge       = 0
  Multiplicity = 1
  Basis Set: AUG-CC-PVTZ
    Blend: AUG-CC-PVTZ
  Basis Set: (AUG-CC-PVTZ AUX)
    Blend: AUG-CC-PVTZ-JKFIT

    Orbital Energies [Eh]
    ---------------------

    Doubly Occupied:

       1A    -20.598455     2A    -20.592792     3A    -20.585491
       4A    -20.567144     5A    -20.567074     6A    -20.565099
       7A    -11.360098     8A    -11.307622     9A    -11.299231
      10A    -11.296554    11A    -11.294939    12A    -11.288855
      13A     -1.444214    14A     -1.392362    15A     -1.388841
      16A     -1.367519    17A     -1.357283    18A     -1.350506
      19A     -1.086451    20A     -1.050200    21A     -0.946515
      22A     -0.891504    23A     -0.848564    24A     -0.807150
      25A     -0.760063    26A     -0.738530    27A     -0.723276
      28A     -0.709093    29A     -0.688668    30A     -0.669459
      31A     -0.660048    32A     -0.639803    33A     -0.627146
      34A     -0.611055    35A     -0.597829    36A     -0.582396
      37A     -0.575229    38A     -0.563856    39A     -0.541594
      40A     -0.533251    41A     -0.523503    42A     -0.506987
      43A     -0.495865    44A     -0.490962    45A     -0.470371
      46A     -0.459845    47A     -0.442938    48A     -0.433075

  @DF-RHF Final Energy:  -683.59497206534559

   => Energetics <=

    Nuclear Repulsion Energy =            836.6024730137811503
    One-Electron Energy =               -2601.7962758473199756
    Two-Electron Energy =                1081.5988307681932383
    Total Energy =                       -683.5949720653457007
  Basis Set: (AUG-CC-PVTZ AUX)
    Blend: AUG-CC-PVTZ-RI
    Molecular point group: c1

    Geometry (in Angstrom), charge = 0, multiplicity = 1:

       Center              X                  Y                   Z               Mass
    ------------   -----------------  -----------------  -----------------  -----------------
         O           -0.858994898606     0.891771674082     0.268201025746    15.994914619570
         O           -0.321283898606    -1.648898325918     1.305483025746    15.994914619570
         O            2.092520101394    -1.957774325918    -0.184576974254    15.994914619570
         O            2.743035101394     0.779519674082    -0.446450974254    15.994914619570
         O            0.726850101394     2.532045674082     0.575580025746    15.994914619570
         O           -3.493918898606     0.543521674082    -0.460043974254    15.994914619570
         C           -0.247400898606    -1.400193325918    -0.093970974254    12.000000000000
         C            1.148459101394    -0.963450325918    -0.534069974254    12.000000000000
         C           -1.164214298606    -0.366874425918    -0.454442974254    12.000000000000
         C            1.495842101394     0.368048674082     0.107187025746    12.000000000000
         C            0.409971101394     1.391863674082    -0.166604974254    12.000000000000
         C           -2.674143898606    -0.565571325918    -0.113134974254    12.000000000000
         H           -0.501114898606    -2.344920325918    -0.588420974254     1.007825032230
         H            1.131912101394    -0.812123325918    -1.628516974254     1.007825032230
         H           -1.171235898606    -0.073100325918    -1.556982974254     1.007825032230
         H            1.574211101394     0.233520674082     1.195225025746     1.007825032230
         H            0.356133101394     1.609192674082    -1.247691974254     1.007825032230
         H           -2.739808898606    -0.805519325918     0.954890025746     1.007825032230
         H           -3.043704898606    -1.424011325918    -0.680455974254     1.007825032230
         H           -0.401037898606    -0.770943325918     1.724562025746     1.007825032230
         H            2.965570101394    -1.558592325918    -0.358489974254     1.007825032230
         H            2.998205101394     1.595800674082     0.020624025746     1.007825032230
         H            0.108450101394     3.240044674082     0.321722025746     1.007825032230
         H           -3.092341898606     1.306068674082    -0.007232974254     1.007825032230

  Basis Set: AUG-CC-PVTZ
    Blend: AUG-CC-PVTZ
  Basis Set: (AUG-CC-PVTZ AUX)
    Blend: AUG-CC-PVTZ-JKFIT
	 Reference Energy          =    -683.5949720653455870 [Eh]
	 Singles Energy            =      -0.0000000000000000 [Eh]
	 Same-Spin Energy          =      -0.6675726103908546 [Eh]
	 Opposite-Spin Energy      =      -2.0483159661914261 [Eh]
	 Correlation Energy        =      -2.7158885765822807 [Eh]
	 Total Energy              =    -686.3108606419278885 [Eh]

	 ================> DF-SCS-MP2 Energies <==================
	-----------------------------------------------------------
	 SCS Same-Spin Scale       =       0.3333333333333333 [-]
	 SCS Opposite-Spin Scale   =       1.2000000000000000 [-]
	 SCS Same-Spin Energy      =      -0.2225242034636182 [Eh]
	 SCS Opposite-Spin Energy  =      -2.4579791594297111 [Eh]
	 SCS Correlation Energy    =      -2.6805033628933295 [Eh]
	 SCS Total Energy          =    -686.2754754282389058 [Eh]
	-----------------------------------------------------------

  Dipole Moment: [D]
     X:     0.7028      Y:     3.0467      Z:    -1.0837     Total:     3.3092

*** Psi4 exiting successfully. Buy a developer a beer!
