                               Psi4 1.4a3.dev225

  ==> Input File <==

--------------------------------------------------------------------------
#psi4
#
memory 32 gb

molecule  {
0 1
  O       -0.8456650     0.8861440     0.2793920
  O       -0.3077290    -1.6543970     1.3165920
  O        2.1058490    -1.9633390    -0.1734930
  O        2.7563870     0.7740080    -0.4352340
  O        0.7401070     2.5265290     0.5865970
  O       -3.4805150     0.5379850    -0.4487790
  C       -0.2340150    -1.4057960    -0.0828600
  C        1.1618410    -0.9690160    -0.5229920
  C       -1.2150830    -0.3001220    -0.4685840
  C        1.5091960     0.3624950     0.1183140
  C        0.4232960     1.3863010    -0.1554910
  C       -2.6608140    -0.5711940    -0.1020800
  H       -0.4877200    -2.3505680    -0.5772350
  H        1.1455876    -0.8204201    -1.5976337
  H       -1.1578130    -0.0786490    -1.5458470
  H        1.5874550     0.2279380     1.2063560
  H        0.3693510     1.6035860    -1.2365730
  H       -2.7265370    -0.8113720     0.9658980
  H       -3.0304070    -1.4295080    -0.6695770
  H       -0.3878110    -0.7763940     1.7355090
  H        2.9789120    -1.5642300    -0.3474430
  H        3.0116250     1.5901680     0.0320000
  H        0.1223170     3.2347930     0.3320250
  H       -3.0786550     1.3004670     0.0038890
units angstrom
no_reorient  #important for SAPT in psi4, default
symmetry c1  #important for SAPT in psi4, default
}

set PROPERTIES_ORIGIN ["COM"]
properties('MP2/aug-cc-pvtz', properties = ['dipole'])
--------------------------------------------------------------------------

    Molecular point group: c1
  Charge       = 0
  Multiplicity = 1
  Basis Set: AUG-CC-PVTZ
    Blend: AUG-CC-PVTZ
  Basis Set: (AUG-CC-PVTZ AUX)
    Blend: AUG-CC-PVTZ-JKFIT

    Orbital Energies [Eh]
    ---------------------

    Doubly Occupied:

       1A    -20.600167     2A    -20.595053     3A    -20.585382
       4A    -20.565041     5A    -20.564518     6A    -20.563675
       7A    -11.362535     8A    -11.304804     9A    -11.298738
      10A    -11.296778    11A    -11.292456    12A    -11.285883
      13A     -1.448253    14A     -1.391939    15A     -1.388946
      16A     -1.367755    17A     -1.356687    18A     -1.352013
      19A     -1.073457    20A     -1.051565    21A     -0.948972
      22A     -0.887669    23A     -0.848833    24A     -0.809762
      25A     -0.759779    26A     -0.737116    27A     -0.722662
      28A     -0.714324    29A     -0.689776    30A     -0.666857
      31A     -0.658454    32A     -0.640275    33A     -0.623313
      34A     -0.618780    35A     -0.598782    36A     -0.581025
      37A     -0.575779    38A     -0.563116    39A     -0.540032
      40A     -0.534898    41A     -0.528383    42A     -0.511896
      43A     -0.495864    44A     -0.483386    45A     -0.470461
      46A     -0.460501    47A     -0.444730    48A     -0.430073

  @DF-RHF Final Energy:  -683.60848105375987

   => Energetics <=

    Nuclear Repulsion Energy =            836.0646024922134529
    One-Electron Energy =               -2600.7638791734461847
    Two-Electron Energy =                1081.0907956274727439
    Total Energy =                       -683.6084810537599878
  Basis Set: (AUG-CC-PVTZ AUX)
    Blend: AUG-CC-PVTZ-RI
    Molecular point group: c1

    Geometry (in Angstrom), charge = 0, multiplicity = 1:

       Center              X                  Y                   Z               Mass
    ------------   -----------------  -----------------  -----------------  -----------------
         O           -0.854753108039     0.886898944063     0.269844034498    15.994914619570
         O           -0.316817108039    -1.653642055937     1.307044034498    15.994914619570
         O            2.096760891961    -1.962584055937    -0.183040965502    15.994914619570
         O            2.747298891961     0.774762944063    -0.444781965502    15.994914619570
         O            0.731018891961     2.527283944063     0.577049034498    15.994914619570
         O           -3.489603108039     0.538739944063    -0.458326965502    15.994914619570
         C           -0.243103108039    -1.405041055937    -0.092407965502    12.000000000000
         C            1.152752891961    -0.968261055937    -0.532539965502    12.000000000000
         C           -1.224171108039    -0.299367055937    -0.478131965502    12.000000000000
         C            1.500107891961     0.363249944063     0.108766034498    12.000000000000
         C            0.414207891961     1.387055944063    -0.165038965502    12.000000000000
         C           -2.669902108039    -0.570439055937    -0.111627965502    12.000000000000
         H           -0.496808108039    -2.349813055937    -0.586782965502     1.007825032230
         H            1.136499491961    -0.819665155937    -1.607181665502     1.007825032230
         H           -1.166901108039    -0.077894055937    -1.555394965502     1.007825032230
         H            1.578366891961     0.228692944063     1.196808034498     1.007825032230
         H            0.360262891961     1.604340944063    -1.246120965502     1.007825032230
         H           -2.735625108039    -0.810617055937     0.956350034498     1.007825032230
         H           -3.039495108039    -1.428753055937    -0.679124965502     1.007825032230
         H           -0.396899108039    -0.775639055937     1.725961034498     1.007825032230
         H            2.969823891961    -1.563475055937    -0.356990965502     1.007825032230
         H            3.002536891961     1.590922944063     0.022452034498     1.007825032230
         H            0.113228891961     3.235547944063     0.322477034498     1.007825032230
         H           -3.087743108039     1.301221944063    -0.005658965502     1.007825032230

  Basis Set: AUG-CC-PVTZ
    Blend: AUG-CC-PVTZ
  Basis Set: (AUG-CC-PVTZ AUX)
    Blend: AUG-CC-PVTZ-JKFIT
	 Reference Energy          =    -683.6084810537598742 [Eh]
	 Singles Energy            =      -0.0000000000000000 [Eh]
	 Same-Spin Energy          =      -0.6662943549501552 [Eh]
	 Opposite-Spin Energy      =      -2.0460042794452251 [Eh]
	 Correlation Energy        =      -2.7122986343953803 [Eh]
	 Total Energy              =    -686.3207796881551985 [Eh]

	 ================> DF-SCS-MP2 Energies <==================
	-----------------------------------------------------------
	 SCS Same-Spin Scale       =       0.3333333333333333 [-]
	 SCS Opposite-Spin Scale   =       1.2000000000000000 [-]
	 SCS Same-Spin Energy      =      -0.2220981183167184 [Eh]
	 SCS Opposite-Spin Energy  =      -2.4552051353342699 [Eh]
	 SCS Correlation Energy    =      -2.6773032536509884 [Eh]
	 SCS Total Energy          =    -686.2857843074108359 [Eh]
	-----------------------------------------------------------

  Dipole Moment: [D]
     X:     0.6596      Y:     3.1615      Z:    -1.1130     Total:     3.4159

*** Psi4 exiting successfully. Buy a developer a beer!
