                               Psi4 1.3.2 release

  ==> Input File <==

--------------------------------------------------------------------------
#psi4
#
memory 32 gb

molecule  {
0 1
  O       -0.8456270     0.8862080     0.2793150
  O       -0.3079160    -1.6544620     1.3165970
  O        2.1058880    -1.9633380    -0.1734630
  O        2.7564030     0.7739560    -0.4353370
  O        0.7402180     2.5264820     0.5866940
  O       -3.4805510     0.5379580    -0.4489300
  C       -0.2340330    -1.4057570    -0.0828570
  C        1.1618270    -0.9690140    -0.5229560
  C       -1.1717475    -0.2961437    -0.4944739
  C        1.5092100     0.3624850     0.1183010
  C        0.4233390     1.3863000    -0.1554910
  C       -2.6607760    -0.5711350    -0.1020210
  H       -0.4877470    -2.3504840    -0.5773070
  H        1.1452800    -0.8176870    -1.6174030
  H       -1.1578680    -0.0786640    -1.5458690
  H        1.5875790     0.2279570     1.2063390
  H        0.3695010     1.6036290    -1.2365780
  H       -2.7264410    -0.8110830     0.9660040
  H       -3.0303370    -1.4295750    -0.6693420
  H       -0.3876700    -0.7765070     1.7356760
  H        2.9789380    -1.5641560    -0.3473760
  H        3.0115730     1.5902370     0.0317380
  H        0.1218180     3.2344810     0.3328360
  H       -3.0789740     1.3005050     0.0038810
units angstrom
no_reorient  #important for SAPT in psi4, default
symmetry c1  #important for SAPT in psi4, default
}

set PROPERTIES_ORIGIN ["COM"]
properties('MP2/aug-cc-pvtz', properties = ['dipole'])
--------------------------------------------------------------------------

    Molecular point group: c1
  Charge       = 0
  Multiplicity = 1
  Basis Set: AUG-CC-PVTZ
    Blend: AUG-CC-PVTZ
  Basis Set: (AUG-CC-PVTZ AUX)
    Blend: AUG-CC-PVTZ-JKFIT

    Orbital Energies [Eh]
    ---------------------

    Doubly Occupied:

       1A    -20.599867     2A    -20.596629     3A    -20.585582
       4A    -20.566269     5A    -20.563952     6A    -20.563490
       7A    -11.362157     8A    -11.303196     9A    -11.299174
      10A    -11.296221    11A    -11.294202    12A    -11.286869
      13A     -1.449026    14A     -1.391992    15A     -1.388981
      16A     -1.367198    17A     -1.356387    18A     -1.352373
      19A     -1.075526    20A     -1.047526    21A     -0.943962
      22A     -0.887898    23A     -0.849754    24A     -0.811068
      25A     -0.759354    26A     -0.736769    27A     -0.723692
      28A     -0.715461    29A     -0.687434    30A     -0.666311
      31A     -0.658500    32A     -0.640365    33A     -0.623099
      34A     -0.615788    35A     -0.597228    36A     -0.581159
      37A     -0.575586    38A     -0.564061    39A     -0.540093
      40A     -0.537750    41A     -0.529452    42A     -0.510183
      43A     -0.492216    44A     -0.488063    45A     -0.470150
      46A     -0.459925    47A     -0.444077    48A     -0.427170

  @DF-RHF Final Energy:  -683.60509609194287

   => Energetics <=

    Nuclear Repulsion Energy =            836.0488891159914147
    One-Electron Energy =               -2600.7415999901727446
    Two-Electron Energy =                1081.0876147822384610
    Total Energy =                       -683.6050960919428690
  Basis Set: (AUG-CC-PVTZ AUX)
    Blend: AUG-CC-PVTZ-RI
    Molecular point group: c1

    Geometry (in Angstrom), charge = 0, multiplicity = 1:

       Center              X                  Y                   Z               Mass
    ------------   -----------------  -----------------  -----------------  -----------------
         O           -0.857601982464     0.886687171288     0.271609485436    15.994914619570
         O           -0.319890982464    -1.653982828712     1.308891485436    15.994914619570
         O            2.093913017536    -1.962858828712    -0.181168514564    15.994914619570
         O            2.744428017536     0.774435171288    -0.443042514564    15.994914619570
         O            0.728243017536     2.526961171288     0.578988485436    15.994914619570
         O           -3.492525982464     0.538437171288    -0.456635514564    15.994914619570
         C           -0.246007982464    -1.405277828712    -0.090562514564    12.000000000000
         C            1.149852017536    -0.968534828712    -0.530661514564    12.000000000000
         C           -1.183722482464    -0.295664528712    -0.502179414564    12.000000000000
         C            1.497235017536     0.362964171288     0.110595485436    12.000000000000
         C            0.411364017536     1.386779171288    -0.163196514564    12.000000000000
         C           -2.672750982464    -0.570655828712    -0.109726514564    12.000000000000
         H           -0.499721982464    -2.350004828712    -0.585012514564     1.007825032230
         H            1.133305017536    -0.817207828712    -1.625108514564     1.007825032230
         H           -1.169842982464    -0.078184828712    -1.553574514564     1.007825032230
         H            1.575604017536     0.228436171288     1.198633485436     1.007825032230
         H            0.357526017536     1.604108171288    -1.244283514564     1.007825032230
         H           -2.738415982464    -0.810603828712     0.958298485436     1.007825032230
         H           -3.042311982464    -1.429095828712    -0.677047514564     1.007825032230
         H           -0.399644982464    -0.776027828712     1.727970485436     1.007825032230
         H            2.966963017536    -1.563676828712    -0.355081514564     1.007825032230
         H            2.999598017536     1.590716171288     0.024032485436     1.007825032230
         H            0.109843017536     3.234960171288     0.325130485436     1.007825032230
         H           -3.090948982464     1.300984171288    -0.003824514564     1.007825032230

  Basis Set: AUG-CC-PVTZ
    Blend: AUG-CC-PVTZ
  Basis Set: (AUG-CC-PVTZ AUX)
    Blend: AUG-CC-PVTZ-JKFIT
	 Reference Energy          =    -683.6050960919428690 [Eh]
	 Singles Energy            =      -0.0000000000000000 [Eh]
	 Same-Spin Energy          =      -0.6665235641409788 [Eh]
	 Opposite-Spin Energy      =      -2.0467287478018923 [Eh]
	 Correlation Energy        =      -2.7132523119428713 [Eh]
	 Total Energy              =    -686.3183484038856932 [Eh]

	 ================> DF-SCS-MP2 Energies <==================
	-----------------------------------------------------------
	 SCS Same-Spin Scale       =       0.3333333333333333 [-]
	 SCS Opposite-Spin Scale   =       1.2000000000000000 [-]
	 SCS Same-Spin Energy      =      -0.2221745213803263 [Eh]
	 SCS Opposite-Spin Energy  =      -2.4560744973622706 [Eh]
	 SCS Correlation Energy    =      -2.6782490187425969 [Eh]
	 SCS Total Energy          =    -686.2833451106854454 [Eh]
	-----------------------------------------------------------

  Dipole Moment: [D]
     X:     0.6848      Y:     3.1765      Z:    -1.1152     Total:     3.4355

*** Psi4 exiting successfully. Buy a developer a beer!
