                               Psi4 1.3.2 release

  ==> Input File <==

--------------------------------------------------------------------------
#psi4
#
memory 32 gb

molecule  {
0 1
  O       -0.8456270     0.8862080     0.2793150
  O       -0.3079160    -1.6544620     1.3165970
  O        2.1058880    -1.9633380    -0.1734630
  O        2.7564030     0.7739560    -0.4353370
  O        0.7402180     2.5264820     0.5866940
  O       -3.4805510     0.5379580    -0.4489300
  C       -0.2340330    -1.4057570    -0.0828570
  C        1.1618270    -0.9690140    -0.5229560
  C       -1.2150640    -0.3000600    -0.4685780
  C        1.5092100     0.3624850     0.1183010
  C        0.4233390     1.3863000    -0.1554910
  C       -2.6607760    -0.5711350    -0.1020210
  H       -0.4877470    -2.3504840    -0.5773070
  H        1.1467775    -0.8313820    -1.5183565
  H       -1.1578680    -0.0786640    -1.5458690
  H        1.5875790     0.2279570     1.2063390
  H        0.3695010     1.6036290    -1.2365780
  H       -2.7264410    -0.8110830     0.9660040
  H       -3.0303370    -1.4295750    -0.6693420
  H       -0.3876700    -0.7765070     1.7356760
  H        2.9789380    -1.5641560    -0.3473760
  H        3.0115730     1.5902370     0.0317380
  H        0.1218180     3.2344810     0.3328360
  H       -3.0789740     1.3005050     0.0038810
units angstrom
no_reorient  #important for SAPT in psi4, default
symmetry c1  #important for SAPT in psi4, default
}

set PROPERTIES_ORIGIN ["COM"]
properties('MP2/aug-cc-pvtz', properties = ['dipole'])
--------------------------------------------------------------------------

    Molecular point group: c1
  Charge       = 0
  Multiplicity = 1
  Basis Set: AUG-CC-PVTZ
    Blend: AUG-CC-PVTZ
  Basis Set: (AUG-CC-PVTZ AUX)
    Blend: AUG-CC-PVTZ-JKFIT

    Orbital Energies [Eh]
    ---------------------

    Doubly Occupied:

       1A    -20.600184     2A    -20.595138     3A    -20.585325
       4A    -20.564607     5A    -20.564461     6A    -20.562137
       7A    -11.362594     8A    -11.305045     9A    -11.297922
      10A    -11.296232    11A    -11.286006    12A    -11.282412
      13A     -1.448296    14A     -1.391827    15A     -1.388763
      16A     -1.367547    17A     -1.356373    18A     -1.351629
      19A     -1.076099    20A     -1.051801    21A     -0.950197
      22A     -0.888888    23A     -0.850723    24A     -0.814228
      25A     -0.760458    26A     -0.737367    27A     -0.725614
      28A     -0.714875    29A     -0.690299    30A     -0.670338
      31A     -0.657850    32A     -0.640772    33A     -0.623448
      34A     -0.618715    35A     -0.599203    36A     -0.582104
      37A     -0.575576    38A     -0.563725    39A     -0.540047
      40A     -0.534796    41A     -0.528465    42A     -0.511808
      43A     -0.495953    44A     -0.483522    45A     -0.471503
      46A     -0.462067    47A     -0.445242    48A     -0.429965

  @DF-RHF Final Energy:  -683.60346165244323

   => Energetics <=

    Nuclear Repulsion Energy =            836.5637729369072986
    One-Electron Energy =               -2601.7301724590697631
    Two-Electron Energy =                1081.5629378697192351
    Total Energy =                       -683.6034616524432295
  Basis Set: (AUG-CC-PVTZ AUX)
    Blend: AUG-CC-PVTZ-RI
    Molecular point group: c1

    Geometry (in Angstrom), charge = 0, multiplicity = 1:

       Center              X                  Y                   Z               Mass
    ------------   -----------------  -----------------  -----------------  -----------------
         O           -0.854723613976     0.887024817738     0.269329330951    15.994914619570
         O           -0.317012613976    -1.653645182262     1.306611330951    15.994914619570
         O            2.096791386024    -1.962521182262    -0.183448669049    15.994914619570
         O            2.747306386024     0.774772817738    -0.445322669049    15.994914619570
         O            0.731121386024     2.527298817738     0.576708330951    15.994914619570
         O           -3.489647613976     0.538774817738    -0.458915669049    15.994914619570
         C           -0.243129613976    -1.404940182262    -0.092842669049    12.000000000000
         C            1.152730386024    -0.968197182262    -0.532941669049    12.000000000000
         C           -1.224160613976    -0.299243182262    -0.478563669049    12.000000000000
         C            1.500113386024     0.363301817738     0.108315330951    12.000000000000
         C            0.414242386024     1.387116817738    -0.165476669049    12.000000000000
         C           -2.669872613976    -0.570318182262    -0.112006669049    12.000000000000
         H           -0.496843613976    -2.349667182262    -0.587292669049     1.007825032230
         H            1.137680886024    -0.830565182262    -1.528342169049     1.007825032230
         H           -1.166964613976    -0.077847182262    -1.555854669049     1.007825032230
         H            1.578482386024     0.228773817738     1.196353330951     1.007825032230
         H            0.360404386024     1.604445817738    -1.246563669049     1.007825032230
         H           -2.735537613976    -0.810266182262     0.956018330951     1.007825032230
         H           -3.039433613976    -1.428758182262    -0.679327669049     1.007825032230
         H           -0.396766613976    -0.775690182262     1.725690330951     1.007825032230
         H            2.969841386024    -1.563339182262    -0.357361669049     1.007825032230
         H            3.002476386024     1.591053817738     0.021752330951     1.007825032230
         H            0.112721386024     3.235297817738     0.322850330951     1.007825032230
         H           -3.088070613976     1.301321817738    -0.006104669049     1.007825032230

  Basis Set: AUG-CC-PVTZ
    Blend: AUG-CC-PVTZ
  Basis Set: (AUG-CC-PVTZ AUX)
    Blend: AUG-CC-PVTZ-JKFIT
	 Reference Energy          =    -683.6034616524432295 [Eh]
	 Singles Energy            =      -0.0000000000000000 [Eh]
	 Same-Spin Energy          =      -0.6661385815628843 [Eh]
	 Opposite-Spin Energy      =      -2.0454304986188836 [Eh]
	 Correlation Energy        =      -2.7115690801817678 [Eh]
	 Total Energy              =    -686.3150307326250186 [Eh]

	 ================> DF-SCS-MP2 Energies <==================
	-----------------------------------------------------------
	 SCS Same-Spin Scale       =       0.3333333333333333 [-]
	 SCS Opposite-Spin Scale   =       1.2000000000000000 [-]
	 SCS Same-Spin Energy      =      -0.2220461938542947 [Eh]
	 SCS Opposite-Spin Energy  =      -2.4545165983426602 [Eh]
	 SCS Correlation Energy    =      -2.6765627921969548 [Eh]
	 SCS Total Energy          =    -686.2800244446401621 [Eh]
	-----------------------------------------------------------

  Dipole Moment: [D]
     X:     0.6353      Y:     3.1810      Z:    -1.1539     Total:     3.4430

*** Psi4 exiting successfully. Buy a developer a beer!
