                               Psi4 1.3.2 release

  ==> Input File <==

--------------------------------------------------------------------------
#psi4
#
memory 32 gb

molecule  {
0 1
  O       -0.8456270     0.8862080     0.2793150
  O       -0.3079160    -1.6544620     1.3165970
  O        2.1058880    -1.9633380    -0.1734630
  O        2.7564030     0.7739560    -0.4353370
  O        0.7402180     2.5264820     0.5866940
  O       -3.4805510     0.5379580    -0.4489300
  C       -0.2340330    -1.4057570    -0.0828570
  C        1.1618270    -0.9690140    -0.5229560
  C       -1.2579304    -0.3025310    -0.4417709
  C        1.5092100     0.3624850     0.1183010
  C        0.4233390     1.3863000    -0.1554910
  C       -2.6607760    -0.5711350    -0.1020210
  H       -0.4877470    -2.3504840    -0.5773070
  H        1.1452800    -0.8176870    -1.6174030
  H       -1.1578680    -0.0786640    -1.5458690
  H        1.5875790     0.2279570     1.2063390
  H        0.3695010     1.6036290    -1.2365780
  H       -2.7264410    -0.8110830     0.9660040
  H       -3.0303370    -1.4295750    -0.6693420
  H       -0.3876700    -0.7765070     1.7356760
  H        2.9789380    -1.5641560    -0.3473760
  H        3.0115730     1.5902370     0.0317380
  H        0.1218180     3.2344810     0.3328360
  H       -3.0789740     1.3005050     0.0038810
units angstrom
no_reorient  #important for SAPT in psi4, default
symmetry c1  #important for SAPT in psi4, default
}

set PROPERTIES_ORIGIN ["COM"]
properties('MP2/aug-cc-pvtz', properties = ['dipole'])
--------------------------------------------------------------------------

    Molecular point group: c1
  Charge       = 0
  Multiplicity = 1
  Basis Set: AUG-CC-PVTZ
    Blend: AUG-CC-PVTZ
  Basis Set: (AUG-CC-PVTZ AUX)
    Blend: AUG-CC-PVTZ-JKFIT

    Orbital Energies [Eh]
    ---------------------

    Doubly Occupied:

       1A    -20.600486     2A    -20.593603     3A    -20.585268
       4A    -20.565129     5A    -20.564712     6A    -20.564215
       7A    -11.363026     8A    -11.306673     9A    -11.298843
      10A    -11.297994    11A    -11.295575    12A    -11.284616
      13A     -1.447611    14A     -1.392036    15A     -1.389148
      16A     -1.368575    17A     -1.357163    18A     -1.351849
      19A     -1.070939    20A     -1.056492    21A     -0.953509
      22A     -0.887003    23A     -0.847195    24A     -0.806567
      25A     -0.760159    26A     -0.737504    27A     -0.720738
      28A     -0.712931    29A     -0.692467    30A     -0.665746
      31A     -0.658838    32A     -0.640265    33A     -0.623128
      34A     -0.621775    35A     -0.600248    36A     -0.580285
      37A     -0.576115    38A     -0.561810    39A     -0.540156
      40A     -0.532961    41A     -0.527511    42A     -0.514152
      43A     -0.498227    44A     -0.478560    45A     -0.469792
      46A     -0.459990    47A     -0.445387    48A     -0.430338

  @DF-RHF Final Energy:  -683.60552278321597

   => Energetics <=

    Nuclear Repulsion Energy =            835.8588741903797654
    One-Electron Energy =               -2600.3341688914852057
    Two-Electron Energy =                1080.8697719178894658
    Total Energy =                       -683.6055227832159744
  Basis Set: (AUG-CC-PVTZ AUX)
    Blend: AUG-CC-PVTZ-RI
    Molecular point group: c1

    Geometry (in Angstrom), charge = 0, multiplicity = 1:

       Center              X                  Y                   Z               Mass
    ------------   -----------------  -----------------  -----------------  -----------------
         O           -0.851858478407     0.887112841385     0.268097188980    15.994914619570
         O           -0.314147478407    -1.653557158615     1.305379188980    15.994914619570
         O            2.099656521593    -1.962433158615    -0.184680811020    15.994914619570
         O            2.750171521593     0.774860841385    -0.446554811020    15.994914619570
         O            0.733986521593     2.527386841385     0.575476188980    15.994914619570
         O           -3.486782478407     0.538862841385    -0.460147811020    15.994914619570
         C           -0.240264478407    -1.404852158615    -0.094074811020    12.000000000000
         C            1.155595521593    -0.968109158615    -0.534173811020    12.000000000000
         C           -1.264161878407    -0.301626158615    -0.452988711020    12.000000000000
         C            1.502978521593     0.363389841385     0.107083188980    12.000000000000
         C            0.417107521593     1.387204841385    -0.166708811020    12.000000000000
         C           -2.667007478407    -0.570230158615    -0.113238811020    12.000000000000
         H           -0.493978478407    -2.349579158615    -0.588524811020     1.007825032230
         H            1.139048521593    -0.816782158615    -1.628620811020     1.007825032230
         H           -1.164099478407    -0.077759158615    -1.557086811020     1.007825032230
         H            1.581347521593     0.228861841385     1.195121188980     1.007825032230
         H            0.363269521593     1.604533841385    -1.247795811020     1.007825032230
         H           -2.732672478407    -0.810178158615     0.954786188980     1.007825032230
         H           -3.036568478407    -1.428670158615    -0.680559811020     1.007825032230
         H           -0.393901478407    -0.775602158615     1.724458188980     1.007825032230
         H            2.972706521593    -1.563251158615    -0.358593811020     1.007825032230
         H            3.005341521593     1.591141841385     0.020520188980     1.007825032230
         H            0.115586521593     3.235385841385     0.321618188980     1.007825032230
         H           -3.085205478407     1.301409841385    -0.007336811020     1.007825032230

  Basis Set: AUG-CC-PVTZ
    Blend: AUG-CC-PVTZ
  Basis Set: (AUG-CC-PVTZ AUX)
    Blend: AUG-CC-PVTZ-JKFIT
	 Reference Energy          =    -683.6055227832159744 [Eh]
	 Singles Energy            =      -0.0000000000000000 [Eh]
	 Same-Spin Energy          =      -0.6664210080840878 [Eh]
	 Opposite-Spin Energy      =      -2.0461249200658820 [Eh]
	 Correlation Energy        =      -2.7125459281499698 [Eh]
	 Total Energy              =    -686.3180687113659815 [Eh]

	 ================> DF-SCS-MP2 Energies <==================
	-----------------------------------------------------------
	 SCS Same-Spin Scale       =       0.3333333333333333 [-]
	 SCS Opposite-Spin Scale   =       1.2000000000000000 [-]
	 SCS Same-Spin Energy      =      -0.2221403360280292 [Eh]
	 SCS Opposite-Spin Energy  =      -2.4553499040790583 [Eh]
	 SCS Correlation Energy    =      -2.6774902401070877 [Eh]
	 SCS Total Energy          =    -686.2830130233230648 [Eh]
	-----------------------------------------------------------

  Dipole Moment: [D]
     X:     0.6397      Y:     3.1368      Z:    -1.0740     Total:     3.3768

*** Psi4 exiting successfully. Buy a developer a beer!
