                               Psi4 1.3.2 release

  ==> Input File <==

--------------------------------------------------------------------------
#psi4
#
memory 32 gb

molecule  {
0 1
  O       -0.8456270     0.8862080     0.2793150
  O       -0.3079160    -1.6544620     1.3165970
  O        2.1058880    -1.9633380    -0.1734630
  O        2.7564030     0.7739560    -0.4353370
  O        0.7402180     2.5264820     0.5866940
  O       -3.4805510     0.5379580    -0.4489300
  C       -0.2340330    -1.4057570    -0.0828570
  C        1.1618270    -0.9690140    -0.5229560
  C       -1.2150640    -0.3000600    -0.4685780
  C        1.5092100     0.3624850     0.1183010
  C        0.4233390     1.3863000    -0.1554910
  C       -2.6607760    -0.5711350    -0.1020210
  H       -0.4877470    -2.3504840    -0.5773070
  H        1.1452800    -0.8176870    -1.6174030
  H       -1.1578680    -0.0786640    -1.5458690
  H        1.5875790     0.2279570     1.2063390
  H        0.3695010     1.6036290    -1.2365780
  H       -2.7264410    -0.8110830     0.9660040
  H       -3.0303370    -1.4295750    -0.6693420
  H       -0.3876700    -0.7765070     1.7356760
  H        2.9789380    -1.5641560    -0.3473760
  H        3.0115730     1.5902370     0.0317380
  H        0.1218180     3.2344810     0.3328360
  H       -3.0377248     1.3788323     0.0503928
units angstrom
no_reorient  #important for SAPT in psi4, default
symmetry c1  #important for SAPT in psi4, default
}

set PROPERTIES_ORIGIN ["COM"]
properties('MP2/aug-cc-pvtz', properties = ['dipole'])
--------------------------------------------------------------------------

    Molecular point group: c1
  Charge       = 0
  Multiplicity = 1
  Basis Set: AUG-CC-PVTZ
    Blend: AUG-CC-PVTZ
  Basis Set: (AUG-CC-PVTZ AUX)
    Blend: AUG-CC-PVTZ-JKFIT

    Orbital Energies [Eh]
    ---------------------

    Doubly Occupied:

       1A    -20.600603     2A    -20.595437     3A    -20.585508
       4A    -20.571233     5A    -20.565026     6A    -20.564050
       7A    -11.362807     8A    -11.304255     9A    -11.299083
      10A    -11.296709    11A    -11.294789    12A    -11.284732
      13A     -1.448486    14A     -1.391927    15A     -1.388124
      16A     -1.364171    17A     -1.353760    18A     -1.340632
      19A     -1.072655    20A     -1.050017    21A     -0.945593
      22A     -0.887391    23A     -0.844436    24A     -0.808770
      25A     -0.759707    26A     -0.735554    27A     -0.721108
      28A     -0.713846    29A     -0.680329    30A     -0.662658
      31A     -0.658502    32A     -0.638073    33A     -0.621670
      34A     -0.618090    35A     -0.596204    36A     -0.580232
      37A     -0.575462    38A     -0.561956    39A     -0.538492
      40A     -0.534323    41A     -0.527656    42A     -0.509414
      43A     -0.493407    44A     -0.483174    45A     -0.468950
      46A     -0.459611    47A     -0.444043    48A     -0.429309

  @DF-RHF Final Energy:  -683.59496220278959

   => Energetics <=

    Nuclear Repulsion Energy =            835.5037466082474111
    One-Electron Energy =               -2599.7334870638815119
    Two-Electron Energy =                1080.6347782528446260
    Total Energy =                       -683.5949622027894748
  Basis Set: (AUG-CC-PVTZ AUX)
    Blend: AUG-CC-PVTZ-RI
    Molecular point group: c1

    Geometry (in Angstrom), charge = 0, multiplicity = 1:

       Center              X                  Y                   Z               Mass
    ------------   -----------------  -----------------  -----------------  -----------------
         O           -0.854946106504     0.886509763687     0.269623370657    15.994914619570
         O           -0.317235106504    -1.654160236313     1.306905370657    15.994914619570
         O            2.096568893496    -1.963036236313    -0.183154629343    15.994914619570
         O            2.747083893496     0.774257763687    -0.445028629343    15.994914619570
         O            0.730898893496     2.526783763687     0.577002370657    15.994914619570
         O           -3.489870106504     0.538259763687    -0.458621629343    15.994914619570
         C           -0.243352106504    -1.405455236313    -0.092548629343    12.000000000000
         C            1.152507893496    -0.968712236313    -0.532647629343    12.000000000000
         C           -1.224383106504    -0.299758236313    -0.478269629343    12.000000000000
         C            1.499890893496     0.362786763687     0.108609370657    12.000000000000
         C            0.414019893496     1.386601763687    -0.165182629343    12.000000000000
         C           -2.670095106504    -0.570833236313    -0.111712629343    12.000000000000
         H           -0.497066106504    -2.350182236313    -0.586998629343     1.007825032230
         H            1.135960893496    -0.817385236313    -1.627094629343     1.007825032230
         H           -1.167187106504    -0.078362236313    -1.555560629343     1.007825032230
         H            1.578259893496     0.228258763687     1.196647370657     1.007825032230
         H            0.360181893496     1.603930763687    -1.246269629343     1.007825032230
         H           -2.735760106504    -0.810781236313     0.956312370657     1.007825032230
         H           -3.039656106504    -1.429273236313    -0.679033629343     1.007825032230
         H           -0.396989106504    -0.776205236313     1.725984370657     1.007825032230
         H            2.969618893496    -1.563854236313    -0.357067629343     1.007825032230
         H            3.002253893496     1.590538763687     0.022046370657     1.007825032230
         H            0.112498893496     3.234782763687     0.323144370657     1.007825032230
         H           -3.047043906504     1.379134063687     0.040701170657     1.007825032230

  Basis Set: AUG-CC-PVTZ
    Blend: AUG-CC-PVTZ
  Basis Set: (AUG-CC-PVTZ AUX)
    Blend: AUG-CC-PVTZ-JKFIT
	 Reference Energy          =    -683.5949622027895884 [Eh]
	 Singles Energy            =      -0.0000000000000000 [Eh]
	 Same-Spin Energy          =      -0.6675539271150969 [Eh]
	 Opposite-Spin Energy      =      -2.0494071789467152 [Eh]
	 Correlation Energy        =      -2.7169611060618122 [Eh]
	 Total Energy              =    -686.3119233088514193 [Eh]

	 ================> DF-SCS-MP2 Energies <==================
	-----------------------------------------------------------
	 SCS Same-Spin Scale       =       0.3333333333333333 [-]
	 SCS Opposite-Spin Scale   =       1.2000000000000000 [-]
	 SCS Same-Spin Energy      =      -0.2225179757050323 [Eh]
	 SCS Opposite-Spin Energy  =      -2.4592886147360580 [Eh]
	 SCS Correlation Energy    =      -2.6818065904410902 [Eh]
	 SCS Total Energy          =    -686.2767687932306444 [Eh]
	-----------------------------------------------------------

  Dipole Moment: [D]
     X:     0.7036      Y:     3.2259      Z:    -1.0673     Total:     3.4699

*** Psi4 exiting successfully. Buy a developer a beer!
