                               Psi4 1.4a3.dev225

  ==> Input File <==

--------------------------------------------------------------------------
#psi4
#
memory 32 gb

molecule  {
0 1
  O       -0.8456650     0.8861440     0.2793920
  O       -0.3077290    -1.6543970     1.3165920
  O        2.1058490    -1.9633390    -0.1734930
  O        2.7563870     0.7740080    -0.4352340
  O        0.7401070     2.5265290     0.5865970
  O       -3.4805150     0.5379850    -0.4487790
  C       -0.2340150    -1.4057960    -0.0828600
  C        1.1618410    -0.9690160    -0.5229920
  C       -1.2150830    -0.3001220    -0.4685840
  C        1.5091960     0.3624950     0.1183140
  C        0.4232960     1.3863010    -0.1554910
  C       -2.6608140    -0.5711940    -0.1020800
  H       -0.4877200    -2.3505680    -0.5772350
  H        1.1452880    -0.8176810    -1.6174430
  H       -1.1578130    -0.0786490    -1.5458470
  H        1.5874550     0.2279380     1.2063560
  H        0.3693510     1.6035860    -1.2365730
  H       -2.7265370    -0.8113720     0.9658980
  H       -3.0304070    -1.4295080    -0.6695770
  H       -0.3878110    -0.7763940     1.7355090
  H        2.9789120    -1.5642300    -0.3474430
  H        3.0116250     1.5901680     0.0320000
  H        0.1223170     3.2347930     0.3320250
  H       -3.0703993     1.3161311     0.0131884
units angstrom
no_reorient  #important for SAPT in psi4, default
symmetry c1  #important for SAPT in psi4, default
}

set PROPERTIES_ORIGIN ["COM"]
properties('MP2/aug-cc-pvtz', properties = ['dipole'])
--------------------------------------------------------------------------

    Molecular point group: c1
  Charge       = 0
  Multiplicity = 1
  Basis Set: AUG-CC-PVTZ
    Blend: AUG-CC-PVTZ
  Basis Set: (AUG-CC-PVTZ AUX)
    Blend: AUG-CC-PVTZ-JKFIT

    Orbital Energies [Eh]
    ---------------------

    Doubly Occupied:

       1A    -20.600252     2A    -20.595114     3A    -20.585424
       4A    -20.566001     5A    -20.565170     6A    -20.564096
       7A    -11.362580     8A    -11.304639     9A    -11.298999
      10A    -11.296906    11A    -11.294861    12A    -11.285617
      13A     -1.448288    14A     -1.391956    15A     -1.388708
      16A     -1.366342    17A     -1.355399    18A     -1.350993
      19A     -1.072876    20A     -1.051186    21A     -0.948031
      22A     -0.887446    23A     -0.847590    24A     -0.808769
      25A     -0.759676    26A     -0.736706    27A     -0.721780
      28A     -0.714079    29A     -0.687501    30A     -0.665468
      31A     -0.658599    32A     -0.639806    33A     -0.622998
      34A     -0.618648    35A     -0.598176    36A     -0.580650
      37A     -0.575758    38A     -0.562758    39A     -0.539712
      40A     -0.534807    41A     -0.528220    42A     -0.511444
      43A     -0.495463    44A     -0.483333    45A     -0.469988
      46A     -0.459923    47A     -0.444440    48A     -0.429939

  @DF-RHF Final Energy:  -683.60671040838884

   => Energetics <=

    Nuclear Repulsion Energy =            835.8509399470372045
    One-Electron Energy =               -2600.3610717893370747
    Two-Electron Energy =                1080.9034214339110349
    Total Energy =                       -683.6067104083888353
  Basis Set: (AUG-CC-PVTZ AUX)
    Blend: AUG-CC-PVTZ-RI
    Molecular point group: c1

    Geometry (in Angstrom), charge = 0, multiplicity = 1:

       Center              X                  Y                   Z               Mass
    ------------   -----------------  -----------------  -----------------  -----------------
         O           -0.854797638783     0.886795940305     0.269902859006    15.994914619570
         O           -0.316861638783    -1.653745059695     1.307102859006    15.994914619570
         O            2.096716361217    -1.962687059695    -0.182982140994    15.994914619570
         O            2.747254361217     0.774659940305    -0.444723140994    15.994914619570
         O            0.730974361217     2.527180940305     0.577107859006    15.994914619570
         O           -3.489647638783     0.538636940305    -0.458268140994    15.994914619570
         C           -0.243147638783    -1.405144059695    -0.092349140994    12.000000000000
         C            1.152708361217    -0.968364059695    -0.532481140994    12.000000000000
         C           -1.224215638783    -0.299470059695    -0.478073140994    12.000000000000
         C            1.500063361217     0.363146940305     0.108824859006    12.000000000000
         C            0.414163361217     1.386952940305    -0.164980140994    12.000000000000
         C           -2.669946638783    -0.570542059695    -0.111569140994    12.000000000000
         H           -0.496852638783    -2.349916059695    -0.586724140994     1.007825032230
         H            1.136155361217    -0.817029059695    -1.626932140994     1.007825032230
         H           -1.166945638783    -0.077997059695    -1.555336140994     1.007825032230
         H            1.578322361217     0.228589940305     1.196866859006     1.007825032230
         H            0.360218361217     1.604237940305    -1.246062140994     1.007825032230
         H           -2.735669638783    -0.810720059695     0.956408859006     1.007825032230
         H           -3.039539638783    -1.428856059695    -0.679066140994     1.007825032230
         H           -0.396943638783    -0.775742059695     1.726019859006     1.007825032230
         H            2.969779361217    -1.563578059695    -0.356932140994     1.007825032230
         H            3.002492361217     1.590819940305     0.022510859006     1.007825032230
         H            0.113184361217     3.235444940305     0.322535859006     1.007825032230
         H           -3.079531938783     1.316783040305     0.003699259006     1.007825032230

  Basis Set: AUG-CC-PVTZ
    Blend: AUG-CC-PVTZ
  Basis Set: (AUG-CC-PVTZ AUX)
    Blend: AUG-CC-PVTZ-JKFIT
	 Reference Energy          =    -683.6067104083888353 [Eh]
	 Singles Energy            =      -0.0000000000000000 [Eh]
	 Same-Spin Energy          =      -0.6665858255985524 [Eh]
	 Opposite-Spin Energy      =      -2.0468017530496425 [Eh]
	 Correlation Energy        =      -2.7133875786481951 [Eh]
	 Total Energy              =    -686.3200979870370020 [Eh]

	 ================> DF-SCS-MP2 Energies <==================
	-----------------------------------------------------------
	 SCS Same-Spin Scale       =       0.3333333333333333 [-]
	 SCS Opposite-Spin Scale   =       1.2000000000000000 [-]
	 SCS Same-Spin Energy      =      -0.2221952751995175 [Eh]
	 SCS Opposite-Spin Energy  =      -2.4561621036595711 [Eh]
	 SCS Correlation Energy    =      -2.6783573788590886 [Eh]
	 SCS Total Energy          =    -686.2850677872479537 [Eh]
	-----------------------------------------------------------

  Dipole Moment: [D]
     X:     0.6726      Y:     3.1710      Z:    -1.0939     Total:     3.4211

*** Psi4 exiting successfully. Buy a developer a beer!
