                               Psi4 1.3.2 release

  ==> Input File <==

--------------------------------------------------------------------------
#psi4
#
memory 32 gb

molecule  {
0 1
  O       -0.8456270     0.8862080     0.2793150
  O       -0.3079160    -1.6544620     1.3165970
  O        2.1058880    -1.9633380    -0.1734630
  O        2.7564030     0.7739560    -0.4353370
  O        0.7402180     2.5264820     0.5866940
  O       -3.4805510     0.5379580    -0.4489300
  C       -0.2340330    -1.4057570    -0.0828570
  C        1.0283859    -0.8284683    -0.5723561
  C       -1.2150640    -0.3000600    -0.4685780
  C        1.5092100     0.3624850     0.1183010
  C        0.4233390     1.3863000    -0.1554910
  C       -2.6607760    -0.5711350    -0.1020210
  H       -0.4877470    -2.3504840    -0.5773070
  H        1.1452800    -0.8176870    -1.6174030
  H       -1.1578680    -0.0786640    -1.5458690
  H        1.5875790     0.2279570     1.2063390
  H        0.3695010     1.6036290    -1.2365780
  H       -2.7264410    -0.8110830     0.9660040
  H       -3.0303370    -1.4295750    -0.6693420
  H       -0.3876700    -0.7765070     1.7356760
  H        2.9789380    -1.5641560    -0.3473760
  H        3.0115730     1.5902370     0.0317380
  H        0.1218180     3.2344810     0.3328360
  H       -3.0789740     1.3005050     0.0038810
units angstrom
no_reorient  #important for SAPT in psi4, default
symmetry c1  #important for SAPT in psi4, default
}

set PROPERTIES_ORIGIN ["COM"]
properties('MP2/aug-cc-pvtz', properties = ['dipole'])
--------------------------------------------------------------------------

    Molecular point group: c1
  Charge       = 0
  Multiplicity = 1
  Basis Set: AUG-CC-PVTZ
    Blend: AUG-CC-PVTZ
  Basis Set: (AUG-CC-PVTZ AUX)
    Blend: AUG-CC-PVTZ-JKFIT

    Orbital Energies [Eh]
    ---------------------

    Doubly Occupied:

       1A    -20.602214     2A    -20.600507     3A    -20.589601
       4A    -20.571139     5A    -20.566183     6A    -20.540154
       7A    -11.365284     8A    -11.307429     9A    -11.305418
      10A    -11.302883    11A    -11.298885    12A    -11.287557
      13A     -1.453302    14A     -1.394073    15A     -1.387770
      16A     -1.369432    17A     -1.357198    18A     -1.297013
      19A     -1.100517    20A     -1.061152    21A     -0.956591
      22A     -0.893541    23A     -0.848481    24A     -0.820220
      25A     -0.762191    26A     -0.743304    27A     -0.721077
      28A     -0.714405    29A     -0.691045    30A     -0.672242
      31A     -0.658122    32A     -0.630489    33A     -0.625240
      34A     -0.606798    35A     -0.596774    36A     -0.583845
      37A     -0.576485    38A     -0.563611    39A     -0.537711
      40A     -0.531610    41A     -0.520290    42A     -0.511567
      43A     -0.498449    44A     -0.486957    45A     -0.477715
      46A     -0.462986    47A     -0.447500    48A     -0.425844

  @DF-RHF Final Energy:  -683.57058515164749

   => Energetics <=

    Nuclear Repulsion Energy =            837.2479364557567578
    One-Electron Energy =               -2602.9914452658308619
    Two-Electron Energy =                1082.1729236584267255
    Total Energy =                       -683.5705851516474922
  Basis Set: (AUG-CC-PVTZ AUX)
    Blend: AUG-CC-PVTZ-RI
    Molecular point group: c1

    Geometry (in Angstrom), charge = 0, multiplicity = 1:

       Center              X                  Y                   Z               Mass
    ------------   -----------------  -----------------  -----------------  -----------------
         O           -0.845822290754     0.877581751151     0.273175880487    15.994914619570
         O           -0.308111290754    -1.663088248849     1.310457880487    15.994914619570
         O            2.105692709246    -1.971964248849    -0.179602119513    15.994914619570
         O            2.756207709246     0.765329751151    -0.441476119513    15.994914619570
         O            0.740022709246     2.517855751151     0.580554880487    15.994914619570
         O           -3.480746290754     0.529331751151    -0.455069119513    15.994914619570
         C           -0.234228290754    -1.414383248849    -0.088996119513    12.000000000000
         C            1.028190609246    -0.837094548849    -0.578495219513    12.000000000000
         C           -1.215259290754    -0.308686248849    -0.474717119513    12.000000000000
         C            1.509014709246     0.353858751151     0.112161880487    12.000000000000
         C            0.423143709246     1.377673751151    -0.161630119513    12.000000000000
         C           -2.660971290754    -0.579761248849    -0.108160119513    12.000000000000
         H           -0.487942290754    -2.359110248849    -0.583446119513     1.007825032230
         H            1.145084709246    -0.826313248849    -1.623542119513     1.007825032230
         H           -1.158063290754    -0.087290248849    -1.552008119513     1.007825032230
         H            1.587383709246     0.219330751151     1.200199880487     1.007825032230
         H            0.369305709246     1.595002751151    -1.242717119513     1.007825032230
         H           -2.726636290754    -0.819709248849     0.959864880487     1.007825032230
         H           -3.030532290754    -1.438201248849    -0.675481119513     1.007825032230
         H           -0.387865290754    -0.785133248849     1.729536880487     1.007825032230
         H            2.978742709246    -1.572782248849    -0.353515119513     1.007825032230
         H            3.011377709246     1.581610751151     0.025598880487     1.007825032230
         H            0.121622709246     3.225854751151     0.326696880487     1.007825032230
         H           -3.079169290754     1.291878751151    -0.002258119513     1.007825032230

  Basis Set: AUG-CC-PVTZ
    Blend: AUG-CC-PVTZ
  Basis Set: (AUG-CC-PVTZ AUX)
    Blend: AUG-CC-PVTZ-JKFIT
	 Reference Energy          =    -683.5705851516474922 [Eh]
	 Singles Energy            =      -0.0000000000000000 [Eh]
	 Same-Spin Energy          =      -0.6691009272080266 [Eh]
	 Opposite-Spin Energy      =      -2.0526350561022939 [Eh]
	 Correlation Energy        =      -2.7217359833103205 [Eh]
	 Total Energy              =    -686.2923211349577741 [Eh]

	 ================> DF-SCS-MP2 Energies <==================
	-----------------------------------------------------------
	 SCS Same-Spin Scale       =       0.3333333333333333 [-]
	 SCS Opposite-Spin Scale   =       1.2000000000000000 [-]
	 SCS Same-Spin Energy      =      -0.2230336424026755 [Eh]
	 SCS Opposite-Spin Energy  =      -2.4631620673227528 [Eh]
	 SCS Correlation Energy    =      -2.6861957097254283 [Eh]
	 SCS Total Energy          =    -686.2567808613729312 [Eh]
	-----------------------------------------------------------

  Dipole Moment: [D]
     X:     0.1799      Y:     3.5949      Z:    -1.1628     Total:     3.7826

*** Psi4 exiting successfully. Buy a developer a beer!
