                               Psi4 1.4a3.dev225

  ==> Input File <==

--------------------------------------------------------------------------
#psi4
#
memory 32 gb

molecule  {
0 1
  O       -0.8456650     0.8861440     0.2793920
  O       -0.3077290    -1.6543970     1.3165920
  O        2.1058490    -1.9633390    -0.1734930
  O        2.7563870     0.7740080    -0.4352340
  O        0.7401070     2.5265290     0.5865970
  O       -3.4805150     0.5379850    -0.4487790
  C       -0.2340150    -1.4057960    -0.0828600
  C        1.1618410    -0.9690160    -0.5229920
  C       -1.2023465    -0.2592227    -0.4427958
  C        1.5091960     0.3624950     0.1183140
  C        0.4232960     1.3863010    -0.1554910
  C       -2.6608140    -0.5711940    -0.1020800
  H       -0.4877200    -2.3505680    -0.5772350
  H        1.1452880    -0.8176810    -1.6174430
  H       -1.1578130    -0.0786490    -1.5458470
  H        1.5874550     0.2279380     1.2063560
  H        0.3693510     1.6035860    -1.2365730
  H       -2.7265370    -0.8113720     0.9658980
  H       -3.0304070    -1.4295080    -0.6695770
  H       -0.3878110    -0.7763940     1.7355090
  H        2.9789120    -1.5642300    -0.3474430
  H        3.0116250     1.5901680     0.0320000
  H        0.1223170     3.2347930     0.3320250
  H       -3.0786550     1.3004670     0.0038890
units angstrom
no_reorient  #important for SAPT in psi4, default
symmetry c1  #important for SAPT in psi4, default
}

set PROPERTIES_ORIGIN ["COM"]
properties('MP2/aug-cc-pvtz', properties = ['dipole'])
--------------------------------------------------------------------------

    Molecular point group: c1
  Charge       = 0
  Multiplicity = 1
  Basis Set: AUG-CC-PVTZ
    Blend: AUG-CC-PVTZ
  Basis Set: (AUG-CC-PVTZ AUX)
    Blend: AUG-CC-PVTZ-JKFIT

    Orbital Energies [Eh]
    ---------------------

    Doubly Occupied:

       1A    -20.602465     2A    -20.600469     3A    -20.586474
       4A    -20.564065     5A    -20.563608     6A    -20.563222
       7A    -11.365679     8A    -11.303623     9A    -11.300216
      10A    -11.295332    11A    -11.293914    12A    -11.284712
      13A     -1.458188    14A     -1.395749    15A     -1.391245
      16A     -1.368304    17A     -1.358422    18A     -1.353445
      19A     -1.071206    20A     -1.049766    21A     -0.946562
      22A     -0.889298    23A     -0.849491    24A     -0.809635
      25A     -0.761183    26A     -0.740872    27A     -0.722038
      28A     -0.715584    29A     -0.691943    30A     -0.666709
      31A     -0.658541    32A     -0.641644    33A     -0.622251
      34A     -0.621408    35A     -0.598658    36A     -0.580480
      37A     -0.578374    38A     -0.562655    39A     -0.541830
      40A     -0.534730    41A     -0.531722    42A     -0.515270
      43A     -0.496468    44A     -0.480256    45A     -0.468293
      46A     -0.459625    47A     -0.443777    48A     -0.424875

  @DF-RHF Final Energy:  -683.60744123465190

   => Energetics <=

    Nuclear Repulsion Energy =            836.6236510597075267
    One-Electron Energy =               -2601.8136254403930252
    Two-Electron Energy =                1081.5825331460334837
    Total Energy =                       -683.6074412346520148
  Basis Set: (AUG-CC-PVTZ AUX)
    Blend: AUG-CC-PVTZ-RI
    Molecular point group: c1

    Geometry (in Angstrom), charge = 0, multiplicity = 1:

       Center              X                  Y                   Z               Mass
    ------------   -----------------  -----------------  -----------------  -----------------
         O           -0.855600232250     0.884157953022     0.268236300163    15.994914619570
         O           -0.317664232250    -1.656383046978     1.305436300163    15.994914619570
         O            2.095913767750    -1.965325046978    -0.184648699837    15.994914619570
         O            2.746451767750     0.772021953022    -0.446389699837    15.994914619570
         O            0.730171767750     2.524542953022     0.575441300163    15.994914619570
         O           -3.490450232250     0.535998953022    -0.459934699837    15.994914619570
         C           -0.243950232250    -1.407782046978    -0.094015699837    12.000000000000
         C            1.151905767750    -0.971002046978    -0.534147699837    12.000000000000
         C           -1.212281732250    -0.261208746978    -0.453951499837    12.000000000000
         C            1.499260767750     0.360508953022     0.107158300163    12.000000000000
         C            0.413360767750     1.384314953022    -0.166646699837    12.000000000000
         C           -2.670749232250    -0.573180046978    -0.113235699837    12.000000000000
         H           -0.497655232250    -2.352554046978    -0.588390699837     1.007825032230
         H            1.135352767750    -0.819667046978    -1.628598699837     1.007825032230
         H           -1.167748232250    -0.080635046978    -1.557002699837     1.007825032230
         H            1.577519767750     0.225951953022     1.195200300163     1.007825032230
         H            0.359415767750     1.601599953022    -1.247728699837     1.007825032230
         H           -2.736472232250    -0.813358046978     0.954742300163     1.007825032230
         H           -3.040342232250    -1.431494046978    -0.680732699837     1.007825032230
         H           -0.397746232250    -0.778380046978     1.724353300163     1.007825032230
         H            2.968976767750    -1.566216046978    -0.358598699837     1.007825032230
         H            3.001689767750     1.588181953022     0.020844300163     1.007825032230
         H            0.112381767750     3.232806953022     0.320869300163     1.007825032230
         H           -3.088590232250     1.298480953022    -0.007266699837     1.007825032230

  Basis Set: AUG-CC-PVTZ
    Blend: AUG-CC-PVTZ
  Basis Set: (AUG-CC-PVTZ AUX)
    Blend: AUG-CC-PVTZ-JKFIT
	 Reference Energy          =    -683.6074412346519011 [Eh]
	 Singles Energy            =      -0.0000000000000000 [Eh]
	 Same-Spin Energy          =      -0.6662153257896980 [Eh]
	 Opposite-Spin Energy      =      -2.0455273288491513 [Eh]
	 Correlation Energy        =      -2.7117426546388494 [Eh]
	 Total Energy              =    -686.3191838892907981 [Eh]

	 ================> DF-SCS-MP2 Energies <==================
	-----------------------------------------------------------
	 SCS Same-Spin Scale       =       0.3333333333333333 [-]
	 SCS Opposite-Spin Scale   =       1.2000000000000000 [-]
	 SCS Same-Spin Energy      =      -0.2220717752632327 [Eh]
	 SCS Opposite-Spin Energy  =      -2.4546327946189814 [Eh]
	 SCS Correlation Energy    =      -2.6767045698822143 [Eh]
	 SCS Total Energy          =    -686.2841458045340914 [Eh]
	-----------------------------------------------------------

  Dipole Moment: [D]
     X:     0.7381      Y:     3.2845      Z:    -1.0359     Total:     3.5222

*** Psi4 exiting successfully. Buy a developer a beer!
