                               Psi4 1.3.2 release

  ==> Input File <==

--------------------------------------------------------------------------
#psi4
#
memory 32 gb

molecule  {
0 1
  O       -0.8647260     0.8987501     0.2684275
  O       -0.3079160    -1.6544620     1.3165970
  O        2.1058880    -1.9633380    -0.1734630
  O        2.7564030     0.7739560    -0.4353370
  O        0.7402180     2.5264820     0.5866940
  O       -3.4805510     0.5379580    -0.4489300
  C       -0.2340330    -1.4057570    -0.0828570
  C        1.1618270    -0.9690140    -0.5229560
  C       -1.2150640    -0.3000600    -0.4685780
  C        1.5092100     0.3624850     0.1183010
  C        0.4233390     1.3863000    -0.1554910
  C       -2.6607760    -0.5711350    -0.1020210
  H       -0.4877470    -2.3504840    -0.5773070
  H        1.1452800    -0.8176870    -1.6174030
  H       -1.1578680    -0.0786640    -1.5458690
  H        1.5875790     0.2279570     1.2063390
  H        0.3695010     1.6036290    -1.2365780
  H       -2.7264410    -0.8110830     0.9660040
  H       -3.0303370    -1.4295750    -0.6693420
  H       -0.3876700    -0.7765070     1.7356760
  H        2.9789380    -1.5641560    -0.3473760
  H        3.0115730     1.5902370     0.0317380
  H        0.1218180     3.2344810     0.3328360
  H       -3.0789740     1.3005050     0.0038810
units angstrom
no_reorient  #important for SAPT in psi4, default
symmetry c1  #important for SAPT in psi4, default
}

set PROPERTIES_ORIGIN ["COM"]
properties('MP2/aug-cc-pvtz', properties = ['dipole'])
--------------------------------------------------------------------------

    Molecular point group: c1
  Charge       = 0
  Multiplicity = 1
  Basis Set: AUG-CC-PVTZ
    Blend: AUG-CC-PVTZ
  Basis Set: (AUG-CC-PVTZ AUX)
    Blend: AUG-CC-PVTZ-JKFIT

    Orbital Energies [Eh]
    ---------------------

    Doubly Occupied:

       1A    -20.600548     2A    -20.595233     3A    -20.586412
       4A    -20.565801     5A    -20.564471     6A    -20.563606
       7A    -11.363401     8A    -11.304135     9A    -11.300148
      10A    -11.297529    11A    -11.295316    12A    -11.285111
      13A     -1.446567    14A     -1.392587    15A     -1.388912
      16A     -1.367938    17A     -1.356526    18A     -1.351733
      19A     -1.073587    20A     -1.050755    21A     -0.948824
      22A     -0.887916    23A     -0.847810    24A     -0.808461
      25A     -0.760169    26A     -0.736980    27A     -0.722055
      28A     -0.713120    29A     -0.689255    30A     -0.665934
      31A     -0.658983    32A     -0.639774    33A     -0.623269
      34A     -0.618568    35A     -0.598632    36A     -0.581128
      37A     -0.576100    38A     -0.563250    39A     -0.540097
      40A     -0.535300    41A     -0.528123    42A     -0.511869
      43A     -0.494804    44A     -0.483750    45A     -0.470480
      46A     -0.460303    47A     -0.444629    48A     -0.430701

  @DF-RHF Final Energy:  -683.60760034442569

   => Energetics <=

    Nuclear Repulsion Energy =            835.5188700104346253
    One-Electron Energy =               -2599.6717358179557777
    Two-Electron Energy =                1080.5452654630955749
    Total Energy =                       -683.6076003444256912
  Basis Set: (AUG-CC-PVTZ AUX)
    Blend: AUG-CC-PVTZ-RI
    Molecular point group: c1

    Geometry (in Angstrom), charge = 0, multiplicity = 1:

       Center              X                  Y                   Z               Mass
    ------------   -----------------  -----------------  -----------------  -----------------
         O           -0.872117680533     0.898376159390     0.259963329451    15.994914619570
         O           -0.315307680533    -1.654835940610     1.308132829451    15.994914619570
         O            2.098496319467    -1.963711940610    -0.181927170549    15.994914619570
         O            2.749011319467     0.773582059390    -0.443801170549    15.994914619570
         O            0.732826319467     2.526108059390     0.578229829451    15.994914619570
         O           -3.487942680533     0.537584059390    -0.457394170549    15.994914619570
         C           -0.241424680533    -1.406130940610    -0.091321170549    12.000000000000
         C            1.154435319467    -0.969387940610    -0.531420170549    12.000000000000
         C           -1.222455680533    -0.300433940610    -0.477042170549    12.000000000000
         C            1.501818319467     0.362111059390     0.109836829451    12.000000000000
         C            0.415947319467     1.385926059390    -0.163955170549    12.000000000000
         C           -2.668167680533    -0.571508940610    -0.110485170549    12.000000000000
         H           -0.495138680533    -2.350857940610    -0.585771170549     1.007825032230
         H            1.137888319467    -0.818060940610    -1.625867170549     1.007825032230
         H           -1.165259680533    -0.079037940610    -1.554333170549     1.007825032230
         H            1.580187319467     0.227583059390     1.197874829451     1.007825032230
         H            0.362109319467     1.603255059390    -1.245042170549     1.007825032230
         H           -2.733832680533    -0.811456940610     0.957539829451     1.007825032230
         H           -3.037728680533    -1.429948940610    -0.677806170549     1.007825032230
         H           -0.395061680533    -0.776880940610     1.727211829451     1.007825032230
         H            2.971546319467    -1.564529940610    -0.355840170549     1.007825032230
         H            3.004181319467     1.589863059390     0.023273829451     1.007825032230
         H            0.114426319467     3.234107059390     0.324371829451     1.007825032230
         H           -3.086365680533     1.300131059390    -0.004583170549     1.007825032230

  Basis Set: AUG-CC-PVTZ
    Blend: AUG-CC-PVTZ
  Basis Set: (AUG-CC-PVTZ AUX)
    Blend: AUG-CC-PVTZ-JKFIT
	 Reference Energy          =    -683.6076003444256912 [Eh]
	 Singles Energy            =      -0.0000000000000000 [Eh]
	 Same-Spin Energy          =      -0.6664107763426012 [Eh]
	 Opposite-Spin Energy      =      -2.0464970600869714 [Eh]
	 Correlation Energy        =      -2.7129078364295727 [Eh]
	 Total Energy              =    -686.3205081808553132 [Eh]

	 ================> DF-SCS-MP2 Energies <==================
	-----------------------------------------------------------
	 SCS Same-Spin Scale       =       0.3333333333333333 [-]
	 SCS Opposite-Spin Scale   =       1.2000000000000000 [-]
	 SCS Same-Spin Energy      =      -0.2221369254475337 [Eh]
	 SCS Opposite-Spin Energy  =      -2.4557964721043657 [Eh]
	 SCS Correlation Energy    =      -2.6779333975518993 [Eh]
	 SCS Total Energy          =    -686.2855337419775879 [Eh]
	-----------------------------------------------------------

  Dipole Moment: [D]
     X:     0.7420      Y:     3.1409      Z:    -1.0781     Total:     3.4027

*** Psi4 exiting successfully. Buy a developer a beer!
