                               Psi4 1.3.2 release

  ==> Input File <==

--------------------------------------------------------------------------
#psi4
#
memory 32 gb

molecule  {
0 1
  O       -0.8456270     0.8862080     0.2793150
  O       -0.3079160    -1.6544620     1.3165970
  O        2.1058880    -1.9633380    -0.1734630
  O        2.7564030     0.7739560    -0.4353370
  O        0.7402180     2.5264820     0.5866940
  O       -3.4805510     0.5379580    -0.4489300
  C       -0.2254325    -1.4070383    -0.0576578
  C        1.1618270    -0.9690140    -0.5229560
  C       -1.2150640    -0.3000600    -0.4685780
  C        1.5092100     0.3624850     0.1183010
  C        0.4233390     1.3863000    -0.1554910
  C       -2.6607760    -0.5711350    -0.1020210
  H       -0.4877470    -2.3504840    -0.5773070
  H        1.1452800    -0.8176870    -1.6174030
  H       -1.1578680    -0.0786640    -1.5458690
  H        1.5875790     0.2279570     1.2063390
  H        0.3695010     1.6036290    -1.2365780
  H       -2.7264410    -0.8110830     0.9660040
  H       -3.0303370    -1.4295750    -0.6693420
  H       -0.3876700    -0.7765070     1.7356760
  H        2.9789380    -1.5641560    -0.3473760
  H        3.0115730     1.5902370     0.0317380
  H        0.1218180     3.2344810     0.3328360
  H       -3.0789740     1.3005050     0.0038810
units angstrom
no_reorient  #important for SAPT in psi4, default
symmetry c1  #important for SAPT in psi4, default
}

set PROPERTIES_ORIGIN ["COM"]
properties('MP2/aug-cc-pvtz', properties = ['dipole'])
--------------------------------------------------------------------------

    Molecular point group: c1
  Charge       = 0
  Multiplicity = 1
  Basis Set: AUG-CC-PVTZ
    Blend: AUG-CC-PVTZ
  Basis Set: (AUG-CC-PVTZ AUX)
    Blend: AUG-CC-PVTZ-JKFIT

    Orbital Energies [Eh]
    ---------------------

    Doubly Occupied:

       1A    -20.599957     2A    -20.594349     3A    -20.585193
       4A    -20.568016     5A    -20.564296     6A    -20.563646
       7A    -11.362250     8A    -11.304096     9A    -11.298613
      10A    -11.297142    11A    -11.294031    12A    -11.285494
      13A     -1.448121    14A     -1.393356    15A     -1.391312
      16A     -1.370416    17A     -1.357049    18A     -1.354596
      19A     -1.071012    20A     -1.050209    21A     -0.948101
      22A     -0.886354    23A     -0.847601    24A     -0.809142
      25A     -0.760487    26A     -0.737469    27A     -0.722750
      28A     -0.713738    29A     -0.689757    30A     -0.666715
      31A     -0.659766    32A     -0.639960    33A     -0.624154
      34A     -0.619008    35A     -0.598813    36A     -0.582216
      37A     -0.577109    38A     -0.562418    39A     -0.541077
      40A     -0.535820    41A     -0.527383    42A     -0.512593
      43A     -0.495564    44A     -0.481333    45A     -0.469456
      46A     -0.460114    47A     -0.443558    48A     -0.428211

  @DF-RHF Final Energy:  -683.60796150017336

   => Energetics <=

    Nuclear Repulsion Energy =            836.1407015365221014
    One-Electron Energy =               -2600.9096842186222602
    Two-Electron Energy =                1081.1610211819267988
    Total Energy =                       -683.6079615001733600
  Basis Set: (AUG-CC-PVTZ AUX)
    Blend: AUG-CC-PVTZ-RI
    Molecular point group: c1

    Geometry (in Angstrom), charge = 0, multiplicity = 1:

       Center              X                  Y                   Z               Mass
    ------------   -----------------  -----------------  -----------------  -----------------
         O           -0.855288397207     0.887033555973     0.268204344578    15.994914619570
         O           -0.317577397207    -1.653636444027     1.305486344578    15.994914619570
         O            2.096226602793    -1.962512444027    -0.184573655422    15.994914619570
         O            2.746741602793     0.774781555973    -0.446447655422    15.994914619570
         O            0.730556602793     2.527307555973     0.575583344578    15.994914619570
         O           -3.490212397207     0.538783555973    -0.460040655422    15.994914619570
         C           -0.235093897207    -1.406212744027    -0.068768455422    12.000000000000
         C            1.152165602793    -0.968188444027    -0.534066655422    12.000000000000
         C           -1.224725397207    -0.299234444027    -0.479688655422    12.000000000000
         C            1.499548602793     0.363310555973     0.107190344578    12.000000000000
         C            0.413677602793     1.387125555973    -0.166601655422    12.000000000000
         C           -2.670437397207    -0.570309444027    -0.113131655422    12.000000000000
         H           -0.497408397207    -2.349658444027    -0.588417655422     1.007825032230
         H            1.135618602793    -0.816861444027    -1.628513655422     1.007825032230
         H           -1.167529397207    -0.077838444027    -1.556979655422     1.007825032230
         H            1.577917602793     0.228782555973     1.195228344578     1.007825032230
         H            0.359839602793     1.604454555973    -1.247688655422     1.007825032230
         H           -2.736102397207    -0.810257444027     0.954893344578     1.007825032230
         H           -3.039998397207    -1.428749444027    -0.680452655422     1.007825032230
         H           -0.397331397207    -0.775681444027     1.724565344578     1.007825032230
         H            2.969276602793    -1.563330444027    -0.358486655422     1.007825032230
         H            3.001911602793     1.591062555973     0.020627344578     1.007825032230
         H            0.112156602793     3.235306555973     0.321725344578     1.007825032230
         H           -3.088635397207     1.301330555973    -0.007229655422     1.007825032230

  Basis Set: AUG-CC-PVTZ
    Blend: AUG-CC-PVTZ
  Basis Set: (AUG-CC-PVTZ AUX)
    Blend: AUG-CC-PVTZ-JKFIT
	 Reference Energy          =    -683.6079615001733600 [Eh]
	 Singles Energy            =      -0.0000000000000000 [Eh]
	 Same-Spin Energy          =      -0.6663682244141134 [Eh]
	 Opposite-Spin Energy      =      -2.0459280178641190 [Eh]
	 Correlation Energy        =      -2.7122962422782324 [Eh]
	 Total Energy              =    -686.3202577424516448 [Eh]

	 ================> DF-SCS-MP2 Energies <==================
	-----------------------------------------------------------
	 SCS Same-Spin Scale       =       0.3333333333333333 [-]
	 SCS Opposite-Spin Scale   =       1.2000000000000000 [-]
	 SCS Same-Spin Energy      =      -0.2221227414713711 [Eh]
	 SCS Opposite-Spin Energy  =      -2.4551136214369427 [Eh]
	 SCS Correlation Energy    =      -2.6772363629083138 [Eh]
	 SCS Total Energy          =    -686.2851978630816348 [Eh]
	-----------------------------------------------------------

  Dipole Moment: [D]
     X:     0.6627      Y:     3.1464      Z:    -1.0287     Total:     3.3760

*** Psi4 exiting successfully. Buy a developer a beer!
