                               Psi4 1.3.2 release

  ==> Input File <==

--------------------------------------------------------------------------
#psi4
#
memory 32 gb

molecule  {
0 1
  O       -0.8480813     0.9236368     0.3123296
  O       -0.3079160    -1.6544620     1.3165970
  O        2.1058880    -1.9633380    -0.1734630
  O        2.7564030     0.7739560    -0.4353370
  O        0.7402180     2.5264820     0.5866940
  O       -3.4805510     0.5379580    -0.4489300
  C       -0.2340330    -1.4057570    -0.0828570
  C        1.1618270    -0.9690140    -0.5229560
  C       -1.2150640    -0.3000600    -0.4685780
  C        1.5092100     0.3624850     0.1183010
  C        0.4233390     1.3863000    -0.1554910
  C       -2.6607760    -0.5711350    -0.1020210
  H       -0.4877470    -2.3504840    -0.5773070
  H        1.1452800    -0.8176870    -1.6174030
  H       -1.1578680    -0.0786640    -1.5458690
  H        1.5875790     0.2279570     1.2063390
  H        0.3695010     1.6036290    -1.2365780
  H       -2.7264410    -0.8110830     0.9660040
  H       -3.0303370    -1.4295750    -0.6693420
  H       -0.3876700    -0.7765070     1.7356760
  H        2.9789380    -1.5641560    -0.3473760
  H        3.0115730     1.5902370     0.0317380
  H        0.1218180     3.2344810     0.3328360
  H       -3.0789740     1.3005050     0.0038810
units angstrom
no_reorient  #important for SAPT in psi4, default
symmetry c1  #important for SAPT in psi4, default
}

set PROPERTIES_ORIGIN ["COM"]
properties('MP2/aug-cc-pvtz', properties = ['dipole'])
--------------------------------------------------------------------------

    Molecular point group: c1
  Charge       = 0
  Multiplicity = 1
  Basis Set: AUG-CC-PVTZ
    Blend: AUG-CC-PVTZ
  Basis Set: (AUG-CC-PVTZ AUX)
    Blend: AUG-CC-PVTZ-JKFIT

    Orbital Energies [Eh]
    ---------------------

    Doubly Occupied:

       1A    -20.596163     2A    -20.595888     3A    -20.585519
       4A    -20.566037     5A    -20.564805     6A    -20.564650
       7A    -11.360508     8A    -11.309105     9A    -11.299689
      10A    -11.298980    11A    -11.295673    12A    -11.287334
      13A     -1.443255    14A     -1.391878    15A     -1.385105
      16A     -1.367474    17A     -1.356156    18A     -1.348345
      19A     -1.075557    20A     -1.048920    21A     -0.949692
      22A     -0.886359    23A     -0.847065    24A     -0.808498
      25A     -0.758318    26A     -0.733917    27A     -0.720733
      28A     -0.713615    29A     -0.687442    30A     -0.664979
      31A     -0.658540    32A     -0.639726    33A     -0.623125
      34A     -0.616235    35A     -0.599660    36A     -0.581580
      37A     -0.572935    38A     -0.563532    39A     -0.539893
      40A     -0.535630    41A     -0.524731    42A     -0.510027
      43A     -0.496124    44A     -0.485395    45A     -0.471564
      46A     -0.460496    47A     -0.445093    48A     -0.432361

  @DF-RHF Final Energy:  -683.60462790756958

   => Energetics <=

    Nuclear Repulsion Energy =            834.7782085810853232
    One-Electron Energy =               -2598.2290614519570227
    Two-Electron Energy =                1079.8462249633018928
    Total Energy =                       -683.6046279075696930
  Basis Set: (AUG-CC-PVTZ AUX)
    Blend: AUG-CC-PVTZ-RI
    Molecular point group: c1

    Geometry (in Angstrom), charge = 0, multiplicity = 1:

       Center              X                  Y                   Z               Mass
    ------------   -----------------  -----------------  -----------------  -----------------
         O           -0.856951518498     0.921052189882     0.299965634226    15.994914619570
         O           -0.316786218498    -1.657046610118     1.304233034226    15.994914619570
         O            2.097017781502    -1.965922610118    -0.185826965774    15.994914619570
         O            2.747532781502     0.771371389882    -0.447700965774    15.994914619570
         O            0.731347781502     2.523897389882     0.574330034226    15.994914619570
         O           -3.489421218498     0.535373389882    -0.461293965774    15.994914619570
         C           -0.242903218498    -1.408341610118    -0.095220965774    12.000000000000
         C            1.152956781502    -0.971598610118    -0.535319965774    12.000000000000
         C           -1.223934218498    -0.302644610118    -0.480941965774    12.000000000000
         C            1.500339781502     0.359900389882     0.105937034226    12.000000000000
         C            0.414468781502     1.383715389882    -0.167854965774    12.000000000000
         C           -2.669646218498    -0.573719610118    -0.114384965774    12.000000000000
         H           -0.496617218498    -2.353068610118    -0.589670965774     1.007825032230
         H            1.136409781502    -0.820271610118    -1.629766965774     1.007825032230
         H           -1.166738218498    -0.081248610118    -1.558232965774     1.007825032230
         H            1.578708781502     0.225372389882     1.193975034226     1.007825032230
         H            0.360630781502     1.601044389882    -1.248941965774     1.007825032230
         H           -2.735311218498    -0.813667610118     0.953640034226     1.007825032230
         H           -3.039207218498    -1.432159610118    -0.681705965774     1.007825032230
         H           -0.396540218498    -0.779091610118     1.723312034226     1.007825032230
         H            2.970067781502    -1.566740610118    -0.359739965774     1.007825032230
         H            3.002702781502     1.587652389882     0.019374034226     1.007825032230
         H            0.112947781502     3.231896389882     0.320472034226     1.007825032230
         H           -3.087844218498     1.297920389882    -0.008482965774     1.007825032230

  Basis Set: AUG-CC-PVTZ
    Blend: AUG-CC-PVTZ
  Basis Set: (AUG-CC-PVTZ AUX)
    Blend: AUG-CC-PVTZ-JKFIT
	 Reference Energy          =    -683.6046279075695793 [Eh]
	 Singles Energy            =      -0.0000000000000000 [Eh]
	 Same-Spin Energy          =      -0.6666516230801552 [Eh]
	 Opposite-Spin Energy      =      -2.0475629306681964 [Eh]
	 Correlation Energy        =      -2.7142145537483517 [Eh]
	 Total Energy              =    -686.3188424613178995 [Eh]

	 ================> DF-SCS-MP2 Energies <==================
	-----------------------------------------------------------
	 SCS Same-Spin Scale       =       0.3333333333333333 [-]
	 SCS Opposite-Spin Scale   =       1.2000000000000000 [-]
	 SCS Same-Spin Energy      =      -0.2222172076933851 [Eh]
	 SCS Opposite-Spin Energy  =      -2.4570755168018357 [Eh]
	 SCS Correlation Energy    =      -2.6792927244952209 [Eh]
	 SCS Total Energy          =    -686.2839206320647918 [Eh]
	-----------------------------------------------------------

  Dipole Moment: [D]
     X:     0.6386      Y:     3.0006      Z:    -1.1802     Total:     3.2870

*** Psi4 exiting successfully. Buy a developer a beer!
