                               Psi4 1.4a3.dev225

  ==> Input File <==

--------------------------------------------------------------------------
#psi4
#
memory 32 gb

molecule  {
0 1
  O       -0.8456650     0.8861440     0.2793920
  O       -0.3077290    -1.6543970     1.3165920
  O        2.1058490    -1.9633390    -0.1734930
  O        2.7563870     0.7740080    -0.4352340
  O        0.7401070     2.5265290     0.5865970
  O       -3.4805150     0.5379850    -0.4487790
  C       -0.2340150    -1.4057960    -0.0828600
  C        1.1618410    -0.9690160    -0.5229920
  C       -1.2150830    -0.3001220    -0.4685840
  C        1.5091960     0.3624950     0.1183140
  C        0.4232960     1.3863010    -0.1554910
  C       -2.6608140    -0.5711940    -0.1020800
  H       -0.4877200    -2.3505680    -0.5772350
  H        1.1445390    -0.8108332    -1.6669662
  H       -1.1578130    -0.0786490    -1.5458470
  H        1.5874550     0.2279380     1.2063560
  H        0.3693510     1.6035860    -1.2365730
  H       -2.7265370    -0.8113720     0.9658980
  H       -3.0304070    -1.4295080    -0.6695770
  H       -0.3878110    -0.7763940     1.7355090
  H        2.9789120    -1.5642300    -0.3474430
  H        3.0116250     1.5901680     0.0320000
  H        0.1223170     3.2347930     0.3320250
  H       -3.0786550     1.3004670     0.0038890
units angstrom
no_reorient  #important for SAPT in psi4, default
symmetry c1  #important for SAPT in psi4, default
}

set PROPERTIES_ORIGIN ["COM"]
properties('MP2/aug-cc-pvtz', properties = ['dipole'])
--------------------------------------------------------------------------

    Molecular point group: c1
  Charge       = 0
  Multiplicity = 1
  Basis Set: AUG-CC-PVTZ
    Blend: AUG-CC-PVTZ
  Basis Set: (AUG-CC-PVTZ AUX)
    Blend: AUG-CC-PVTZ-JKFIT

    Orbital Energies [Eh]
    ---------------------

    Doubly Occupied:

       1A    -20.600172     2A    -20.595010     3A    -20.585479
       4A    -20.565685     5A    -20.565290     6A    -20.564458
       7A    -11.362508     8A    -11.304603     9A    -11.301089
      10A    -11.299517    11A    -11.297331    12A    -11.285792
      13A     -1.448260    14A     -1.392177    15A     -1.389175
      16A     -1.367998    17A     -1.357111    18A     -1.352409
      19A     -1.071900    20A     -1.051461    21A     -0.948294
      22A     -0.887122    23A     -0.847812    24A     -0.806546
      25A     -0.759518    26A     -0.737125    27A     -0.720609
      28A     -0.713620    29A     -0.689399    30A     -0.663719
      31A     -0.659090    32A     -0.639804    33A     -0.623249
      34A     -0.618896    35A     -0.598453    36A     -0.580039
      37A     -0.576019    38A     -0.562532    39A     -0.540065
      40A     -0.535031    41A     -0.528341    42A     -0.512012
      43A     -0.495824    44A     -0.483368    45A     -0.469930
      46A     -0.458611    47A     -0.443958    48A     -0.430141

  @DF-RHF Final Energy:  -683.60596408298841

   => Energetics <=

    Nuclear Repulsion Energy =            835.6538946887337715
    One-Electron Energy =               -2599.9466090097207598
    Two-Electron Energy =                1080.6867502379984671
    Total Energy =                       -683.6059640829885211
  Basis Set: (AUG-CC-PVTZ AUX)
    Blend: AUG-CC-PVTZ-RI
    Molecular point group: c1

    Geometry (in Angstrom), charge = 0, multiplicity = 1:

       Center              X                  Y                   Z               Mass
    ------------   -----------------  -----------------  -----------------  -----------------
         O           -0.854747238965     0.886845285638     0.270232092447    15.994914619570
         O           -0.316811238965    -1.653695714362     1.307432092447    15.994914619570
         O            2.096766761035    -1.962637714362    -0.182652907553    15.994914619570
         O            2.747304761035     0.774709285638    -0.444393907553    15.994914619570
         O            0.731024761035     2.527230285638     0.577437092447    15.994914619570
         O           -3.489597238965     0.538686285638    -0.457938907553    15.994914619570
         C           -0.243097238965    -1.405094714362    -0.092019907553    12.000000000000
         C            1.152758761035    -0.968314714362    -0.532151907553    12.000000000000
         C           -1.224165238965    -0.299420714362    -0.477743907553    12.000000000000
         C            1.500113761035     0.363196285638     0.109154092447    12.000000000000
         C            0.414213761035     1.387002285638    -0.164650907553    12.000000000000
         C           -2.669896238965    -0.570492714362    -0.111239907553    12.000000000000
         H           -0.496802238965    -2.349866714362    -0.586394907553     1.007825032230
         H            1.135456761035    -0.810131914362    -1.676126107553     1.007825032230
         H           -1.166895238965    -0.077947714362    -1.555006907553     1.007825032230
         H            1.578372761035     0.228639285638     1.197196092447     1.007825032230
         H            0.360268761035     1.604287285638    -1.245732907553     1.007825032230
         H           -2.735619238965    -0.810670714362     0.956738092447     1.007825032230
         H           -3.039489238965    -1.428806714362    -0.678736907553     1.007825032230
         H           -0.396893238965    -0.775692714362     1.726349092447     1.007825032230
         H            2.969829761035    -1.563528714362    -0.356602907553     1.007825032230
         H            3.002542761035     1.590869285638     0.022840092447     1.007825032230
         H            0.113234761035     3.235494285638     0.322865092447     1.007825032230
         H           -3.087737238965     1.301168285638    -0.005270907553     1.007825032230

  Basis Set: AUG-CC-PVTZ
    Blend: AUG-CC-PVTZ
  Basis Set: (AUG-CC-PVTZ AUX)
    Blend: AUG-CC-PVTZ-JKFIT
	 Reference Energy          =    -683.6059640829884074 [Eh]
	 Singles Energy            =      -0.0000000000000000 [Eh]
	 Same-Spin Energy          =      -0.6664596905729986 [Eh]
	 Opposite-Spin Energy      =      -2.0466589074530974 [Eh]
	 Correlation Energy        =      -2.7131185980260959 [Eh]
	 Total Energy              =    -686.3190826810144927 [Eh]

	 ================> DF-SCS-MP2 Energies <==================
	-----------------------------------------------------------
	 SCS Same-Spin Scale       =       0.3333333333333333 [-]
	 SCS Opposite-Spin Scale   =       1.2000000000000000 [-]
	 SCS Same-Spin Energy      =      -0.2221532301909995 [Eh]
	 SCS Opposite-Spin Energy  =      -2.4559906889437166 [Eh]
	 SCS Correlation Energy    =      -2.6781439191347163 [Eh]
	 SCS Total Energy          =    -686.2841080021231619 [Eh]
	-----------------------------------------------------------

  Dipole Moment: [D]
     X:     0.6806      Y:     3.1429      Z:    -1.0642     Total:     3.3872

*** Psi4 exiting successfully. Buy a developer a beer!
