                               Psi4 1.3.2 release

  ==> Input File <==

--------------------------------------------------------------------------
#psi4
#
memory 32 gb

molecule  {
0 1
  O       -0.8456270     0.8862080     0.2793150
  O       -0.3079160    -1.6544620     1.3165970
  O        2.1058880    -1.9633380    -0.1734630
  O        2.7564030     0.7739560    -0.4353370
  O        0.7402180     2.5264820     0.5866940
  O       -3.4805510     0.5379580    -0.4489300
  C       -0.2340330    -1.4057570    -0.0828570
  C        1.0951064    -0.8987412    -0.5476561
  C       -1.2150640    -0.3000600    -0.4685780
  C        1.5092100     0.3624850     0.1183010
  C        0.4233390     1.3863000    -0.1554910
  C       -2.6607760    -0.5711350    -0.1020210
  H       -0.4877470    -2.3504840    -0.5773070
  H        1.1452800    -0.8176870    -1.6174030
  H       -1.1578680    -0.0786640    -1.5458690
  H        1.5875790     0.2279570     1.2063390
  H        0.3695010     1.6036290    -1.2365780
  H       -2.7264410    -0.8110830     0.9660040
  H       -3.0303370    -1.4295750    -0.6693420
  H       -0.3876700    -0.7765070     1.7356760
  H        2.9789380    -1.5641560    -0.3473760
  H        3.0115730     1.5902370     0.0317380
  H        0.1218180     3.2344810     0.3328360
  H       -3.0789740     1.3005050     0.0038810
units angstrom
no_reorient  #important for SAPT in psi4, default
symmetry c1  #important for SAPT in psi4, default
}

set PROPERTIES_ORIGIN ["COM"]
properties('MP2/aug-cc-pvtz', properties = ['dipole'])
--------------------------------------------------------------------------

    Molecular point group: c1
  Charge       = 0
  Multiplicity = 1
  Basis Set: AUG-CC-PVTZ
    Blend: AUG-CC-PVTZ
  Basis Set: (AUG-CC-PVTZ AUX)
    Blend: AUG-CC-PVTZ-JKFIT

    Orbital Energies [Eh]
    ---------------------

    Doubly Occupied:

       1A    -20.601097     2A    -20.597569     3A    -20.587494
       4A    -20.568117     5A    -20.565228     6A    -20.552826
       7A    -11.363674     8A    -11.305795     9A    -11.302005
      10A    -11.299609    11A    -11.295179    12A    -11.286557
      13A     -1.450492    14A     -1.391966    15A     -1.387059
      16A     -1.367935    17A     -1.355430    18A     -1.325415
      19A     -1.086683    20A     -1.056140    21A     -0.952583
      22A     -0.890755    23A     -0.848142    24A     -0.814176
      25A     -0.759453    26A     -0.739573    27A     -0.719520
      28A     -0.715446    29A     -0.690115    30A     -0.668252
      31A     -0.654713    32A     -0.636050    33A     -0.623512
      34A     -0.612540    35A     -0.598083    36A     -0.581799
      37A     -0.575767    38A     -0.561591    39A     -0.536761
      40A     -0.530324    41A     -0.526660    42A     -0.513647
      43A     -0.496473    44A     -0.486640    45A     -0.475780
      46A     -0.464934    47A     -0.448084    48A     -0.430343

  @DF-RHF Final Energy:  -683.59688715530513

   => Energetics <=

    Nuclear Repulsion Energy =            836.5685548561075393
    One-Electron Energy =               -2601.7349205703994812
    Two-Electron Energy =                1081.5694785589867024
    Total Energy =                       -683.5968871553052395
  Basis Set: (AUG-CC-PVTZ AUX)
    Blend: AUG-CC-PVTZ-RI
    Molecular point group: c1

    Geometry (in Angstrom), charge = 0, multiplicity = 1:

       Center              X                  Y                   Z               Mass
    ------------   -----------------  -----------------  -----------------  -----------------
         O           -0.850268758237     0.882264961929     0.271529793500    15.994914619570
         O           -0.312557758237    -1.658405038071     1.308811793500    15.994914619570
         O            2.101246241763    -1.967281038071    -0.181248206500    15.994914619570
         O            2.751761241763     0.770012961929    -0.443122206500    15.994914619570
         O            0.735576241763     2.522538961929     0.578908793500    15.994914619570
         O           -3.485192758237     0.534014961929    -0.456715206500    15.994914619570
         C           -0.238674758237    -1.409700038071    -0.090642206500    12.000000000000
         C            1.090464641763    -0.902684238071    -0.555441306500    12.000000000000
         C           -1.219705758237    -0.304003038071    -0.476363206500    12.000000000000
         C            1.504568241763     0.358541961929     0.110515793500    12.000000000000
         C            0.418697241763     1.382356961929    -0.163276206500    12.000000000000
         C           -2.665417758237    -0.575078038071    -0.109806206500    12.000000000000
         H           -0.492388758237    -2.354427038071    -0.585092206500     1.007825032230
         H            1.140638241763    -0.821630038071    -1.625188206500     1.007825032230
         H           -1.162509758237    -0.082607038071    -1.553654206500     1.007825032230
         H            1.582937241763     0.224013961929     1.198553793500     1.007825032230
         H            0.364859241763     1.599685961929    -1.244363206500     1.007825032230
         H           -2.731082758237    -0.815026038071     0.958218793500     1.007825032230
         H           -3.034978758237    -1.433518038071    -0.677127206500     1.007825032230
         H           -0.392311758237    -0.780450038071     1.727890793500     1.007825032230
         H            2.974296241763    -1.568099038071    -0.355161206500     1.007825032230
         H            3.006931241763     1.586293961929     0.023952793500     1.007825032230
         H            0.117176241763     3.230537961929     0.325050793500     1.007825032230
         H           -3.083615758237     1.296561961929    -0.003904206500     1.007825032230

  Basis Set: AUG-CC-PVTZ
    Blend: AUG-CC-PVTZ
  Basis Set: (AUG-CC-PVTZ AUX)
    Blend: AUG-CC-PVTZ-JKFIT
	 Reference Energy          =    -683.5968871553051258 [Eh]
	 Singles Energy            =      -0.0000000000000000 [Eh]
	 Same-Spin Energy          =      -0.6673070749542203 [Eh]
	 Opposite-Spin Energy      =      -2.0487346308850132 [Eh]
	 Correlation Energy        =      -2.7160417058392334 [Eh]
	 Total Energy              =    -686.3129288611443144 [Eh]

	 ================> DF-SCS-MP2 Energies <==================
	-----------------------------------------------------------
	 SCS Same-Spin Scale       =       0.3333333333333333 [-]
	 SCS Opposite-Spin Scale   =       1.2000000000000000 [-]
	 SCS Same-Spin Energy      =      -0.2224356916514068 [Eh]
	 SCS Opposite-Spin Energy  =      -2.4584815570620155 [Eh]
	 SCS Correlation Energy    =      -2.6809172487134223 [Eh]
	 SCS Total Energy          =    -686.2778044040185250 [Eh]
	-----------------------------------------------------------

  Dipole Moment: [D]
     X:     0.4153      Y:     3.3886      Z:    -1.1436     Total:     3.6004

*** Psi4 exiting successfully. Buy a developer a beer!
