                               Psi4 1.3.2 release

  ==> Input File <==

--------------------------------------------------------------------------
#psi4
#
memory 32 gb

molecule  {
0 1
  O       -0.8456270     0.8862080     0.2793150
  O       -0.3079160    -1.6544620     1.3165970
  O        2.1058880    -1.9633380    -0.1734630
  O        2.7564030     0.7739560    -0.4353370
  O        0.7402180     2.5264820     0.5866940
  O       -3.4805510     0.5379580    -0.4489300
  C       -0.2340330    -1.4057570    -0.0828570
  C        1.1618270    -0.9690140    -0.5229560
  C       -1.1895890    -0.2182593    -0.4170060
  C        1.5092100     0.3624850     0.1183010
  C        0.4233390     1.3863000    -0.1554910
  C       -2.6607760    -0.5711350    -0.1020210
  H       -0.4877470    -2.3504840    -0.5773070
  H        1.1452800    -0.8176870    -1.6174030
  H       -1.1578680    -0.0786640    -1.5458690
  H        1.5875790     0.2279570     1.2063390
  H        0.3695010     1.6036290    -1.2365780
  H       -2.7264410    -0.8110830     0.9660040
  H       -3.0303370    -1.4295750    -0.6693420
  H       -0.3876700    -0.7765070     1.7356760
  H        2.9789380    -1.5641560    -0.3473760
  H        3.0115730     1.5902370     0.0317380
  H        0.1218180     3.2344810     0.3328360
  H       -3.0789740     1.3005050     0.0038810
units angstrom
no_reorient  #important for SAPT in psi4, default
symmetry c1  #important for SAPT in psi4, default
}

set PROPERTIES_ORIGIN ["COM"]
properties('MP2/aug-cc-pvtz', properties = ['dipole'])
--------------------------------------------------------------------------

    Molecular point group: c1
  Charge       = 0
  Multiplicity = 1
  Basis Set: AUG-CC-PVTZ
    Blend: AUG-CC-PVTZ
  Basis Set: (AUG-CC-PVTZ AUX)
    Blend: AUG-CC-PVTZ-JKFIT

    Orbital Energies [Eh]
    ---------------------

    Doubly Occupied:

       1A    -20.605626     2A    -20.604754     3A    -20.587581
       4A    -20.563073     5A    -20.562953     6A    -20.562008
       7A    -11.368906     8A    -11.303345     9A    -11.301500
      10A    -11.293735    11A    -11.292893    12A    -11.283751
      13A     -1.471377    14A     -1.401881    15A     -1.392079
      16A     -1.368974    17A     -1.359369    18A     -1.353408
      19A     -1.070933    20A     -1.047114    21A     -0.944348
      22A     -0.891812    23A     -0.850668    24A     -0.810899
      25A     -0.763058    26A     -0.745076    27A     -0.723290
      28A     -0.716872    29A     -0.693891    30A     -0.667522
      31A     -0.658701    32A     -0.643491    33A     -0.624616
      34A     -0.621509    35A     -0.598808    36A     -0.581495
      37A     -0.579997    38A     -0.561767    39A     -0.543825
      40A     -0.539137    41A     -0.530613    42A     -0.517760
      43A     -0.496074    44A     -0.477483    45A     -0.467694
      46A     -0.457474    47A     -0.441662    48A     -0.418489

  @DF-RHF Final Energy:  -683.60152594395311

   => Energetics <=

    Nuclear Repulsion Energy =            837.3151558931829186
    One-Electron Energy =               -2603.1067799844654473
    Two-Electron Energy =                1082.1900981473293086
    Total Energy =                       -683.6015259439532201
  Basis Set: (AUG-CC-PVTZ AUX)
    Blend: AUG-CC-PVTZ-RI
    Molecular point group: c1

    Geometry (in Angstrom), charge = 0, multiplicity = 1:

       Center              X                  Y                   Z               Mass
    ------------   -----------------  -----------------  -----------------  -----------------
         O           -0.856412967849     0.881496705809     0.266446776849    15.994914619570
         O           -0.318701967849    -1.659173294191     1.303728776849    15.994914619570
         O            2.095102032151    -1.968049294191    -0.186331223151    15.994914619570
         O            2.745617032151     0.769244705809    -0.448205223151    15.994914619570
         O            0.729432032151     2.521770705809     0.573825776849    15.994914619570
         O           -3.491336967849     0.533246705809    -0.461798223151    15.994914619570
         C           -0.244818967849    -1.410468294191    -0.095725223151    12.000000000000
         C            1.151041032151    -0.973725294191    -0.535824223151    12.000000000000
         C           -1.200374967849    -0.222970594191    -0.429874223151    12.000000000000
         C            1.498424032151     0.357773705809     0.105432776849    12.000000000000
         C            0.412553032151     1.381588705809    -0.168359223151    12.000000000000
         C           -2.671561967849    -0.575846294191    -0.114889223151    12.000000000000
         H           -0.498532967849    -2.355195294191    -0.590175223151     1.007825032230
         H            1.134494032151    -0.822398294191    -1.630271223151     1.007825032230
         H           -1.168653967849    -0.083375294191    -1.558737223151     1.007825032230
         H            1.576793032151     0.223245705809     1.193470776849     1.007825032230
         H            0.358715032151     1.598917705809    -1.249446223151     1.007825032230
         H           -2.737226967849    -0.815794294191     0.953135776849     1.007825032230
         H           -3.041122967849    -1.434286294191    -0.682210223151     1.007825032230
         H           -0.398455967849    -0.781218294191     1.722807776849     1.007825032230
         H            2.968152032151    -1.568867294191    -0.360244223151     1.007825032230
         H            3.000787032151     1.585525705809     0.018869776849     1.007825032230
         H            0.111032032151     3.229769705809     0.319967776849     1.007825032230
         H           -3.089759967849     1.295793705809    -0.008987223151     1.007825032230

  Basis Set: AUG-CC-PVTZ
    Blend: AUG-CC-PVTZ
  Basis Set: (AUG-CC-PVTZ AUX)
    Blend: AUG-CC-PVTZ-JKFIT
	 Reference Energy          =    -683.6015259439531064 [Eh]
	 Singles Energy            =      -0.0000000000000000 [Eh]
	 Same-Spin Energy          =      -0.6662905175461190 [Eh]
	 Opposite-Spin Energy      =      -2.0452006175059951 [Eh]
	 Correlation Energy        =      -2.7114911350521140 [Eh]
	 Total Energy              =    -686.3130170790052489 [Eh]

	 ================> DF-SCS-MP2 Energies <==================
	-----------------------------------------------------------
	 SCS Same-Spin Scale       =       0.3333333333333333 [-]
	 SCS Opposite-Spin Scale   =       1.2000000000000000 [-]
	 SCS Same-Spin Energy      =      -0.2220968391820397 [Eh]
	 SCS Opposite-Spin Energy  =      -2.4542407410071942 [Eh]
	 SCS Correlation Energy    =      -2.6763375801892337 [Eh]
	 SCS Total Energy          =    -686.2778635241423899 [Eh]
	-----------------------------------------------------------

  Dipole Moment: [D]
     X:     0.8112      Y:     3.4188      Z:    -0.9620     Total:     3.6431

*** Psi4 exiting successfully. Buy a developer a beer!
