                               Psi4 1.3.2 release

  ==> Input File <==

--------------------------------------------------------------------------
#psi4
#
memory 32 gb

molecule  {
0 1
  O       -0.8456270     0.8862080     0.2793150
  O       -0.3079160    -1.6544620     1.3165970
  O        2.1058880    -1.9633380    -0.1734630
  O        2.7564030     0.7739560    -0.4353370
  O        0.7402180     2.5264820     0.5866940
  O       -3.4805510     0.5379580    -0.4489300
  C       -0.2340330    -1.4057570    -0.0828570
  C        1.2952681    -1.1095597    -0.4735559
  C       -1.2150640    -0.3000600    -0.4685780
  C        1.5092100     0.3624850     0.1183010
  C        0.4233390     1.3863000    -0.1554910
  C       -2.6607760    -0.5711350    -0.1020210
  H       -0.4877470    -2.3504840    -0.5773070
  H        1.1452800    -0.8176870    -1.6174030
  H       -1.1578680    -0.0786640    -1.5458690
  H        1.5875790     0.2279570     1.2063390
  H        0.3695010     1.6036290    -1.2365780
  H       -2.7264410    -0.8110830     0.9660040
  H       -3.0303370    -1.4295750    -0.6693420
  H       -0.3876700    -0.7765070     1.7356760
  H        2.9789380    -1.5641560    -0.3473760
  H        3.0115730     1.5902370     0.0317380
  H        0.1218180     3.2344810     0.3328360
  H       -3.0789740     1.3005050     0.0038810
units angstrom
no_reorient  #important for SAPT in psi4, default
symmetry c1  #important for SAPT in psi4, default
}

set PROPERTIES_ORIGIN ["COM"]
properties('MP2/aug-cc-pvtz', properties = ['dipole'])
--------------------------------------------------------------------------

    Molecular point group: c1
  Charge       = 0
  Multiplicity = 1
  Basis Set: AUG-CC-PVTZ
    Blend: AUG-CC-PVTZ
  Basis Set: (AUG-CC-PVTZ AUX)
    Blend: AUG-CC-PVTZ-JKFIT

    Orbital Energies [Eh]
    ---------------------

    Doubly Occupied:

       1A    -20.597721     2A    -20.590046     3A    -20.589436
       4A    -20.581044     5A    -20.562888     6A    -20.559701
       7A    -11.359996     8A    -11.304782     9A    -11.302806
      10A    -11.291924    11A    -11.291885    12A    -11.284318
      13A     -1.480905    14A     -1.442676    15A     -1.385498
      16A     -1.374266    17A     -1.362006    18A     -1.349998
      19A     -1.052550    20A     -1.036689    21A     -0.941736
      22A     -0.880081    23A     -0.856064    24A     -0.804801
      25A     -0.780624    26A     -0.732127    27A     -0.727285
      28A     -0.711568    29A     -0.692076    30A     -0.677403
      31A     -0.669800    32A     -0.659158    33A     -0.635958
      34A     -0.615107    35A     -0.603676    36A     -0.589611
      37A     -0.573835    38A     -0.567763    39A     -0.543962
      40A     -0.533205    41A     -0.525199    42A     -0.507630
      43A     -0.493551    44A     -0.479623    45A     -0.458467
      46A     -0.446631    47A     -0.411830    48A     -0.409406

  @DF-RHF Final Energy:  -683.56024923415760

   => Energetics <=

    Nuclear Repulsion Energy =            835.0797798582102587
    One-Electron Energy =               -2598.6214363103463256
    Two-Electron Energy =                1079.9814072179785853
    Total Energy =                       -683.5602492341574816
  Basis Set: (AUG-CC-PVTZ AUX)
    Blend: AUG-CC-PVTZ-RI
    Molecular point group: c1

    Geometry (in Angstrom), charge = 0, multiplicity = 1:

       Center              X                  Y                   Z               Mass
    ------------   -----------------  -----------------  -----------------  -----------------
         O           -0.863608174013     0.896314580936     0.266591519211    15.994914619570
         O           -0.325897174013    -1.644355419064     1.303873519211    15.994914619570
         O            2.087906825987    -1.953231419064    -0.186186480789    15.994914619570
         O            2.738421825987     0.784062580936    -0.448060480789    15.994914619570
         O            0.722236825987     2.536588580936     0.573970519211    15.994914619570
         O           -3.498532174013     0.548064580936    -0.461653480789    15.994914619570
         C           -0.252014174013    -1.395650419064    -0.095580480789    12.000000000000
         C            1.277286925987    -1.099453119064    -0.486279380789    12.000000000000
         C           -1.233045174013    -0.289953419064    -0.481301480789    12.000000000000
         C            1.491228825987     0.372591580936     0.105577519211    12.000000000000
         C            0.405357825987     1.396406580936    -0.168214480789    12.000000000000
         C           -2.678757174013    -0.561028419064    -0.114744480789    12.000000000000
         H           -0.505728174013    -2.340377419064    -0.590030480789     1.007825032230
         H            1.127298825987    -0.807580419064    -1.630126480789     1.007825032230
         H           -1.175849174013    -0.068557419064    -1.558592480789     1.007825032230
         H            1.569597825987     0.238063580936     1.193615519211     1.007825032230
         H            0.351519825987     1.613735580936    -1.249301480789     1.007825032230
         H           -2.744422174013    -0.800976419064     0.953280519211     1.007825032230
         H           -3.048318174013    -1.419468419064    -0.682065480789     1.007825032230
         H           -0.405651174013    -0.766400419064     1.722952519211     1.007825032230
         H            2.960956825987    -1.554049419064    -0.360099480789     1.007825032230
         H            2.993591825987     1.600343580936     0.019014519211     1.007825032230
         H            0.103836825987     3.244587580936     0.320112519211     1.007825032230
         H           -3.096955174013     1.310611580936    -0.008842480789     1.007825032230

  Basis Set: AUG-CC-PVTZ
    Blend: AUG-CC-PVTZ
  Basis Set: (AUG-CC-PVTZ AUX)
    Blend: AUG-CC-PVTZ-JKFIT
	 Reference Energy          =    -683.5602492341575953 [Eh]
	 Singles Energy            =      -0.0000000000000000 [Eh]
	 Same-Spin Energy          =      -0.6671212580123946 [Eh]
	 Opposite-Spin Energy      =      -2.0456316303758468 [Eh]
	 Correlation Energy        =      -2.7127528883882412 [Eh]
	 Total Energy              =    -686.2730021225457904 [Eh]

	 ================> DF-SCS-MP2 Energies <==================
	-----------------------------------------------------------
	 SCS Same-Spin Scale       =       0.3333333333333333 [-]
	 SCS Opposite-Spin Scale   =       1.2000000000000000 [-]
	 SCS Same-Spin Energy      =      -0.2223737526707982 [Eh]
	 SCS Opposite-Spin Energy  =      -2.4547579564510160 [Eh]
	 SCS Correlation Energy    =      -2.6771317091218143 [Eh]
	 SCS Total Energy          =    -686.2373809432793905 [Eh]
	-----------------------------------------------------------

  Dipole Moment: [D]
     X:     1.2929      Y:     2.5198      Z:    -0.8850     Total:     2.9672

*** Psi4 exiting successfully. Buy a developer a beer!
