                               Psi4 1.3.2 release

  ==> Input File <==

--------------------------------------------------------------------------
#psi4
#
memory 32 gb

molecule  {
0 1
  O       -0.8456270     0.8862080     0.2793150
  O       -0.3079160    -1.6544620     1.3165970
  O        2.1058880    -1.9633380    -0.1734630
  O        2.7564030     0.7739560    -0.4353370
  O        0.7402180     2.5264820     0.5866940
  O       -3.5003399     0.5257857    -0.4401952
  C       -0.2340330    -1.4057570    -0.0828570
  C        1.1618270    -0.9690140    -0.5229560
  C       -1.2150640    -0.3000600    -0.4685780
  C        1.5092100     0.3624850     0.1183010
  C        0.4233390     1.3863000    -0.1554910
  C       -2.6607760    -0.5711350    -0.1020210
  H       -0.4877470    -2.3504840    -0.5773070
  H        1.1452800    -0.8176870    -1.6174030
  H       -1.1578680    -0.0786640    -1.5458690
  H        1.5875790     0.2279570     1.2063390
  H        0.3695010     1.6036290    -1.2365780
  H       -2.7264410    -0.8110830     0.9660040
  H       -3.0303370    -1.4295750    -0.6693420
  H       -0.3876700    -0.7765070     1.7356760
  H        2.9789380    -1.5641560    -0.3473760
  H        3.0115730     1.5902370     0.0317380
  H        0.1218180     3.2344810     0.3328360
  H       -3.0789740     1.3005050     0.0038810
units angstrom
no_reorient  #important for SAPT in psi4, default
symmetry c1  #important for SAPT in psi4, default
}

set PROPERTIES_ORIGIN ["COM"]
properties('MP2/aug-cc-pvtz', properties = ['dipole'])
--------------------------------------------------------------------------

    Molecular point group: c1
  Charge       = 0
  Multiplicity = 1
  Basis Set: AUG-CC-PVTZ
    Blend: AUG-CC-PVTZ
  Basis Set: (AUG-CC-PVTZ AUX)
    Blend: AUG-CC-PVTZ-JKFIT

    Orbital Energies [Eh]
    ---------------------

    Doubly Occupied:

       1A    -20.600415     2A    -20.595528     3A    -20.585626
       4A    -20.566044     5A    -20.565378     6A    -20.564348
       7A    -11.362836     8A    -11.305376     9A    -11.299242
      10A    -11.297405    11A    -11.295196    12A    -11.285410
      13A     -1.448557    14A     -1.392178    15A     -1.388970
      16A     -1.366935    17A     -1.356157    18A     -1.351895
      19A     -1.073235    20A     -1.051651    21A     -0.948250
      22A     -0.887736    23A     -0.847971    24A     -0.809055
      25A     -0.759920    26A     -0.737179    27A     -0.721909
      28A     -0.714285    29A     -0.688145    30A     -0.665887
      31A     -0.658809    32A     -0.640185    33A     -0.623480
      34A     -0.618906    35A     -0.597493    36A     -0.580669
      37A     -0.576120    38A     -0.563249    39A     -0.540213
      40A     -0.535321    41A     -0.528693    42A     -0.512190
      43A     -0.495584    44A     -0.483716    45A     -0.469925
      46A     -0.460240    47A     -0.444708    48A     -0.430455

  @DF-RHF Final Energy:  -683.60712507360734

   => Energetics <=

    Nuclear Repulsion Energy =            835.5630177967012742
    One-Electron Energy =               -2599.7549335365333718
    Two-Electron Energy =                1080.5847906662247624
    Total Energy =                       -683.6071250736072216
  Basis Set: (AUG-CC-PVTZ AUX)
    Blend: AUG-CC-PVTZ-RI
    Molecular point group: c1

    Geometry (in Angstrom), charge = 0, multiplicity = 1:

       Center              X                  Y                   Z               Mass
    ------------   -----------------  -----------------  -----------------  -----------------
         O           -0.852957397161     0.888029423601     0.269107793199    15.994914619570
         O           -0.315246397161    -1.652640576399     1.306389793199    15.994914619570
         O            2.098557602839    -1.961516576399    -0.183670206801    15.994914619570
         O            2.749072602839     0.775777423601    -0.445544206801    15.994914619570
         O            0.732887602839     2.528303423601     0.576486793199    15.994914619570
         O           -3.507670297161     0.527607123601    -0.450402406801    15.994914619570
         C           -0.241363397161    -1.403935576399    -0.093064206801    12.000000000000
         C            1.154496602839    -0.967192576399    -0.533163206801    12.000000000000
         C           -1.222394397161    -0.298238576399    -0.478785206801    12.000000000000
         C            1.501879602839     0.364306423601     0.108093793199    12.000000000000
         C            0.416008602839     1.388121423601    -0.165698206801    12.000000000000
         C           -2.668106397161    -0.569313576399    -0.112228206801    12.000000000000
         H           -0.495077397161    -2.348662576399    -0.587514206801     1.007825032230
         H            1.137949602839    -0.815865576399    -1.627610206801     1.007825032230
         H           -1.165198397161    -0.076842576399    -1.556076206801     1.007825032230
         H            1.580248602839     0.229778423601     1.196131793199     1.007825032230
         H            0.362170602839     1.605450423601    -1.246785206801     1.007825032230
         H           -2.733771397161    -0.809261576399     0.955796793199     1.007825032230
         H           -3.037667397161    -1.427753576399    -0.679549206801     1.007825032230
         H           -0.395000397161    -0.774685576399     1.725468793199     1.007825032230
         H            2.971607602839    -1.562334576399    -0.357583206801     1.007825032230
         H            3.004242602839     1.592058423601     0.021530793199     1.007825032230
         H            0.114487602839     3.236302423601     0.322628793199     1.007825032230
         H           -3.086304397161     1.302326423601    -0.006326206801     1.007825032230

  Basis Set: AUG-CC-PVTZ
    Blend: AUG-CC-PVTZ
  Basis Set: (AUG-CC-PVTZ AUX)
    Blend: AUG-CC-PVTZ-JKFIT
	 Reference Energy          =    -683.6071250736073353 [Eh]
	 Singles Energy            =      -0.0000000000000000 [Eh]
	 Same-Spin Energy          =      -0.6665227065278783 [Eh]
	 Opposite-Spin Energy      =      -2.0466717319481322 [Eh]
	 Correlation Energy        =      -2.7131944384760107 [Eh]
	 Total Energy              =    -686.3203195120833016 [Eh]

	 ================> DF-SCS-MP2 Energies <==================
	-----------------------------------------------------------
	 SCS Same-Spin Scale       =       0.3333333333333333 [-]
	 SCS Opposite-Spin Scale   =       1.2000000000000000 [-]
	 SCS Same-Spin Energy      =      -0.2221742355092927 [Eh]
	 SCS Opposite-Spin Energy  =      -2.4560060783377584 [Eh]
	 SCS Correlation Energy    =      -2.6781803138470512 [Eh]
	 SCS Total Energy          =    -686.2853053874544003 [Eh]
	-----------------------------------------------------------

  Dipole Moment: [D]
     X:     0.7180      Y:     3.1772      Z:    -1.1238     Total:     3.4457

*** Psi4 exiting successfully. Buy a developer a beer!
