                               Psi4 1.4a3.dev225

  ==> Input File <==

--------------------------------------------------------------------------
#psi4
#
memory 32 gb

molecule  {
0 1
  O       -0.8456650     0.8861440     0.2793920
  O       -0.3077290    -1.6543970     1.3165920
  O        2.1058490    -1.9633390    -0.1734930
  O        2.7563870     0.7740080    -0.4352340
  O        0.7401070     2.5265290     0.5865970
  O       -3.4805150     0.5379850    -0.4487790
  C       -0.2340150    -1.4057960    -0.0828600
  C        1.1618410    -0.9690160    -0.5229920
  C       -1.2278195    -0.3410213    -0.4943722
  C        1.5091960     0.3624950     0.1183140
  C        0.4232960     1.3863010    -0.1554910
  C       -2.6608140    -0.5711940    -0.1020800
  H       -0.4877200    -2.3505680    -0.5772350
  H        1.1452880    -0.8176810    -1.6174430
  H       -1.1578130    -0.0786490    -1.5458470
  H        1.5874550     0.2279380     1.2063560
  H        0.3693510     1.6035860    -1.2365730
  H       -2.7265370    -0.8113720     0.9658980
  H       -3.0304070    -1.4295080    -0.6695770
  H       -0.3878110    -0.7763940     1.7355090
  H        2.9789120    -1.5642300    -0.3474430
  H        3.0116250     1.5901680     0.0320000
  H        0.1223170     3.2347930     0.3320250
  H       -3.0786550     1.3004670     0.0038890
units angstrom
no_reorient  #important for SAPT in psi4, default
symmetry c1  #important for SAPT in psi4, default
}

set PROPERTIES_ORIGIN ["COM"]
properties('MP2/aug-cc-pvtz', properties = ['dipole'])
--------------------------------------------------------------------------

    Molecular point group: c1
  Charge       = 0
  Multiplicity = 1
  Basis Set: AUG-CC-PVTZ
    Blend: AUG-CC-PVTZ
  Basis Set: (AUG-CC-PVTZ AUX)
    Blend: AUG-CC-PVTZ-JKFIT

    Orbital Energies [Eh]
    ---------------------

    Doubly Occupied:

       1A    -20.597791     2A    -20.589159     3A    -20.584343
       4A    -20.566398     5A    -20.565843     6A    -20.564585
       7A    -11.359365     8A    -11.306718     9A    -11.298679
      10A    -11.297776    11A    -11.295821    12A    -11.287243
      13A     -1.440623    14A     -1.391032    15A     -1.385554
      16A     -1.367784    17A     -1.356104    18A     -1.347411
      19A     -1.076013    20A     -1.052367    21A     -0.950916
      22A     -0.886200    23A     -0.847652    24A     -0.808228
      25A     -0.758419    26A     -0.733760    27A     -0.722856
      28A     -0.712672    29A     -0.687112    30A     -0.665230
      31A     -0.658949    32A     -0.638813    33A     -0.624829
      34A     -0.616885    35A     -0.598803    36A     -0.581194
      37A     -0.573850    38A     -0.562447    39A     -0.539453
      40A     -0.535302    41A     -0.524676    42A     -0.506737
      43A     -0.494409    44A     -0.486324    45A     -0.472586
      46A     -0.459369    47A     -0.444883    48A     -0.433958

  @DF-RHF Final Energy:  -683.60497582418668

   => Energetics <=

    Nuclear Repulsion Energy =            835.2741723350220582
    One-Electron Energy =               -2599.2440525804481695
    Two-Electron Energy =                1080.3649044212395438
    Total Energy =                       -683.6049758241865675
  Basis Set: (AUG-CC-PVTZ AUX)
    Blend: AUG-CC-PVTZ-RI
    Molecular point group: c1

    Geometry (in Angstrom), charge = 0, multiplicity = 1:

       Center              X                  Y                   Z               Mass
    ------------   -----------------  -----------------  -----------------  -----------------
         O           -0.853902630071     0.889609273306     0.271673516392    15.994914619570
         O           -0.315966630071    -1.650931726694     1.308873516392    15.994914619570
         O            2.097611369929    -1.959873726694    -0.181211483608    15.994914619570
         O            2.748149369929     0.777473273306    -0.442952483608    15.994914619570
         O            0.731869369929     2.529994273306     0.578878516392    15.994914619570
         O           -3.488752630071     0.541450273306    -0.456497483608    15.994914619570
         C           -0.242252630071    -1.402330726694    -0.090578483608    12.000000000000
         C            1.153603369929    -0.965550726694    -0.530710483608    12.000000000000
         C           -1.236057130071    -0.337556026694    -0.502090683608    12.000000000000
         C            1.500958369929     0.365960273306     0.110595516392    12.000000000000
         C            0.415058369929     1.389766273306    -0.163209483608    12.000000000000
         C           -2.669051630071    -0.567728726694    -0.109798483608    12.000000000000
         H           -0.495957630071    -2.347102726694    -0.584953483608     1.007825032230
         H            1.137050369929    -0.814215726694    -1.625161483608     1.007825032230
         H           -1.166050630071    -0.075183726694    -1.553565483608     1.007825032230
         H            1.579217369929     0.231403273306     1.198637516392     1.007825032230
         H            0.361113369929     1.607051273306    -1.244291483608     1.007825032230
         H           -2.734774630071    -0.807906726694     0.958179516392     1.007825032230
         H           -3.038644630071    -1.426042726694    -0.677295483608     1.007825032230
         H           -0.396048630071    -0.772928726694     1.727790516392     1.007825032230
         H            2.970674369929    -1.560764726694    -0.355161483608     1.007825032230
         H            3.003387369929     1.593633273306     0.024281516392     1.007825032230
         H            0.114079369929     3.238258273306     0.324306516392     1.007825032230
         H           -3.086892630071     1.303932273306    -0.003829483608     1.007825032230

  Basis Set: AUG-CC-PVTZ
    Blend: AUG-CC-PVTZ
  Basis Set: (AUG-CC-PVTZ AUX)
    Blend: AUG-CC-PVTZ-JKFIT
	 Reference Energy          =    -683.6049758241866812 [Eh]
	 Singles Energy            =      -0.0000000000000000 [Eh]
	 Same-Spin Energy          =      -0.6666420643159494 [Eh]
	 Opposite-Spin Energy      =      -2.0471080459150106 [Eh]
	 Correlation Energy        =      -2.7137501102309600 [Eh]
	 Total Energy              =    -686.3187259344176709 [Eh]

	 ================> DF-SCS-MP2 Energies <==================
	-----------------------------------------------------------
	 SCS Same-Spin Scale       =       0.3333333333333333 [-]
	 SCS Opposite-Spin Scale   =       1.2000000000000000 [-]
	 SCS Same-Spin Energy      =      -0.2222140214386498 [Eh]
	 SCS Opposite-Spin Energy  =      -2.4565296550980125 [Eh]
	 SCS Correlation Energy    =      -2.6787436765366621 [Eh]
	 SCS Total Energy          =    -686.2837195007233504 [Eh]
	-----------------------------------------------------------

  Dipole Moment: [D]
     X:     0.5933      Y:     3.0314      Z:    -1.1582     Total:     3.2990

*** Psi4 exiting successfully. Buy a developer a beer!
