                               Psi4 1.4a3.dev225

  ==> Input File <==

--------------------------------------------------------------------------
#psi4
#
memory 32 gb

molecule  {
0 1
  O       -0.8456650     0.8861440     0.2793920
  O       -0.3077290    -1.6543970     1.3165920
  O        2.1058490    -1.9633390    -0.1734930
  O        2.7563870     0.7740080    -0.4352340
  O        0.7401070     2.5265290     0.5865970
  O       -3.4805150     0.5379850    -0.4487790
  C       -0.2340150    -1.4057960    -0.0828600
  C        1.1484973    -0.9549611    -0.5279322
  C       -1.2150830    -0.3001220    -0.4685840
  C        1.5091960     0.3624950     0.1183140
  C        0.4232960     1.3863010    -0.1554910
  C       -2.6608140    -0.5711940    -0.1020800
  H       -0.4877200    -2.3505680    -0.5772350
  H        1.1452880    -0.8176810    -1.6174430
  H       -1.1578130    -0.0786490    -1.5458470
  H        1.5874550     0.2279380     1.2063560
  H        0.3693510     1.6035860    -1.2365730
  H       -2.7265370    -0.8113720     0.9658980
  H       -3.0304070    -1.4295080    -0.6695770
  H       -0.3878110    -0.7763940     1.7355090
  H        2.9789120    -1.5642300    -0.3474430
  H        3.0116250     1.5901680     0.0320000
  H        0.1223170     3.2347930     0.3320250
  H       -3.0786550     1.3004670     0.0038890
units angstrom
no_reorient  #important for SAPT in psi4, default
symmetry c1  #important for SAPT in psi4, default
}

set PROPERTIES_ORIGIN ["COM"]
properties('MP2/aug-cc-pvtz', properties = ['dipole'])
--------------------------------------------------------------------------

    Molecular point group: c1
  Charge       = 0
  Multiplicity = 1
  Basis Set: AUG-CC-PVTZ
    Blend: AUG-CC-PVTZ
  Basis Set: (AUG-CC-PVTZ AUX)
    Blend: AUG-CC-PVTZ-JKFIT

    Orbital Energies [Eh]
    ---------------------

    Doubly Occupied:

       1A    -20.600351     2A    -20.595523     3A    -20.585823
       4A    -20.565782     5A    -20.564636     6A    -20.561900
       7A    -11.362736     8A    -11.304927     9A    -11.299573
      10A    -11.297450    11A    -11.294673    12A    -11.285983
      13A     -1.448661    14A     -1.391047    15A     -1.388542
      16A     -1.367491    17A     -1.354958    18A     -1.348987
      19A     -1.075637    20A     -1.052463    21A     -0.949501
      22A     -0.888165    23A     -0.848345    24A     -0.809782
      25A     -0.759217    26A     -0.737500    27A     -0.721360
      28A     -0.714483    29A     -0.689704    30A     -0.666170
      31A     -0.657133    32A     -0.639868    33A     -0.622514
      34A     -0.618006    35A     -0.598533    36A     -0.580746
      37A     -0.575822    38A     -0.562284    39A     -0.538938
      40A     -0.534339    41A     -0.528588    42A     -0.512330
      43A     -0.495985    44A     -0.483916    45A     -0.471595
      46A     -0.461514    47A     -0.445681    48A     -0.430534

  @DF-RHF Final Energy:  -683.60746756646608

   => Energetics <=

    Nuclear Repulsion Energy =            836.0633332153870469
    One-Electron Energy =               -2600.7622073816123702
    Two-Electron Energy =                1081.0914065997592388
    Total Energy =                       -683.6074675664660845
  Basis Set: (AUG-CC-PVTZ AUX)
    Blend: AUG-CC-PVTZ-RI
    Molecular point group: c1

    Geometry (in Angstrom), charge = 0, multiplicity = 1:

       Center              X                  Y                   Z               Mass
    ------------   -----------------  -----------------  -----------------  -----------------
         O           -0.853862164321     0.885946949683     0.270284139004    15.994914619570
         O           -0.315926164321    -1.654594050317     1.307484139004    15.994914619570
         O            2.097651835679    -1.963536050317    -0.182600860996    15.994914619570
         O            2.748189835679     0.773810949683    -0.444341860996    15.994914619570
         O            0.731909835679     2.526331949683     0.577489139004    15.994914619570
         O           -3.488712164321     0.537787949683    -0.457886860996    15.994914619570
         C           -0.242212164321    -1.405993050317    -0.091967860996    12.000000000000
         C            1.140300135679    -0.955158150317    -0.537040060996    12.000000000000
         C           -1.223280164321    -0.300319050317    -0.477691860996    12.000000000000
         C            1.500998835679     0.362297949683     0.109206139004    12.000000000000
         C            0.415098835679     1.386103949683    -0.164598860996    12.000000000000
         C           -2.669011164321    -0.571391050317    -0.111187860996    12.000000000000
         H           -0.495917164321    -2.350765050317    -0.586342860996     1.007825032230
         H            1.137090835679    -0.817878050317    -1.626550860996     1.007825032230
         H           -1.166010164321    -0.078846050317    -1.554954860996     1.007825032230
         H            1.579257835679     0.227740949683     1.197248139004     1.007825032230
         H            0.361153835679     1.603388949683    -1.245680860996     1.007825032230
         H           -2.734734164321    -0.811569050317     0.956790139004     1.007825032230
         H           -3.038604164321    -1.429705050317    -0.678684860996     1.007825032230
         H           -0.396008164321    -0.776591050317     1.726401139004     1.007825032230
         H            2.970714835679    -1.564427050317    -0.356550860996     1.007825032230
         H            3.003427835679     1.589970949683     0.022892139004     1.007825032230
         H            0.114119835679     3.234595949683     0.322917139004     1.007825032230
         H           -3.086852164321     1.300269949683    -0.005218860996     1.007825032230

  Basis Set: AUG-CC-PVTZ
    Blend: AUG-CC-PVTZ
  Basis Set: (AUG-CC-PVTZ AUX)
    Blend: AUG-CC-PVTZ-JKFIT
	 Reference Energy          =    -683.6074675664660845 [Eh]
	 Singles Energy            =      -0.0000000000000000 [Eh]
	 Same-Spin Energy          =      -0.6664627765501021 [Eh]
	 Opposite-Spin Energy      =      -2.0465740881718144 [Eh]
	 Correlation Energy        =      -2.7130368647219165 [Eh]
	 Total Energy              =    -686.3205044311880556 [Eh]

	 ================> DF-SCS-MP2 Energies <==================
	-----------------------------------------------------------
	 SCS Same-Spin Scale       =       0.3333333333333333 [-]
	 SCS Opposite-Spin Scale   =       1.2000000000000000 [-]
	 SCS Same-Spin Energy      =      -0.2221542588500340 [Eh]
	 SCS Opposite-Spin Energy  =      -2.4558889058061770 [Eh]
	 SCS Correlation Energy    =      -2.6780431646562111 [Eh]
	 SCS Total Energy          =    -686.2855107311222582 [Eh]
	-----------------------------------------------------------

  Dipole Moment: [D]
     X:     0.6138      Y:     3.2057      Z:    -1.1117     Total:     3.4481

*** Psi4 exiting successfully. Buy a developer a beer!
