                               Psi4 1.3.2 release

  ==> Input File <==

--------------------------------------------------------------------------
#psi4
#
memory 32 gb

molecule  {
0 1
  O       -0.8456270     0.8862080     0.2793150
  O       -0.3079160    -1.6544620     1.3165970
  O        2.1058880    -1.9633380    -0.1734630
  O        2.7564030     0.7739560    -0.4353370
  O        0.7402180     2.5264820     0.5866940
  O       -3.4805510     0.5379580    -0.4489300
  C       -0.2272306    -1.5039364    -0.0964197
  C        1.1618270    -0.9690140    -0.5229560
  C       -1.2150640    -0.3000600    -0.4685780
  C        1.5092100     0.3624850     0.1183010
  C        0.4233390     1.3863000    -0.1554910
  C       -2.6607760    -0.5711350    -0.1020210
  H       -0.4877470    -2.3504840    -0.5773070
  H        1.1452800    -0.8176870    -1.6174030
  H       -1.1578680    -0.0786640    -1.5458690
  H        1.5875790     0.2279570     1.2063390
  H        0.3695010     1.6036290    -1.2365780
  H       -2.7264410    -0.8110830     0.9660040
  H       -3.0303370    -1.4295750    -0.6693420
  H       -0.3876700    -0.7765070     1.7356760
  H        2.9789380    -1.5641560    -0.3473760
  H        3.0115730     1.5902370     0.0317380
  H        0.1218180     3.2344810     0.3328360
  H       -3.0789740     1.3005050     0.0038810
units angstrom
no_reorient  #important for SAPT in psi4, default
symmetry c1  #important for SAPT in psi4, default
}

set PROPERTIES_ORIGIN ["COM"]
properties('MP2/aug-cc-pvtz', properties = ['dipole'])
--------------------------------------------------------------------------

    Molecular point group: c1
  Charge       = 0
  Multiplicity = 1
  Basis Set: AUG-CC-PVTZ
    Blend: AUG-CC-PVTZ
  Basis Set: (AUG-CC-PVTZ AUX)
    Blend: AUG-CC-PVTZ-JKFIT

    Orbital Energies [Eh]
    ---------------------

    Doubly Occupied:

       1A    -20.599958     2A    -20.596143     3A    -20.586367
       4A    -20.562498     5A    -20.562472     6A    -20.562446
       7A    -11.362235     8A    -11.304974     9A    -11.300326
      10A    -11.296846    11A    -11.295517    12A    -11.283648
      13A     -1.447053    14A     -1.392291    15A     -1.386436
      16A     -1.366537    17A     -1.355520    18A     -1.350481
      19A     -1.065426    20A     -1.046631    21A     -0.949146
      22A     -0.891526    23A     -0.843990    24A     -0.811589
      25A     -0.763152    26A     -0.734461    27A     -0.718031
      28A     -0.712043    29A     -0.688575    30A     -0.667967
      31A     -0.661292    32A     -0.643283    33A     -0.619140
      34A     -0.615586    35A     -0.597741    36A     -0.595157
      37A     -0.573493    38A     -0.561748    39A     -0.539908
      40A     -0.532002    41A     -0.529337    42A     -0.511996
      43A     -0.494764    44A     -0.479630    45A     -0.468612
      46A     -0.458585    47A     -0.446298    48A     -0.419137

  @DF-RHF Final Energy:  -683.59750009715731

   => Energetics <=

    Nuclear Repulsion Energy =            834.1241900131697093
    One-Electron Energy =               -2596.9393941662524412
    Two-Electron Energy =                1079.2177040559254237
    Total Energy =                       -683.5975000971573081
  Basis Set: (AUG-CC-PVTZ AUX)
    Blend: AUG-CC-PVTZ-RI
    Molecular point group: c1

    Geometry (in Angstrom), charge = 0, multiplicity = 1:

       Center              X                  Y                   Z               Mass
    ------------   -----------------  -----------------  -----------------  -----------------
         O           -0.855168566073     0.893491155223     0.270787561549    15.994914619570
         O           -0.317457566073    -1.647178844777     1.308069561549    15.994914619570
         O            2.096346433927    -1.956054844777    -0.181990438451    15.994914619570
         O            2.746861433927     0.781239155223    -0.443864438451    15.994914619570
         O            0.730676433927     2.533765155223     0.578166561549    15.994914619570
         O           -3.490092566073     0.545241155223    -0.457457438451    15.994914619570
         C           -0.236772166073    -1.496653244777    -0.104947138451    12.000000000000
         C            1.152285433927    -0.961730844777    -0.531483438451    12.000000000000
         C           -1.224605566073    -0.292776844777    -0.477105438451    12.000000000000
         C            1.499668433927     0.369768155223     0.109773561549    12.000000000000
         C            0.413797433927     1.393583155223    -0.164018438451    12.000000000000
         C           -2.670317566073    -0.563851844777    -0.110548438451    12.000000000000
         H           -0.497288566073    -2.343200844777    -0.585834438451     1.007825032230
         H            1.135738433927    -0.810403844777    -1.625930438451     1.007825032230
         H           -1.167409566073    -0.071380844777    -1.554396438451     1.007825032230
         H            1.578037433927     0.235240155223     1.197811561549     1.007825032230
         H            0.359959433927     1.610912155223    -1.245105438451     1.007825032230
         H           -2.735982566073    -0.803799844777     0.957476561549     1.007825032230
         H           -3.039878566073    -1.422291844777    -0.677869438451     1.007825032230
         H           -0.397211566073    -0.769223844777     1.727148561549     1.007825032230
         H            2.969396433927    -1.556872844777    -0.355903438451     1.007825032230
         H            3.002031433927     1.597520155223     0.023210561549     1.007825032230
         H            0.112276433927     3.241764155223     0.324308561549     1.007825032230
         H           -3.088515566073     1.307788155223    -0.004646438451     1.007825032230

  Basis Set: AUG-CC-PVTZ
    Blend: AUG-CC-PVTZ
  Basis Set: (AUG-CC-PVTZ AUX)
    Blend: AUG-CC-PVTZ-JKFIT
	 Reference Energy          =    -683.5975000971573081 [Eh]
	 Singles Energy            =      -0.0000000000000000 [Eh]
	 Same-Spin Energy          =      -0.6657942484768765 [Eh]
	 Opposite-Spin Energy      =      -2.0458898455042602 [Eh]
	 Correlation Energy        =      -2.7116840939811366 [Eh]
	 Total Energy              =    -686.3091841911384563 [Eh]

	 ================> DF-SCS-MP2 Energies <==================
	-----------------------------------------------------------
	 SCS Same-Spin Scale       =       0.3333333333333333 [-]
	 SCS Opposite-Spin Scale   =       1.2000000000000000 [-]
	 SCS Same-Spin Energy      =      -0.2219314161589588 [Eh]
	 SCS Opposite-Spin Energy  =      -2.4550678146051124 [Eh]
	 SCS Correlation Energy    =      -2.6769992307640713 [Eh]
	 SCS Total Energy          =    -686.2744993279213759 [Eh]
	-----------------------------------------------------------

  Dipole Moment: [D]
     X:     0.7136      Y:     3.0716      Z:    -1.1197     Total:     3.3463

*** Psi4 exiting successfully. Buy a developer a beer!
