                               Psi4 1.3.2 release

  ==> Input File <==

--------------------------------------------------------------------------
#psi4
#
memory 32 gb

molecule  {
0 1
  O       -0.8416266     0.8493884     0.2457707
  O       -0.3079160    -1.6544620     1.3165970
  O        2.1058880    -1.9633380    -0.1734630
  O        2.7564030     0.7739560    -0.4353370
  O        0.7402180     2.5264820     0.5866940
  O       -3.4805510     0.5379580    -0.4489300
  C       -0.2340330    -1.4057570    -0.0828570
  C        1.1618270    -0.9690140    -0.5229560
  C       -1.2150640    -0.3000600    -0.4685780
  C        1.5092100     0.3624850     0.1183010
  C        0.4233390     1.3863000    -0.1554910
  C       -2.6607760    -0.5711350    -0.1020210
  H       -0.4877470    -2.3504840    -0.5773070
  H        1.1452800    -0.8176870    -1.6174030
  H       -1.1578680    -0.0786640    -1.5458690
  H        1.5875790     0.2279570     1.2063390
  H        0.3695010     1.6036290    -1.2365780
  H       -2.7264410    -0.8110830     0.9660040
  H       -3.0303370    -1.4295750    -0.6693420
  H       -0.3876700    -0.7765070     1.7356760
  H        2.9789380    -1.5641560    -0.3473760
  H        3.0115730     1.5902370     0.0317380
  H        0.1218180     3.2344810     0.3328360
  H       -3.0789740     1.3005050     0.0038810
units angstrom
no_reorient  #important for SAPT in psi4, default
symmetry c1  #important for SAPT in psi4, default
}

set PROPERTIES_ORIGIN ["COM"]
properties('MP2/aug-cc-pvtz', properties = ['dipole'])
--------------------------------------------------------------------------

    Molecular point group: c1
  Charge       = 0
  Multiplicity = 1
  Basis Set: AUG-CC-PVTZ
    Blend: AUG-CC-PVTZ
  Basis Set: (AUG-CC-PVTZ AUX)
    Blend: AUG-CC-PVTZ-JKFIT

    Orbital Energies [Eh]
    ---------------------

    Doubly Occupied:

       1A    -20.604179     2A    -20.593723     3A    -20.585308
       4A    -20.564437     5A    -20.564262     6A    -20.563586
       7A    -11.364811     8A    -11.300454     9A    -11.299026
      10A    -11.294437    11A    -11.293795    12A    -11.284393
      13A     -1.454721    14A     -1.395445    15A     -1.391254
      16A     -1.368189    17A     -1.358432    18A     -1.353015
      19A     -1.070503    20A     -1.054528    21A     -0.947930
      22A     -0.888984    23A     -0.849981    24A     -0.809254
      25A     -0.761523    26A     -0.740244    27A     -0.723556
      28A     -0.714858    29A     -0.692114    30A     -0.667011
      31A     -0.658717    32A     -0.640425    33A     -0.624151
      34A     -0.620962    35A     -0.597881    36A     -0.580522
      37A     -0.578319    38A     -0.562060    39A     -0.540374
      40A     -0.535006    41A     -0.531349    42A     -0.513427
      43A     -0.494688    44A     -0.481480    45A     -0.468731
      46A     -0.459251    47A     -0.443755    48A     -0.427426

  @DF-RHF Final Energy:  -683.60862920037368

   => Energetics <=

    Nuclear Repulsion Energy =            837.1346670864696762
    One-Electron Energy =               -2602.8616382742698079
    Two-Electron Energy =                1082.1183419874266747
    Total Energy =                       -683.6086292003735707
  Basis Set: (AUG-CC-PVTZ AUX)
    Blend: AUG-CC-PVTZ-RI
    Molecular point group: c1

    Geometry (in Angstrom), charge = 0, multiplicity = 1:

       Center              X                  Y                   Z               Mass
    ------------   -----------------  -----------------  -----------------  -----------------
         O           -0.851070185335     0.853399227362     0.239319118381    15.994914619570
         O           -0.317359585335    -1.650451172638     1.310145418381    15.994914619570
         O            2.096444414665    -1.959327172638    -0.179914581619    15.994914619570
         O            2.746959414665     0.777966827362    -0.441788581619    15.994914619570
         O            0.730774414665     2.530492827362     0.580242418381    15.994914619570
         O           -3.489994585335     0.541968827362    -0.455381581619    15.994914619570
         C           -0.243476585335    -1.401746172638    -0.089308581619    12.000000000000
         C            1.152383414665    -0.965003172638    -0.529407581619    12.000000000000
         C           -1.224507585335    -0.296049172638    -0.475029581619    12.000000000000
         C            1.499766414665     0.366495827362     0.111849418381    12.000000000000
         C            0.413895414665     1.390310827362    -0.161942581619    12.000000000000
         C           -2.670219585335    -0.567124172638    -0.108472581619    12.000000000000
         H           -0.497190585335    -2.346473172638    -0.583758581619     1.007825032230
         H            1.135836414665    -0.813676172638    -1.623854581619     1.007825032230
         H           -1.167311585335    -0.074653172638    -1.552320581619     1.007825032230
         H            1.578135414665     0.231967827362     1.199887418381     1.007825032230
         H            0.360057414665     1.607639827362    -1.243029581619     1.007825032230
         H           -2.735884585335    -0.807072172638     0.959552418381     1.007825032230
         H           -3.039780585335    -1.425564172638    -0.675793581619     1.007825032230
         H           -0.397113585335    -0.772496172638     1.729224418381     1.007825032230
         H            2.969494414665    -1.560145172638    -0.353827581619     1.007825032230
         H            3.002129414665     1.594247827362     0.025286418381     1.007825032230
         H            0.112374414665     3.238491827362     0.326384418381     1.007825032230
         H           -3.088417585335     1.304515827362    -0.002570581619     1.007825032230

  Basis Set: AUG-CC-PVTZ
    Blend: AUG-CC-PVTZ
  Basis Set: (AUG-CC-PVTZ AUX)
    Blend: AUG-CC-PVTZ-JKFIT
	 Reference Energy          =    -683.6086292003736844 [Eh]
	 Singles Energy            =      -0.0000000000000000 [Eh]
	 Same-Spin Energy          =      -0.6661516425345200 [Eh]
	 Opposite-Spin Energy      =      -2.0450238401123708 [Eh]
	 Correlation Energy        =      -2.7111754826468908 [Eh]
	 Total Energy              =    -686.3198046830206067 [Eh]

	 ================> DF-SCS-MP2 Energies <==================
	-----------------------------------------------------------
	 SCS Same-Spin Scale       =       0.3333333333333333 [-]
	 SCS Opposite-Spin Scale   =       1.2000000000000000 [-]
	 SCS Same-Spin Energy      =      -0.2220505475115067 [Eh]
	 SCS Opposite-Spin Energy  =      -2.4540286081348448 [Eh]
	 SCS Correlation Energy    =      -2.6760791556463515 [Eh]
	 SCS Total Energy          =    -686.2847083560200190 [Eh]
	-----------------------------------------------------------

  Dipole Moment: [D]
     X:     0.6913      Y:     3.3176      Z:    -1.0106     Total:     3.5363

*** Psi4 exiting successfully. Buy a developer a beer!
