                               Psi4 1.3.2 release

  ==> Input File <==

--------------------------------------------------------------------------
#psi4
#
memory 32 gb

molecule  {
0 1
  O       -0.8456270     0.8862080     0.2793150
  O       -0.3079160    -1.6544620     1.3165970
  O        2.1058880    -1.9633380    -0.1734630
  O        2.7564030     0.7739560    -0.4353370
  O        0.7402180     2.5264820     0.5866940
  O       -3.4805510     0.5379580    -0.4489300
  C       -0.2340330    -1.4057570    -0.0828570
  C        1.1618270    -0.9690140    -0.5229560
  C       -1.2150640    -0.3000600    -0.4685780
  C        1.5092100     0.3624850     0.1183010
  C        0.4233390     1.3863000    -0.1554910
  C       -2.6607760    -0.5711350    -0.1020210
  H       -0.4877470    -2.3504840    -0.5773070
  H        1.1452800    -0.8176870    -1.6174030
  H       -1.1578680    -0.0786640    -1.5458690
  H        1.5875790     0.2279570     1.2063390
  H        0.3695010     1.6036290    -1.2365780
  H       -2.7264410    -0.8110830     0.9660040
  H       -3.0303370    -1.4295750    -0.6693420
  H       -0.3876700    -0.7765070     1.7356760
  H        2.9789380    -1.5641560    -0.3473760
  H        3.0115730     1.5902370     0.0317380
  H        0.1218180     3.2344810     0.3328360
  H       -2.9964757     1.4571595     0.0969046
units angstrom
no_reorient  #important for SAPT in psi4, default
symmetry c1  #important for SAPT in psi4, default
}

set PROPERTIES_ORIGIN ["COM"]
properties('MP2/aug-cc-pvtz', properties = ['dipole'])
--------------------------------------------------------------------------

    Molecular point group: c1
  Charge       = 0
  Multiplicity = 1
  Basis Set: AUG-CC-PVTZ
    Blend: AUG-CC-PVTZ
  Basis Set: (AUG-CC-PVTZ AUX)
    Blend: AUG-CC-PVTZ-JKFIT

    Orbital Energies [Eh]
    ---------------------

    Doubly Occupied:

       1A    -20.601069     2A    -20.595857     3A    -20.585631
       4A    -20.576234     5A    -20.564884     6A    -20.564022
       7A    -11.363101     8A    -11.303878     9A    -11.299210
      10A    -11.296520    11A    -11.294734    12A    -11.283778
      13A     -1.448784    14A     -1.391986    15A     -1.387930
      16A     -1.363655    17A     -1.353503    18A     -1.327864
      19A     -1.072476    20A     -1.048911    21A     -0.943319
      22A     -0.887390    23A     -0.841398    24A     -0.808806
      25A     -0.759797    26A     -0.734691    27A     -0.720654
      28A     -0.713652    29A     -0.675610    30A     -0.658496
      31A     -0.657857    32A     -0.635086    33A     -0.619374
      34A     -0.617540    35A     -0.593901    36A     -0.579626
      37A     -0.575174    38A     -0.560931    39A     -0.537228
      40A     -0.533760    41A     -0.527014    42A     -0.507036
      43A     -0.489190    44A     -0.482879    45A     -0.467677
      46A     -0.459238    47A     -0.443637    48A     -0.428545

  @DF-RHF Final Energy:  -683.57274320934187

   => Energetics <=

    Nuclear Repulsion Energy =            835.1306963935335261
    One-Electron Energy =               -2599.0398119848973693
    Two-Electron Energy =                1080.3363723820218638
    Total Energy =                       -683.5727432093419793
  Basis Set: (AUG-CC-PVTZ AUX)
    Blend: AUG-CC-PVTZ-RI
    Molecular point group: c1

    Geometry (in Angstrom), charge = 0, multiplicity = 1:

       Center              X                  Y                   Z               Mass
    ------------   -----------------  -----------------  -----------------  -----------------
         O           -0.855176980065     0.886071361890     0.269363041465    15.994914619570
         O           -0.317465980065    -1.654598638110     1.306645041465    15.994914619570
         O            2.096338019935    -1.963474638110    -0.183414958535    15.994914619570
         O            2.746853019935     0.773819361890    -0.445288958535    15.994914619570
         O            0.730668019935     2.526345361890     0.576742041465    15.994914619570
         O           -3.490100980065     0.537821361890    -0.458881958535    15.994914619570
         C           -0.243582980065    -1.405893638110    -0.092808958535    12.000000000000
         C            1.152277019935    -0.969150638110    -0.532907958535    12.000000000000
         C           -1.224613980065    -0.300196638110    -0.478529958535    12.000000000000
         C            1.499660019935     0.362348361890     0.108349041465    12.000000000000
         C            0.413789019935     1.386163361890    -0.165442958535    12.000000000000
         C           -2.670325980065    -0.571271638110    -0.111972958535    12.000000000000
         H           -0.497296980065    -2.350620638110    -0.587258958535     1.007825032230
         H            1.135730019935    -0.817823638110    -1.627354958535     1.007825032230
         H           -1.167417980065    -0.078800638110    -1.555820958535     1.007825032230
         H            1.578029019935     0.227820361890     1.196387041465     1.007825032230
         H            0.359951019935     1.603492361890    -1.246529958535     1.007825032230
         H           -2.735990980065    -0.811219638110     0.956052041465     1.007825032230
         H           -3.039886980065    -1.429711638110    -0.679293958535     1.007825032230
         H           -0.397219980065    -0.776643638110     1.725724041465     1.007825032230
         H            2.969388019935    -1.564292638110    -0.357327958535     1.007825032230
         H            3.002023019935     1.590100361890     0.021786041465     1.007825032230
         H            0.112268019935     3.234344361890     0.322884041465     1.007825032230
         H           -3.006025680065     1.457022861890     0.086952641465     1.007825032230

  Basis Set: AUG-CC-PVTZ
    Blend: AUG-CC-PVTZ
  Basis Set: (AUG-CC-PVTZ AUX)
    Blend: AUG-CC-PVTZ-JKFIT
	 Reference Energy          =    -683.5727432093418656 [Eh]
	 Singles Energy            =      -0.0000000000000000 [Eh]
	 Same-Spin Energy          =      -0.6687207867451259 [Eh]
	 Opposite-Spin Energy      =      -2.0529046132626179 [Eh]
	 Correlation Energy        =      -2.7216254000077438 [Eh]
	 Total Energy              =    -686.2943686093495899 [Eh]

	 ================> DF-SCS-MP2 Energies <==================
	-----------------------------------------------------------
	 SCS Same-Spin Scale       =       0.3333333333333333 [-]
	 SCS Opposite-Spin Scale   =       1.2000000000000000 [-]
	 SCS Same-Spin Energy      =      -0.2229069289150420 [Eh]
	 SCS Opposite-Spin Energy  =      -2.4634855359151415 [Eh]
	 SCS Correlation Energy    =      -2.6863924648301833 [Eh]
	 SCS Total Energy          =    -686.2591356741720574 [Eh]
	-----------------------------------------------------------

  Dipole Moment: [D]
     X:     0.7519      Y:     3.2849      Z:    -1.0370     Total:     3.5258

*** Psi4 exiting successfully. Buy a developer a beer!
