                               Psi4 1.4a3.dev225

  ==> Input File <==

--------------------------------------------------------------------------
#psi4
#
memory 32 gb

molecule  {
0 1
  O       -0.8456650     0.8861440     0.2793920
  O       -0.3077290    -1.6543970     1.3165920
  O        2.1058490    -1.9633390    -0.1734930
  O        2.7563870     0.7740080    -0.4352340
  O        0.7401070     2.5265290     0.5865970
  O       -3.4805150     0.5379850    -0.4487790
  C       -0.2340150    -1.4057960    -0.0828600
  C        1.1618410    -0.9690160    -0.5229920
  C       -1.2150830    -0.3001220    -0.4685840
  C        1.5091960     0.3624950     0.1183140
  C        0.4232960     1.3863010    -0.1554910
  C       -2.6608140    -0.5711940    -0.1020800
  H       -0.4877200    -2.3505680    -0.5772350
  H        1.1452880    -0.8176810    -1.6174430
  H       -1.1578130    -0.0786490    -1.5458470
  H        1.5874550     0.2279380     1.2063560
  H        0.3693510     1.6035860    -1.2365730
  H       -2.7265370    -0.8113720     0.9658980
  H       -3.0304070    -1.4295080    -0.6695770
  H       -0.3878110    -0.7763940     1.7355090
  H        2.9789120    -1.5642300    -0.3474430
  H        3.0116250     1.5901680     0.0320000
  H        0.1223170     3.2347930     0.3320250
  H       -3.0992941     1.2613067    -0.0193596
units angstrom
no_reorient  #important for SAPT in psi4, default
symmetry c1  #important for SAPT in psi4, default
}

set PROPERTIES_ORIGIN ["COM"]
properties('MP2/aug-cc-pvtz', properties = ['dipole'])
--------------------------------------------------------------------------

    Molecular point group: c1
  Charge       = 0
  Multiplicity = 1
  Basis Set: AUG-CC-PVTZ
    Blend: AUG-CC-PVTZ
  Basis Set: (AUG-CC-PVTZ AUX)
    Blend: AUG-CC-PVTZ-JKFIT

    Orbital Energies [Eh]
    ---------------------

    Doubly Occupied:

       1A    -20.599956     2A    -20.594856     3A    -20.585361
       4A    -20.565328     5A    -20.564155     6A    -20.560381
       7A    -11.362387     8A    -11.305028     9A    -11.298939
      10A    -11.297118    11A    -11.294947    12A    -11.286478
      13A     -1.448195    14A     -1.392437    15A     -1.390366
      16A     -1.374357    17A     -1.359706    18A     -1.352983
      19A     -1.073167    20A     -1.052465    21A     -0.950733
      22A     -0.887556    23A     -0.850936    24A     -0.808783
      25A     -0.759685    26A     -0.738361    27A     -0.722721
      28A     -0.714328    29A     -0.695255    30A     -0.666880
      31A     -0.658698    32A     -0.640845    33A     -0.623977
      34A     -0.619241    35A     -0.599965    36A     -0.580966
      37A     -0.576071    38A     -0.563435    39A     -0.540875
      40A     -0.535249    41A     -0.528751    42A     -0.513049
      43A     -0.496665    44A     -0.483470    45A     -0.471024
      46A     -0.460210    47A     -0.444846    48A     -0.430494

  @DF-RHF Final Energy:  -683.60893887017357

   => Energetics <=

    Nuclear Repulsion Energy =            836.1951354548475592
    One-Electron Energy =               -2600.9647870065305142
    Two-Electron Energy =                1081.1607126815094944
    Total Energy =                       -683.6089388701734606
  Basis Set: (AUG-CC-PVTZ AUX)
    Blend: AUG-CC-PVTZ-RI
    Molecular point group: c1

    Geometry (in Angstrom), charge = 0, multiplicity = 1:

       Center              X                  Y                   Z               Mass
    ------------   -----------------  -----------------  -----------------  -----------------
         O           -0.854635912943     0.887102795592     0.270085032015    15.994914619570
         O           -0.316699912943    -1.653438204408     1.307285032015    15.994914619570
         O            2.096878087057    -1.962380204408    -0.182799967985    15.994914619570
         O            2.747416087057     0.774966795592    -0.444540967985    15.994914619570
         O            0.731136087057     2.527487795592     0.577290032015    15.994914619570
         O           -3.489485912943     0.538943795592    -0.458085967985    15.994914619570
         C           -0.242985912943    -1.404837204408    -0.092166967985    12.000000000000
         C            1.152870087057    -0.968057204408    -0.532298967985    12.000000000000
         C           -1.224053912943    -0.299163204408    -0.477890967985    12.000000000000
         C            1.500225087057     0.363453795592     0.109007032015    12.000000000000
         C            0.414325087057     1.387259795592    -0.164797967985    12.000000000000
         C           -2.669784912943    -0.570235204408    -0.111386967985    12.000000000000
         H           -0.496690912943    -2.349609204408    -0.586541967985     1.007825032230
         H            1.136317087057    -0.816722204408    -1.626749967985     1.007825032230
         H           -1.166783912943    -0.077690204408    -1.555153967985     1.007825032230
         H            1.578484087057     0.228896795592     1.197049032015     1.007825032230
         H            0.360380087057     1.604544795592    -1.245879967985     1.007825032230
         H           -2.735507912943    -0.810413204408     0.956591032015     1.007825032230
         H           -3.039377912943    -1.428549204408    -0.678883967985     1.007825032230
         H           -0.396781912943    -0.775435204408     1.726202032015     1.007825032230
         H            2.969941087057    -1.563271204408    -0.356749967985     1.007825032230
         H            3.002654087057     1.591126795592     0.022693032015     1.007825032230
         H            0.113346087057     3.235751795592     0.322718032015     1.007825032230
         H           -3.108265012943     1.262265495592    -0.028666567985     1.007825032230

  Basis Set: AUG-CC-PVTZ
    Blend: AUG-CC-PVTZ
  Basis Set: (AUG-CC-PVTZ AUX)
    Blend: AUG-CC-PVTZ-JKFIT
	 Reference Energy          =    -683.6089388701735743 [Eh]
	 Singles Energy            =      -0.0000000000000000 [Eh]
	 Same-Spin Energy          =      -0.6657199233446239 [Eh]
	 Opposite-Spin Energy      =      -2.0446750118434740 [Eh]
	 Correlation Energy        =      -2.7103949351880980 [Eh]
	 Total Energy              =    -686.3193338053616799 [Eh]

	 ================> DF-SCS-MP2 Energies <==================
	-----------------------------------------------------------
	 SCS Same-Spin Scale       =       0.3333333333333333 [-]
	 SCS Opposite-Spin Scale   =       1.2000000000000000 [-]
	 SCS Same-Spin Energy      =      -0.2219066411148746 [Eh]
	 SCS Opposite-Spin Energy  =      -2.4536100142121686 [Eh]
	 SCS Correlation Energy    =      -2.6755166553270433 [Eh]
	 SCS Total Energy          =    -686.2844555255005616 [Eh]
	-----------------------------------------------------------

  Dipole Moment: [D]
     X:     0.6494      Y:     3.1180      Z:    -1.1157     Total:     3.3747

*** Psi4 exiting successfully. Buy a developer a beer!
