                               Psi4 1.4a3.dev225

  ==> Input File <==

--------------------------------------------------------------------------
#psi4
#
memory 32 gb

molecule  {
0 1
  O       -0.8456650     0.8861440     0.2793920
  O       -0.3077290    -1.6543970     1.3165920
  O        2.1058490    -1.9633390    -0.1734930
  O        2.7563870     0.7740080    -0.4352340
  O        0.7401070     2.5265290     0.5865970
  O       -3.4805150     0.5379850    -0.4487790
  C       -0.2340150    -1.4057960    -0.0828600
  C        1.1618410    -0.9690160    -0.5229920
  C       -1.2150830    -0.3001220    -0.4685840
  C        1.5091960     0.3624950     0.1183140
  C        0.4232960     1.3863010    -0.1554910
  C       -2.6723420    -0.5555949    -0.1069559
  H       -0.4877200    -2.3505680    -0.5772350
  H        1.1452880    -0.8176810    -1.6174430
  H       -1.1578130    -0.0786490    -1.5458470
  H        1.5874550     0.2279380     1.2063560
  H        0.3693510     1.6035860    -1.2365730
  H       -2.7265370    -0.8113720     0.9658980
  H       -3.0304070    -1.4295080    -0.6695770
  H       -0.3878110    -0.7763940     1.7355090
  H        2.9789120    -1.5642300    -0.3474430
  H        3.0116250     1.5901680     0.0320000
  H        0.1223170     3.2347930     0.3320250
  H       -3.0786550     1.3004670     0.0038890
units angstrom
no_reorient  #important for SAPT in psi4, default
symmetry c1  #important for SAPT in psi4, default
}

set PROPERTIES_ORIGIN ["COM"]
properties('MP2/aug-cc-pvtz', properties = ['dipole'])
--------------------------------------------------------------------------

    Molecular point group: c1
  Charge       = 0
  Multiplicity = 1
  Basis Set: AUG-CC-PVTZ
    Blend: AUG-CC-PVTZ
  Basis Set: (AUG-CC-PVTZ AUX)
    Blend: AUG-CC-PVTZ-JKFIT

    Orbital Energies [Eh]
    ---------------------

    Doubly Occupied:

       1A    -20.599988     2A    -20.594687     3A    -20.585252
       4A    -20.566554     5A    -20.564777     6A    -20.563969
       7A    -11.362254     8A    -11.304173     9A    -11.298794
      10A    -11.296790    11A    -11.294737    12A    -11.286297
      13A     -1.448065    14A     -1.392054    15A     -1.389621
      16A     -1.371892    17A     -1.358901    18A     -1.352505
      19A     -1.072341    20A     -1.050085    21A     -0.947528
      22A     -0.887220    23A     -0.848295    24A     -0.808449
      25A     -0.759456    26A     -0.737686    27A     -0.721801
      28A     -0.713655    29A     -0.692013    30A     -0.666237
      31A     -0.658566    32A     -0.640320    33A     -0.623786
      34A     -0.619203    35A     -0.601332    36A     -0.580874
      37A     -0.576151    38A     -0.563365    39A     -0.539761
      40A     -0.535198    41A     -0.528634    42A     -0.510607
      43A     -0.494132    44A     -0.483211    45A     -0.469307
      46A     -0.459607    47A     -0.443750    48A     -0.429327

  @DF-RHF Final Energy:  -683.60818424299305

   => Energetics <=

    Nuclear Repulsion Energy =            835.9600941734507842
    One-Electron Energy =               -2600.5501389075702718
    Two-Electron Energy =                1080.9818604911265538
    Total Energy =                       -683.6081842429930475
  Basis Set: (AUG-CC-PVTZ AUX)
    Blend: AUG-CC-PVTZ-RI
    Molecular point group: c1

    Geometry (in Angstrom), charge = 0, multiplicity = 1:

       Center              X                  Y                   Z               Mass
    ------------   -----------------  -----------------  -----------------  -----------------
         O           -0.853983168375     0.885844039257     0.270279853846    15.994914619570
         O           -0.316047168375    -1.654696960743     1.307479853846    15.994914619570
         O            2.097530831625    -1.963638960743    -0.182605146154    15.994914619570
         O            2.748068831625     0.773708039257    -0.444346146154    15.994914619570
         O            0.731788831625     2.526229039257     0.577484853846    15.994914619570
         O           -3.488833168375     0.537685039257    -0.457891146154    15.994914619570
         C           -0.242333168375    -1.406095960743    -0.091972146154    12.000000000000
         C            1.153522831625    -0.969315960743    -0.532104146154    12.000000000000
         C           -1.223401168375    -0.300421960743    -0.477696146154    12.000000000000
         C            1.500877831625     0.362195039257     0.109201853846    12.000000000000
         C            0.414977831625     1.386001039257    -0.164603146154    12.000000000000
         C           -2.680660168375    -0.555894860743    -0.116068046154    12.000000000000
         H           -0.496038168375    -2.350867960743    -0.586347146154     1.007825032230
         H            1.136969831625    -0.817980960743    -1.626555146154     1.007825032230
         H           -1.166131168375    -0.078948960743    -1.554959146154     1.007825032230
         H            1.579136831625     0.227638039257     1.197243853846     1.007825032230
         H            0.361032831625     1.603286039257    -1.245685146154     1.007825032230
         H           -2.734855168375    -0.811671960743     0.956785853846     1.007825032230
         H           -3.038725168375    -1.429807960743    -0.678689146154     1.007825032230
         H           -0.396129168375    -0.776693960743     1.726396853846     1.007825032230
         H            2.970593831625    -1.564529960743    -0.356555146154     1.007825032230
         H            3.003306831625     1.589868039257     0.022887853846     1.007825032230
         H            0.113998831625     3.234493039257     0.322912853846     1.007825032230
         H           -3.086973168375     1.300167039257    -0.005223146154     1.007825032230

  Basis Set: AUG-CC-PVTZ
    Blend: AUG-CC-PVTZ
  Basis Set: (AUG-CC-PVTZ AUX)
    Blend: AUG-CC-PVTZ-JKFIT
	 Reference Energy          =    -683.6081842429930475 [Eh]
	 Singles Energy            =      -0.0000000000000000 [Eh]
	 Same-Spin Energy          =      -0.6663204841697086 [Eh]
	 Opposite-Spin Energy      =      -2.0458927013883503 [Eh]
	 Correlation Energy        =      -2.7122131855580589 [Eh]
	 Total Energy              =    -686.3203974285511322 [Eh]

	 ================> DF-SCS-MP2 Energies <==================
	-----------------------------------------------------------
	 SCS Same-Spin Scale       =       0.3333333333333333 [-]
	 SCS Opposite-Spin Scale   =       1.2000000000000000 [-]
	 SCS Same-Spin Energy      =      -0.2221068280565695 [Eh]
	 SCS Opposite-Spin Energy  =      -2.4550712416660203 [Eh]
	 SCS Correlation Energy    =      -2.6771780697225900 [Eh]
	 SCS Total Energy          =    -686.2853623127156197 [Eh]
	-----------------------------------------------------------

  Dipole Moment: [D]
     X:     0.6170      Y:     3.2081      Z:    -1.1157     Total:     3.4522

*** Psi4 exiting successfully. Buy a developer a beer!
