                               Psi4 1.3.2 release

  ==> Input File <==

--------------------------------------------------------------------------
#psi4
#
memory 32 gb

molecule  {
0 1
  O       -0.8689439     0.8870132     0.2891275
  O       -0.3079160    -1.6544620     1.3165970
  O        2.1058880    -1.9633380    -0.1734630
  O        2.7564030     0.7739560    -0.4353370
  O        0.7402180     2.5264820     0.5866940
  O       -3.4805510     0.5379580    -0.4489300
  C       -0.2340330    -1.4057570    -0.0828570
  C        1.1618270    -0.9690140    -0.5229560
  C       -1.2150640    -0.3000600    -0.4685780
  C        1.5092100     0.3624850     0.1183010
  C        0.4233390     1.3863000    -0.1554910
  C       -2.6607760    -0.5711350    -0.1020210
  H       -0.4877470    -2.3504840    -0.5773070
  H        1.1452800    -0.8176870    -1.6174030
  H       -1.1578680    -0.0786640    -1.5458690
  H        1.5875790     0.2279570     1.2063390
  H        0.3695010     1.6036290    -1.2365780
  H       -2.7264410    -0.8110830     0.9660040
  H       -3.0303370    -1.4295750    -0.6693420
  H       -0.3876700    -0.7765070     1.7356760
  H        2.9789380    -1.5641560    -0.3473760
  H        3.0115730     1.5902370     0.0317380
  H        0.1218180     3.2344810     0.3328360
  H       -3.0789740     1.3005050     0.0038810
units angstrom
no_reorient  #important for SAPT in psi4, default
symmetry c1  #important for SAPT in psi4, default
}

set PROPERTIES_ORIGIN ["COM"]
properties('MP2/aug-cc-pvtz', properties = ['dipole'])
--------------------------------------------------------------------------

    Molecular point group: c1
  Charge       = 0
  Multiplicity = 1
  Basis Set: AUG-CC-PVTZ
    Blend: AUG-CC-PVTZ
  Basis Set: (AUG-CC-PVTZ AUX)
    Blend: AUG-CC-PVTZ-JKFIT

    Orbital Energies [Eh]
    ---------------------

    Doubly Occupied:

       1A    -20.601444     2A    -20.595660     3A    -20.586756
       4A    -20.564983     5A    -20.564457     6A    -20.563240
       7A    -11.364945     8A    -11.303436     9A    -11.300558
      10A    -11.296925    11A    -11.295274    12A    -11.284356
      13A     -1.444741    14A     -1.392565    15A     -1.388873
      16A     -1.367621    17A     -1.356350    18A     -1.350503
      19A     -1.073304    20A     -1.049992    21A     -0.948744
      22A     -0.888050    23A     -0.846307    24A     -0.808592
      25A     -0.759711    26A     -0.736501    27A     -0.721749
      28A     -0.713313    29A     -0.688116    30A     -0.666196
      31A     -0.659020    32A     -0.639323    33A     -0.623115
      34A     -0.617778    35A     -0.598229    36A     -0.581022
      37A     -0.575117    38A     -0.563317    39A     -0.539547
      40A     -0.534953    41A     -0.528912    42A     -0.512102
      43A     -0.494073    44A     -0.483316    45A     -0.470231
      46A     -0.460827    47A     -0.445215    48A     -0.430321

  @DF-RHF Final Energy:  -683.60638615955042

   => Energetics <=

    Nuclear Repulsion Energy =            835.3935559871774785
    One-Electron Energy =               -2599.4405216445115911
    Two-Electron Energy =                1080.4405794977835740
    Total Energy =                       -683.6063861595505387
  Basis Set: (AUG-CC-PVTZ AUX)
    Blend: AUG-CC-PVTZ-RI
    Molecular point group: c1

    Geometry (in Angstrom), charge = 0, multiplicity = 1:

       Center              X                  Y                   Z               Mass
    ------------   -----------------  -----------------  -----------------  -----------------
         O           -0.875960907197     0.887681840647     0.278824561803    15.994914619570
         O           -0.314933007197    -1.653793359353     1.306294061803    15.994914619570
         O            2.098870992803    -1.962669359353    -0.183765938197    15.994914619570
         O            2.749385992803     0.774624640647    -0.445639938197    15.994914619570
         O            0.733200992803     2.527150640647     0.576391061803    15.994914619570
         O           -3.487568007197     0.538626640647    -0.459232938197    15.994914619570
         C           -0.241050007197    -1.405088359353    -0.093159938197    12.000000000000
         C            1.154809992803    -0.968345359353    -0.533258938197    12.000000000000
         C           -1.222081007197    -0.299391359353    -0.478880938197    12.000000000000
         C            1.502192992803     0.363153640647     0.107998061803    12.000000000000
         C            0.416321992803     1.386968640647    -0.165793938197    12.000000000000
         C           -2.667793007197    -0.570466359353    -0.112323938197    12.000000000000
         H           -0.494764007197    -2.349815359353    -0.587609938197     1.007825032230
         H            1.138262992803    -0.817018359353    -1.627705938197     1.007825032230
         H           -1.164885007197    -0.077995359353    -1.556171938197     1.007825032230
         H            1.580561992803     0.228625640647     1.196036061803     1.007825032230
         H            0.362483992803     1.604297640647    -1.246880938197     1.007825032230
         H           -2.733458007197    -0.810414359353     0.955701061803     1.007825032230
         H           -3.037354007197    -1.428906359353    -0.679644938197     1.007825032230
         H           -0.394687007197    -0.775838359353     1.725373061803     1.007825032230
         H            2.971920992803    -1.563487359353    -0.357678938197     1.007825032230
         H            3.004555992803     1.590905640647     0.021435061803     1.007825032230
         H            0.114800992803     3.235149640647     0.322533061803     1.007825032230
         H           -3.085991007197     1.301173640647    -0.006421938197     1.007825032230

  Basis Set: AUG-CC-PVTZ
    Blend: AUG-CC-PVTZ
  Basis Set: (AUG-CC-PVTZ AUX)
    Blend: AUG-CC-PVTZ-JKFIT
	 Reference Energy          =    -683.6063861595504250 [Eh]
	 Singles Energy            =      -0.0000000000000000 [Eh]
	 Same-Spin Energy          =      -0.6666176879203627 [Eh]
	 Opposite-Spin Energy      =      -2.0470879587367925 [Eh]
	 Correlation Energy        =      -2.7137056466571554 [Eh]
	 Total Energy              =    -686.3200918062075289 [Eh]

	 ================> DF-SCS-MP2 Energies <==================
	-----------------------------------------------------------
	 SCS Same-Spin Scale       =       0.3333333333333333 [-]
	 SCS Opposite-Spin Scale   =       1.2000000000000000 [-]
	 SCS Same-Spin Energy      =      -0.2222058959734542 [Eh]
	 SCS Opposite-Spin Energy  =      -2.4565055504841511 [Eh]
	 SCS Correlation Energy    =      -2.6787114464576054 [Eh]
	 SCS Total Energy          =    -686.2850976060079802 [Eh]
	-----------------------------------------------------------

  Dipole Moment: [D]
     X:     0.7823      Y:     3.1956      Z:    -1.1148     Total:     3.4737

*** Psi4 exiting successfully. Buy a developer a beer!
