                               Psi4 1.3.2 release

  ==> Input File <==

--------------------------------------------------------------------------
#psi4
#
memory 32 gb

molecule  {
0 1
  O       -0.8456270     0.8862080     0.2793150
  O       -0.3079160    -1.6544620     1.3165970
  O        2.1058880    -1.9633380    -0.1734630
  O        2.7564030     0.7739560    -0.4353370
  O        0.7402180     2.5264820     0.5866940
  O       -3.4805510     0.5379580    -0.4489300
  C       -0.2322973    -1.4302069    -0.0868900
  C        1.1618270    -0.9690140    -0.5229560
  C       -1.2150640    -0.3000600    -0.4685780
  C        1.5092100     0.3624850     0.1183010
  C        0.4233390     1.3863000    -0.1554910
  C       -2.6607760    -0.5711350    -0.1020210
  H       -0.4877470    -2.3504840    -0.5773070
  H        1.1452800    -0.8176870    -1.6174030
  H       -1.1578680    -0.0786640    -1.5458690
  H        1.5875790     0.2279570     1.2063390
  H        0.3695010     1.6036290    -1.2365780
  H       -2.7264410    -0.8110830     0.9660040
  H       -3.0303370    -1.4295750    -0.6693420
  H       -0.3876700    -0.7765070     1.7356760
  H        2.9789380    -1.5641560    -0.3473760
  H        3.0115730     1.5902370     0.0317380
  H        0.1218180     3.2344810     0.3328360
  H       -3.0789740     1.3005050     0.0038810
units angstrom
no_reorient  #important for SAPT in psi4, default
symmetry c1  #important for SAPT in psi4, default
}

set PROPERTIES_ORIGIN ["COM"]
properties('MP2/aug-cc-pvtz', properties = ['dipole'])
--------------------------------------------------------------------------

    Molecular point group: c1
  Charge       = 0
  Multiplicity = 1
  Basis Set: AUG-CC-PVTZ
    Blend: AUG-CC-PVTZ
  Basis Set: (AUG-CC-PVTZ AUX)
    Blend: AUG-CC-PVTZ-JKFIT

    Orbital Energies [Eh]
    ---------------------

    Doubly Occupied:

       1A    -20.600097     2A    -20.595323     3A    -20.585635
       4A    -20.564426     5A    -20.564001     6A    -20.563686
       7A    -11.362436     8A    -11.304841     9A    -11.299296
      10A    -11.296728    11A    -11.294904    12A    -11.285311
      13A     -1.447908    14A     -1.392045    15A     -1.388300
      16A     -1.367456    17A     -1.356473    18A     -1.351673
      19A     -1.070921    20A     -1.050306    21A     -0.948774
      22A     -0.888204    23A     -0.847424    24A     -0.809331
      25A     -0.760523    26A     -0.736441    27A     -0.720932
      28A     -0.713650    29A     -0.689411    30A     -0.665730
      31A     -0.659236    32A     -0.641021    33A     -0.622037
      34A     -0.618165    35A     -0.598178    36A     -0.584761
      37A     -0.575195    38A     -0.562643    39A     -0.540039
      40A     -0.534088    41A     -0.528890    42A     -0.511983
      43A     -0.495547    44A     -0.482331    45A     -0.470186
      46A     -0.459689    47A     -0.445264    48A     -0.427771

  @DF-RHF Final Energy:  -683.60800988555116

   => Energetics <=

    Nuclear Repulsion Energy =            835.4877814322437644
    One-Electron Energy =               -2599.6331647196984704
    Two-Electron Energy =                1080.5373734019035510
    Total Energy =                       -683.6080098855511551
  Basis Set: (AUG-CC-PVTZ AUX)
    Blend: AUG-CC-PVTZ-RI
    Molecular point group: c1

    Geometry (in Angstrom), charge = 0, multiplicity = 1:

       Center              X                  Y                   Z               Mass
    ------------   -----------------  -----------------  -----------------  -----------------
         O           -0.854830904982     0.888577585567     0.270152471866    15.994914619570
         O           -0.317119904982    -1.652092414433     1.307434471866    15.994914619570
         O            2.096684095018    -1.960968414433    -0.182625528134    15.994914619570
         O            2.747199095018     0.776325585567    -0.444499528134    15.994914619570
         O            0.731014095018     2.528851585567     0.577531471866    15.994914619570
         O           -3.489754904982     0.540327585567    -0.458092528134    15.994914619570
         C           -0.241501204982    -1.427837314433    -0.096052528134    12.000000000000
         C            1.152623095018    -0.966644414433    -0.532118528134    12.000000000000
         C           -1.224267904982    -0.297690414433    -0.477740528134    12.000000000000
         C            1.500006095018     0.364854585567     0.109138471866    12.000000000000
         C            0.414135095018     1.388669585567    -0.164653528134    12.000000000000
         C           -2.669979904982    -0.568765414433    -0.111183528134    12.000000000000
         H           -0.496950904982    -2.348114414433    -0.586469528134     1.007825032230
         H            1.136076095018    -0.815317414433    -1.626565528134     1.007825032230
         H           -1.167071904982    -0.076294414433    -1.555031528134     1.007825032230
         H            1.578375095018     0.230326585567     1.197176471866     1.007825032230
         H            0.360297095018     1.605998585567    -1.245740528134     1.007825032230
         H           -2.735644904982    -0.808713414433     0.956841471866     1.007825032230
         H           -3.039540904982    -1.427205414433    -0.678504528134     1.007825032230
         H           -0.396873904982    -0.774137414433     1.726513471866     1.007825032230
         H            2.969734095018    -1.561786414433    -0.356538528134     1.007825032230
         H            3.002369095018     1.592606585567     0.022575471866     1.007825032230
         H            0.112614095018     3.236850585567     0.323673471866     1.007825032230
         H           -3.088177904982     1.302874585567    -0.005281528134     1.007825032230

  Basis Set: AUG-CC-PVTZ
    Blend: AUG-CC-PVTZ
  Basis Set: (AUG-CC-PVTZ AUX)
    Blend: AUG-CC-PVTZ-JKFIT
	 Reference Energy          =    -683.6080098855511551 [Eh]
	 Singles Energy            =      -0.0000000000000000 [Eh]
	 Same-Spin Energy          =      -0.6661310703663597 [Eh]
	 Opposite-Spin Energy      =      -2.0459496590579898 [Eh]
	 Correlation Energy        =      -2.7120807294243496 [Eh]
	 Total Energy              =    -686.3200906149754701 [Eh]

	 ================> DF-SCS-MP2 Energies <==================
	-----------------------------------------------------------
	 SCS Same-Spin Scale       =       0.3333333333333333 [-]
	 SCS Opposite-Spin Scale   =       1.2000000000000000 [-]
	 SCS Same-Spin Energy      =      -0.2220436901221199 [Eh]
	 SCS Opposite-Spin Energy  =      -2.4551395908695874 [Eh]
	 SCS Correlation Energy    =      -2.6771832809917075 [Eh]
	 SCS Total Energy          =    -686.2851931665428538 [Eh]
	-----------------------------------------------------------

  Dipole Moment: [D]
     X:     0.6756      Y:     3.1332      Z:    -1.1066     Total:     3.3909

*** Psi4 exiting successfully. Buy a developer a beer!
