                               Psi4 1.3.2 release

  ==> Input File <==

--------------------------------------------------------------------------
#psi4
#
memory 32 gb

molecule  {
0 1
  O       -0.8456270     0.8862080     0.2793150
  O       -0.3079160    -1.6544620     1.3165970
  O        2.1058880    -1.9633380    -0.1734630
  O        2.7564030     0.7739560    -0.4353370
  O        0.7402180     2.5264820     0.5866940
  O       -3.4805510     0.5379580    -0.4489300
  C       -0.2340330    -1.4057570    -0.0828570
  C        1.1618270    -0.9690140    -0.5229560
  C       -1.2405390    -0.3818607    -0.5201500
  C        1.5092100     0.3624850     0.1183010
  C        0.4233390     1.3863000    -0.1554910
  C       -2.6607760    -0.5711350    -0.1020210
  H       -0.4877470    -2.3504840    -0.5773070
  H        1.1452800    -0.8176870    -1.6174030
  H       -1.1578680    -0.0786640    -1.5458690
  H        1.5875790     0.2279570     1.2063390
  H        0.3695010     1.6036290    -1.2365780
  H       -2.7264410    -0.8110830     0.9660040
  H       -3.0303370    -1.4295750    -0.6693420
  H       -0.3876700    -0.7765070     1.7356760
  H        2.9789380    -1.5641560    -0.3473760
  H        3.0115730     1.5902370     0.0317380
  H        0.1218180     3.2344810     0.3328360
  H       -3.0789740     1.3005050     0.0038810
units angstrom
no_reorient  #important for SAPT in psi4, default
symmetry c1  #important for SAPT in psi4, default
}

set PROPERTIES_ORIGIN ["COM"]
properties('MP2/aug-cc-pvtz', properties = ['dipole'])
--------------------------------------------------------------------------

    Molecular point group: c1
  Charge       = 0
  Multiplicity = 1
  Basis Set: AUG-CC-PVTZ
    Blend: AUG-CC-PVTZ
  Basis Set: (AUG-CC-PVTZ AUX)
    Blend: AUG-CC-PVTZ-JKFIT

    Orbital Energies [Eh]
    ---------------------

    Doubly Occupied:

       1A    -20.595280     2A    -20.583268     3A    -20.582718
       4A    -20.567633     5A    -20.567261     6A    -20.565034
       7A    -11.356135     8A    -11.309535     9A    -11.300539
      10A    -11.297041    11A    -11.296280    12A    -11.288925
      13A     -1.434514    14A     -1.390484    15A     -1.383150
      16A     -1.368136    17A     -1.356086    18A     -1.340109
      19A     -1.080025    20A     -1.052564    21A     -0.953095
      22A     -0.885364    23A     -0.846973    24A     -0.807931
      25A     -0.757331    26A     -0.730815    27A     -0.724167
      28A     -0.711291    29A     -0.684441    30A     -0.664526
      31A     -0.659457    32A     -0.637633    33A     -0.626760
      34A     -0.615767    35A     -0.598929    36A     -0.581777
      37A     -0.572378    38A     -0.561264    39A     -0.540618
      40A     -0.533805    41A     -0.522217    42A     -0.499844
      43A     -0.492637    44A     -0.488391    45A     -0.474276
      46A     -0.458522    47A     -0.445686    48A     -0.435841

  @DF-RHF Final Energy:  -683.59821742517681

   => Energetics <=

    Nuclear Repulsion Energy =            834.6025865412680105
    One-Electron Energy =               -2597.9486972286167656
    Two-Electron Energy =                1079.7478932621720560
    Total Energy =                       -683.5982174251766992
  Basis Set: (AUG-CC-PVTZ AUX)
    Blend: AUG-CC-PVTZ-RI
    Molecular point group: c1

    Geometry (in Angstrom), charge = 0, multiplicity = 1:

       Center              X                  Y                   Z               Mass
    ------------   -----------------  -----------------  -----------------  -----------------
         O           -0.853017496918     0.892399626278     0.273320622849    15.994914619570
         O           -0.315306496918    -1.648270373722     1.310602622849    15.994914619570
         O            2.098497503082    -1.957146373722    -0.179457377151    15.994914619570
         O            2.749012503082     0.780147626278    -0.441331377151    15.994914619570
         O            0.732827503082     2.532673626278     0.580699622849    15.994914619570
         O           -3.487941496918     0.544149626278    -0.454924377151    15.994914619570
         C           -0.241423496918    -1.399565373722    -0.088851377151    12.000000000000
         C            1.154436503082    -0.962822373722    -0.528950377151    12.000000000000
         C           -1.247929496918    -0.375669073722    -0.526144377151    12.000000000000
         C            1.501819503082     0.368676626278     0.112306622849    12.000000000000
         C            0.415948503082     1.392491626278    -0.161485377151    12.000000000000
         C           -2.668166496918    -0.564943373722    -0.108015377151    12.000000000000
         H           -0.495137496918    -2.344292373722    -0.583301377151     1.007825032230
         H            1.137889503082    -0.811495373722    -1.623397377151     1.007825032230
         H           -1.165258496918    -0.072472373722    -1.551863377151     1.007825032230
         H            1.580188503082     0.234148626278     1.200344622849     1.007825032230
         H            0.362110503082     1.609820626278    -1.242572377151     1.007825032230
         H           -2.733831496918    -0.804891373722     0.960009622849     1.007825032230
         H           -3.037727496918    -1.423383373722    -0.675336377151     1.007825032230
         H           -0.395060496918    -0.770315373722     1.729681622849     1.007825032230
         H            2.971547503082    -1.557964373722    -0.353370377151     1.007825032230
         H            3.004182503082     1.596428626278     0.025743622849     1.007825032230
         H            0.114427503082     3.240672626278     0.326841622849     1.007825032230
         H           -3.086364496918     1.306696626278    -0.002113377151     1.007825032230

  Basis Set: AUG-CC-PVTZ
    Blend: AUG-CC-PVTZ
  Basis Set: (AUG-CC-PVTZ AUX)
    Blend: AUG-CC-PVTZ-JKFIT
	 Reference Energy          =    -683.5982174251768129 [Eh]
	 Singles Energy            =      -0.0000000000000000 [Eh]
	 Same-Spin Energy          =      -0.6670976902106148 [Eh]
	 Opposite-Spin Energy      =      -2.0482592996867699 [Eh]
	 Correlation Energy        =      -2.7153569898973848 [Eh]
	 Total Energy              =    -686.3135744150741857 [Eh]

	 ================> DF-SCS-MP2 Energies <==================
	-----------------------------------------------------------
	 SCS Same-Spin Scale       =       0.3333333333333333 [-]
	 SCS Opposite-Spin Scale   =       1.2000000000000000 [-]
	 SCS Same-Spin Energy      =      -0.2223658967368716 [Eh]
	 SCS Opposite-Spin Energy  =      -2.4579111596241239 [Eh]
	 SCS Correlation Energy    =      -2.6802770563609957 [Eh]
	 SCS Total Energy          =    -686.2784944815377912 [Eh]
	-----------------------------------------------------------

  Dipole Moment: [D]
     X:     0.5195      Y:     2.9077      Z:    -1.2100     Total:     3.1920

*** Psi4 exiting successfully. Buy a developer a beer!
