                               Psi4 1.3.2 release

  ==> Input File <==

--------------------------------------------------------------------------
#psi4
#
memory 32 gb

molecule  {
0 1
  O       -0.8456270     0.8862080     0.2793150
  O       -0.3142733    -1.6780033     1.3118572
  O        2.1058880    -1.9633380    -0.1734630
  O        2.7564030     0.7739560    -0.4353370
  O        0.7402180     2.5264820     0.5866940
  O       -3.4805510     0.5379580    -0.4489300
  C       -0.2340330    -1.4057570    -0.0828570
  C        1.1618270    -0.9690140    -0.5229560
  C       -1.2150640    -0.3000600    -0.4685780
  C        1.5092100     0.3624850     0.1183010
  C        0.4233390     1.3863000    -0.1554910
  C       -2.6607760    -0.5711350    -0.1020210
  H       -0.4877470    -2.3504840    -0.5773070
  H        1.1452800    -0.8176870    -1.6174030
  H       -1.1578680    -0.0786640    -1.5458690
  H        1.5875790     0.2279570     1.2063390
  H        0.3695010     1.6036290    -1.2365780
  H       -2.7264410    -0.8110830     0.9660040
  H       -3.0303370    -1.4295750    -0.6693420
  H       -0.3876700    -0.7765070     1.7356760
  H        2.9789380    -1.5641560    -0.3473760
  H        3.0115730     1.5902370     0.0317380
  H        0.1218180     3.2344810     0.3328360
  H       -3.0789740     1.3005050     0.0038810
units angstrom
no_reorient  #important for SAPT in psi4, default
symmetry c1  #important for SAPT in psi4, default
}

set PROPERTIES_ORIGIN ["COM"]
properties('MP2/aug-cc-pvtz', properties = ['dipole'])
--------------------------------------------------------------------------

    Molecular point group: c1
  Charge       = 0
  Multiplicity = 1
  Basis Set: AUG-CC-PVTZ
    Blend: AUG-CC-PVTZ
  Basis Set: (AUG-CC-PVTZ AUX)
    Blend: AUG-CC-PVTZ-JKFIT

    Orbital Energies [Eh]
    ---------------------

    Doubly Occupied:

       1A    -20.600368     2A    -20.595397     3A    -20.585630
       4A    -20.567861     5A    -20.564529     6A    -20.564190
       7A    -11.362775     8A    -11.304876     9A    -11.299283
      10A    -11.296447    11A    -11.295062    12A    -11.285839
      13A     -1.448399    14A     -1.392148    15A     -1.387964
      16A     -1.367008    17A     -1.356754    18A     -1.350578
      19A     -1.072514    20A     -1.051556    21A     -0.948433
      22A     -0.887061    23A     -0.848461    24A     -0.808075
      25A     -0.759099    26A     -0.736702    27A     -0.721733
      28A     -0.714057    29A     -0.689621    30A     -0.666279
      31A     -0.657074    32A     -0.639125    33A     -0.623033
      34A     -0.618947    35A     -0.598634    36A     -0.578960
      37A     -0.576195    38A     -0.563121    39A     -0.540057
      40A     -0.535411    41A     -0.528061    42A     -0.511899
      43A     -0.495977    44A     -0.483677    45A     -0.470188
      46A     -0.460200    47A     -0.444586    48A     -0.430133

  @DF-RHF Final Energy:  -683.60611921502527

   => Energetics <=

    Nuclear Repulsion Energy =            835.5054261203273427
    One-Electron Energy =               -2599.6551355925694224
    Two-Electron Energy =                1080.5435902572169198
    Total Energy =                       -683.6061192150252737
  Basis Set: (AUG-CC-PVTZ AUX)
    Blend: AUG-CC-PVTZ-RI
    Molecular point group: c1

    Geometry (in Angstrom), charge = 0, multiplicity = 1:

       Center              X                  Y                   Z               Mass
    ------------   -----------------  -----------------  -----------------  -----------------
         O           -0.854150517525     0.889039324538     0.270304733226    15.994914619570
         O           -0.322796817525    -1.675171975462     1.302846933226    15.994914619570
         O            2.097364482475    -1.960506675462    -0.182473266774    15.994914619570
         O            2.747879482475     0.776787324538    -0.444347266774    15.994914619570
         O            0.731694482475     2.529313324538     0.577683733226    15.994914619570
         O           -3.489074517525     0.540789324538    -0.457940266774    15.994914619570
         C           -0.242556517525    -1.402925675462    -0.091867266774    12.000000000000
         C            1.153303482475    -0.966182675462    -0.531966266774    12.000000000000
         C           -1.223587517525    -0.297228675462    -0.477588266774    12.000000000000
         C            1.500686482475     0.365316324538     0.109290733226    12.000000000000
         C            0.414815482475     1.389131324538    -0.164501266774    12.000000000000
         C           -2.669299517525    -0.568303675462    -0.111031266774    12.000000000000
         H           -0.496270517525    -2.347652675462    -0.586317266774     1.007825032230
         H            1.136756482475    -0.814855675462    -1.626413266774     1.007825032230
         H           -1.166391517525    -0.075832675462    -1.554879266774     1.007825032230
         H            1.579055482475     0.230788324538     1.197328733226     1.007825032230
         H            0.360977482475     1.606460324538    -1.245588266774     1.007825032230
         H           -2.734964517525    -0.808251675462     0.956993733226     1.007825032230
         H           -3.038860517525    -1.426743675462    -0.678352266774     1.007825032230
         H           -0.396193517525    -0.773675675462     1.726665733226     1.007825032230
         H            2.970414482475    -1.561324675462    -0.356386266774     1.007825032230
         H            3.003049482475     1.593068324538     0.022727733226     1.007825032230
         H            0.113294482475     3.237312324538     0.323825733226     1.007825032230
         H           -3.087497517525     1.303336324538    -0.005129266774     1.007825032230

  Basis Set: AUG-CC-PVTZ
    Blend: AUG-CC-PVTZ
  Basis Set: (AUG-CC-PVTZ AUX)
    Blend: AUG-CC-PVTZ-JKFIT
	 Reference Energy          =    -683.6061192150252737 [Eh]
	 Singles Energy            =      -0.0000000000000000 [Eh]
	 Same-Spin Energy          =      -0.6666890114157917 [Eh]
	 Opposite-Spin Energy      =      -2.0470451339743359 [Eh]
	 Correlation Energy        =      -2.7137341453901276 [Eh]
	 Total Energy              =    -686.3198533604154363 [Eh]

	 ================> DF-SCS-MP2 Energies <==================
	-----------------------------------------------------------
	 SCS Same-Spin Scale       =       0.3333333333333333 [-]
	 SCS Opposite-Spin Scale   =       1.2000000000000000 [-]
	 SCS Same-Spin Energy      =      -0.2222296704719306 [Eh]
	 SCS Opposite-Spin Energy  =      -2.4564541607692028 [Eh]
	 SCS Correlation Energy    =      -2.6786838312411332 [Eh]
	 SCS Total Energy          =    -686.2848030462664610 [Eh]
	-----------------------------------------------------------

  Dipole Moment: [D]
     X:     0.6807      Y:     3.1908      Z:    -1.0924     Total:     3.4407

*** Psi4 exiting successfully. Buy a developer a beer!
