                               Psi4 1.4a3.dev225

  ==> Input File <==

--------------------------------------------------------------------------
#psi4
#
memory 32 gb

molecule  {
0 1
  O       -0.8456650     0.8861440     0.2793920
  O       -0.3077290    -1.6543970     1.3165920
  O        2.1058490    -1.9633390    -0.1734930
  O        2.7563870     0.7740080    -0.4352340
  O        0.7401070     2.5265290     0.5865970
  O       -3.4805150     0.5379850    -0.4487790
  C       -0.2340150    -1.4057960    -0.0828600
  C        1.1618410    -0.9690160    -0.5229920
  C       -1.2150830    -0.3001220    -0.4685840
  C        1.5091960     0.3624950     0.1183140
  C        0.4232960     1.3863010    -0.1554910
  C       -2.6896340    -0.5321963    -0.1142696
  H       -0.4877200    -2.3505680    -0.5772350
  H        1.1452880    -0.8176810    -1.6174430
  H       -1.1578130    -0.0786490    -1.5458470
  H        1.5874550     0.2279380     1.2063560
  H        0.3693510     1.6035860    -1.2365730
  H       -2.7265370    -0.8113720     0.9658980
  H       -3.0304070    -1.4295080    -0.6695770
  H       -0.3878110    -0.7763940     1.7355090
  H        2.9789120    -1.5642300    -0.3474430
  H        3.0116250     1.5901680     0.0320000
  H        0.1223170     3.2347930     0.3320250
  H       -3.0786550     1.3004670     0.0038890
units angstrom
no_reorient  #important for SAPT in psi4, default
symmetry c1  #important for SAPT in psi4, default
}

set PROPERTIES_ORIGIN ["COM"]
properties('MP2/aug-cc-pvtz', properties = ['dipole'])
--------------------------------------------------------------------------

    Molecular point group: c1
  Charge       = 0
  Multiplicity = 1
  Basis Set: AUG-CC-PVTZ
    Blend: AUG-CC-PVTZ
  Basis Set: (AUG-CC-PVTZ AUX)
    Blend: AUG-CC-PVTZ-JKFIT

    Orbital Energies [Eh]
    ---------------------

    Doubly Occupied:

       1A    -20.599722     2A    -20.594167     3A    -20.585021
       4A    -20.569677     5A    -20.564120     6A    -20.563750
       7A    -11.361847     8A    -11.303304     9A    -11.298512
      10A    -11.296534    11A    -11.294512    12A    -11.287264
      13A     -1.447838    14A     -1.394642    15A     -1.390827
      16A     -1.378716    17A     -1.360121    18A     -1.352317
      19A     -1.071517    20A     -1.047879    21A     -0.945643
      22A     -0.886843    23A     -0.848242    24A     -0.807968
      25A     -0.759157    26A     -0.738924    27A     -0.721561
      28A     -0.713000    29A     -0.695764    30A     -0.666491
      31A     -0.658554    32A     -0.640599    33A     -0.625644
      34A     -0.620123    35A     -0.605292    36A     -0.581054
      37A     -0.576265    38A     -0.564057    39A     -0.539380
      40A     -0.535660    41A     -0.528791    42A     -0.508767
      43A     -0.490635    44A     -0.482969    45A     -0.467755
      46A     -0.458888    47A     -0.442406    48A     -0.427744

  @DF-RHF Final Energy:  -683.60645711276436

   => Energetics <=

    Nuclear Repulsion Energy =            835.9924439577506519
    One-Electron Energy =               -2600.5968720541127368
    Two-Electron Energy =                1080.9979709835977246
    Total Energy =                       -683.6064571127642466
  Basis Set: (AUG-CC-PVTZ AUX)
    Blend: AUG-CC-PVTZ-RI
    Molecular point group: c1

    Geometry (in Angstrom), charge = 0, multiplicity = 1:

       Center              X                  Y                   Z               Mass
    ------------   -----------------  -----------------  -----------------  -----------------
         O           -0.852830774198     0.884284681727     0.270767262202    15.994914619570
         O           -0.314894774198    -1.656256318273     1.307967262202    15.994914619570
         O            2.098683225802    -1.965198318273    -0.182117737798    15.994914619570
         O            2.749221225802     0.772148681727    -0.443858737798    15.994914619570
         O            0.732941225802     2.524669681727     0.577972262202    15.994914619570
         O           -3.487680774198     0.536125681727    -0.457403737798    15.994914619570
         C           -0.241180774198    -1.407655318273    -0.091484737798    12.000000000000
         C            1.154675225802    -0.970875318273    -0.531616737798    12.000000000000
         C           -1.222248774198    -0.301981318273    -0.477208737798    12.000000000000
         C            1.502030225802     0.360635681727     0.109689262202    12.000000000000
         C            0.416130225802     1.384441681727    -0.164115737798    12.000000000000
         C           -2.696799774198    -0.534055618273    -0.122894337798    12.000000000000
         H           -0.494885774198    -2.352427318273    -0.585859737798     1.007825032230
         H            1.138122225802    -0.819540318273    -1.626067737798     1.007825032230
         H           -1.164978774198    -0.080508318273    -1.554471737798     1.007825032230
         H            1.580289225802     0.226078681727     1.197731262202     1.007825032230
         H            0.362185225802     1.601726681727    -1.245197737798     1.007825032230
         H           -2.733702774198    -0.813231318273     0.957273262202     1.007825032230
         H           -3.037572774198    -1.431367318273    -0.678201737798     1.007825032230
         H           -0.394976774198    -0.778253318273     1.726884262202     1.007825032230
         H            2.971746225802    -1.566089318273    -0.356067737798     1.007825032230
         H            3.004459225802     1.588308681727     0.023375262202     1.007825032230
         H            0.115151225802     3.232933681727     0.323400262202     1.007825032230
         H           -3.085820774198     1.298607681727    -0.004735737798     1.007825032230

  Basis Set: AUG-CC-PVTZ
    Blend: AUG-CC-PVTZ
  Basis Set: (AUG-CC-PVTZ AUX)
    Blend: AUG-CC-PVTZ-JKFIT
	 Reference Energy          =    -683.6064571127643603 [Eh]
	 Singles Energy            =      -0.0000000000000000 [Eh]
	 Same-Spin Energy          =      -0.6663444111519885 [Eh]
	 Opposite-Spin Energy      =      -2.0455532722786192 [Eh]
	 Correlation Energy        =      -2.7118976834306077 [Eh]
	 Total Energy              =    -686.3183547961949671 [Eh]

	 ================> DF-SCS-MP2 Energies <==================
	-----------------------------------------------------------
	 SCS Same-Spin Scale       =       0.3333333333333333 [-]
	 SCS Opposite-Spin Scale   =       1.2000000000000000 [-]
	 SCS Same-Spin Energy      =      -0.2221148037173295 [Eh]
	 SCS Opposite-Spin Energy  =      -2.4546639267343431 [Eh]
	 SCS Correlation Energy    =      -2.6767787304516726 [Eh]
	 SCS Total Energy          =    -686.2832358432160618 [Eh]
	-----------------------------------------------------------

  Dipole Moment: [D]
     X:     0.5416      Y:     3.2903      Z:    -1.1408     Total:     3.5243

*** Psi4 exiting successfully. Buy a developer a beer!
