                               Psi4 1.3.2 release

  ==> Input File <==

--------------------------------------------------------------------------
#psi4
#
memory 32 gb

molecule  {
0 1
  O       -0.8456270     0.8862080     0.2793150
  O       -0.3079160    -1.6544620     1.3165970
  O        2.1058880    -1.9633380    -0.1734630
  O        2.7564030     0.7739560    -0.4353370
  O        0.7402180     2.5264820     0.5866940
  O       -3.4805510     0.5379580    -0.4489300
  C       -0.1971068    -1.4100804     0.0170590
  C        1.1618270    -0.9690140    -0.5229560
  C       -1.2150640    -0.3000600    -0.4685780
  C        1.5092100     0.3624850     0.1183010
  C        0.4233390     1.3863000    -0.1554910
  C       -2.6607760    -0.5711350    -0.1020210
  H       -0.4877470    -2.3504840    -0.5773070
  H        1.1452800    -0.8176870    -1.6174030
  H       -1.1578680    -0.0786640    -1.5458690
  H        1.5875790     0.2279570     1.2063390
  H        0.3695010     1.6036290    -1.2365780
  H       -2.7264410    -0.8110830     0.9660040
  H       -3.0303370    -1.4295750    -0.6693420
  H       -0.3876700    -0.7765070     1.7356760
  H        2.9789380    -1.5641560    -0.3473760
  H        3.0115730     1.5902370     0.0317380
  H        0.1218180     3.2344810     0.3328360
  H       -3.0789740     1.3005050     0.0038810
units angstrom
no_reorient  #important for SAPT in psi4, default
symmetry c1  #important for SAPT in psi4, default
}

set PROPERTIES_ORIGIN ["COM"]
properties('MP2/aug-cc-pvtz', properties = ['dipole'])
--------------------------------------------------------------------------

    Molecular point group: c1
  Charge       = 0
  Multiplicity = 1
  Basis Set: AUG-CC-PVTZ
    Blend: AUG-CC-PVTZ
  Basis Set: (AUG-CC-PVTZ AUX)
    Blend: AUG-CC-PVTZ-JKFIT

    Orbital Energies [Eh]
    ---------------------

    Doubly Occupied:

       1A    -20.599395     2A    -20.592294     3A    -20.584657
       4A    -20.576488     5A    -20.563562     6A    -20.562411
       7A    -11.361499     8A    -11.301855     9A    -11.299192
      10A    -11.297693    11A    -11.291951    12A    -11.284338
      13A     -1.448803    14A     -1.416730    15A     -1.390904
      16A     -1.375172    17A     -1.358605    18A     -1.354901
      19A     -1.066681    20A     -1.045213    21A     -0.946279
      22A     -0.883568    23A     -0.845117    24A     -0.811402
      25A     -0.765548    26A     -0.738935    27A     -0.725150
      28A     -0.712484    29A     -0.690281    30A     -0.670457
      31A     -0.663064    32A     -0.638790    33A     -0.628601
      34A     -0.619645    35A     -0.599175    36A     -0.593036
      37A     -0.576337    38A     -0.561322    39A     -0.544788
      40A     -0.536242    41A     -0.525073    42A     -0.513473
      43A     -0.494759    44A     -0.473705    45A     -0.465811
      46A     -0.460082    47A     -0.439209    48A     -0.420267

  @DF-RHF Final Energy:  -683.59749325805899

   => Energetics <=

    Nuclear Repulsion Energy =            836.7581894418556203
    One-Electron Energy =               -2602.0814738104913886
    Two-Electron Energy =                1081.7257911105766652
    Total Energy =                       -683.5974932580591030
  Basis Set: (AUG-CC-PVTZ AUX)
    Blend: AUG-CC-PVTZ-RI
    Molecular point group: c1

    Geometry (in Angstrom), charge = 0, multiplicity = 1:

       Center              X                  Y                   Z               Mass
    ------------   -----------------  -----------------  -----------------  -----------------
         O           -0.857176112436     0.887236291245     0.263224978092    15.994914619570
         O           -0.319465112436    -1.653433708755     1.300506978092    15.994914619570
         O            2.094338887564    -1.962309708755    -0.189553021908    15.994914619570
         O            2.744853887564     0.774984291245    -0.451427021908    15.994914619570
         O            0.728668887564     2.527510291245     0.570603978092    15.994914619570
         O           -3.492100112436     0.538986291245    -0.465020021908    15.994914619570
         C           -0.208655912436    -1.409052108755     0.000968978092    12.000000000000
         C            1.150277887564    -0.967985708755    -0.539046021908    12.000000000000
         C           -1.226613112436    -0.299031708755    -0.484668021908    12.000000000000
         C            1.497660887564     0.363513291245     0.102210978092    12.000000000000
         C            0.411789887564     1.387328291245    -0.171581021908    12.000000000000
         C           -2.672325112436    -0.570106708755    -0.118111021908    12.000000000000
         H           -0.499296112436    -2.349455708755    -0.593397021908     1.007825032230
         H            1.133730887564    -0.816658708755    -1.633493021908     1.007825032230
         H           -1.169417112436    -0.077635708755    -1.561959021908     1.007825032230
         H            1.576029887564     0.228985291245     1.190248978092     1.007825032230
         H            0.357951887564     1.604657291245    -1.252668021908     1.007825032230
         H           -2.737990112436    -0.810054708755     0.949913978092     1.007825032230
         H           -3.041886112436    -1.428546708755    -0.685432021908     1.007825032230
         H           -0.399219112436    -0.775478708755     1.719585978092     1.007825032230
         H            2.967388887564    -1.563127708755    -0.363466021908     1.007825032230
         H            3.000023887564     1.591265291245     0.015647978092     1.007825032230
         H            0.110268887564     3.235509291245     0.316745978092     1.007825032230
         H           -3.090523112436     1.301533291245    -0.012209021908     1.007825032230

  Basis Set: AUG-CC-PVTZ
    Blend: AUG-CC-PVTZ
  Basis Set: (AUG-CC-PVTZ AUX)
    Blend: AUG-CC-PVTZ-JKFIT
	 Reference Energy          =    -683.5974932580589893 [Eh]
	 Singles Energy            =      -0.0000000000000000 [Eh]
	 Same-Spin Energy          =      -0.6667938449206525 [Eh]
	 Opposite-Spin Energy      =      -2.0458344867233551 [Eh]
	 Correlation Energy        =      -2.7126283316440079 [Eh]
	 Total Energy              =    -686.3101215897030443 [Eh]

	 ================> DF-SCS-MP2 Energies <==================
	-----------------------------------------------------------
	 SCS Same-Spin Scale       =       0.3333333333333333 [-]
	 SCS Opposite-Spin Scale   =       1.2000000000000000 [-]
	 SCS Same-Spin Energy      =      -0.2222646149735508 [Eh]
	 SCS Opposite-Spin Energy  =      -2.4550013840680260 [Eh]
	 SCS Correlation Energy    =      -2.6772659990415768 [Eh]
	 SCS Total Energy          =    -686.2747592571005271 [Eh]
	-----------------------------------------------------------

  Dipole Moment: [D]
     X:     0.6711      Y:     3.1212      Z:    -0.8015     Total:     3.2916

*** Psi4 exiting successfully. Buy a developer a beer!
