                               Psi4 1.4a3.dev225

  ==> Input File <==

--------------------------------------------------------------------------
#psi4
#
memory 32 gb

molecule  {
0 1
  O       -0.8456650     0.8861440     0.2793920
  O       -0.3077290    -1.6543970     1.3165920
  O        2.1058490    -1.9633390    -0.1734930
  O        2.7563870     0.7740080    -0.4352340
  O        0.7401070     2.5265290     0.5865970
  O       -3.4805150     0.5379850    -0.4487790
  C       -0.2340150    -1.4057960    -0.0828600
  C        1.1161467    -0.9833143    -0.5085840
  C       -1.2150830    -0.3001220    -0.4685840
  C        1.5091960     0.3624950     0.1183140
  C        0.4232960     1.3863010    -0.1554910
  C       -2.6608140    -0.5711940    -0.1020800
  H       -0.4877200    -2.3505680    -0.5772350
  H        1.1452880    -0.8176810    -1.6174430
  H       -1.1578130    -0.0786490    -1.5458470
  H        1.5874550     0.2279380     1.2063560
  H        0.3693510     1.6035860    -1.2365730
  H       -2.7265370    -0.8113720     0.9658980
  H       -3.0304070    -1.4295080    -0.6695770
  H       -0.3878110    -0.7763940     1.7355090
  H        2.9789120    -1.5642300    -0.3474430
  H        3.0116250     1.5901680     0.0320000
  H        0.1223170     3.2347930     0.3320250
  H       -3.0786550     1.3004670     0.0038890
units angstrom
no_reorient  #important for SAPT in psi4, default
symmetry c1  #important for SAPT in psi4, default
}

set PROPERTIES_ORIGIN ["COM"]
properties('MP2/aug-cc-pvtz', properties = ['dipole'])
--------------------------------------------------------------------------

    Molecular point group: c1
  Charge       = 0
  Multiplicity = 1
  Basis Set: AUG-CC-PVTZ
    Blend: AUG-CC-PVTZ
  Basis Set: (AUG-CC-PVTZ AUX)
    Blend: AUG-CC-PVTZ-JKFIT

    Orbital Energies [Eh]
    ---------------------

    Doubly Occupied:

       1A    -20.599855     2A    -20.595767     3A    -20.586246
       4A    -20.565967     5A    -20.565177     6A    -20.561104
       7A    -11.362118     8A    -11.306156     9A    -11.300176
      10A    -11.297058    11A    -11.296169    12A    -11.286689
      13A     -1.448568    14A     -1.390510    15A     -1.389072
      16A     -1.368280    17A     -1.355292    18A     -1.348971
      19A     -1.079153    20A     -1.051278    21A     -0.953679
      22A     -0.885385    23A     -0.850306    24A     -0.807806
      25A     -0.758915    26A     -0.738444    27A     -0.721368
      28A     -0.714474    29A     -0.689474    30A     -0.665878
      31A     -0.657960    32A     -0.641551    33A     -0.626837
      34A     -0.619220    35A     -0.599049    36A     -0.580174
      37A     -0.575666    38A     -0.560794    39A     -0.538178
      40A     -0.533793    41A     -0.528862    42A     -0.512443
      43A     -0.496282    44A     -0.483268    45A     -0.473275
      46A     -0.458636    47A     -0.442603    48A     -0.433435

  @DF-RHF Final Energy:  -683.60535153278352

   => Energetics <=

    Nuclear Repulsion Energy =            836.2980886182756421
    One-Electron Energy =               -2601.2041625256210864
    Two-Electron Energy =                1081.3007223745619285
    Total Energy =                       -683.6053515327835157
  Basis Set: (AUG-CC-PVTZ AUX)
    Blend: AUG-CC-PVTZ-RI
    Molecular point group: c1

    Geometry (in Angstrom), charge = 0, multiplicity = 1:

       Center              X                  Y                   Z               Mass
    ------------   -----------------  -----------------  -----------------  -----------------
         O           -0.851706216885     0.887836497600     0.268994713083    15.994914619570
         O           -0.313770216885    -1.652704502400     1.306194713083    15.994914619570
         O            2.099807783115    -1.961646502400    -0.183890286917    15.994914619570
         O            2.750345783115     0.775700497600    -0.445631286917    15.994914619570
         O            0.734065783115     2.528221497600     0.576199713083    15.994914619570
         O           -3.486556216885     0.539677497600    -0.459176286917    15.994914619570
         C           -0.240056216885    -1.404103502400    -0.093257286917    12.000000000000
         C            1.110105483115    -0.981621802400    -0.518981286917    12.000000000000
         C           -1.221124216885    -0.298429502400    -0.478981286917    12.000000000000
         C            1.503154783115     0.364187497600     0.107916713083    12.000000000000
         C            0.417254783115     1.387993497600    -0.165888286917    12.000000000000
         C           -2.666855216885    -0.569501502400    -0.112477286917    12.000000000000
         H           -0.493761216885    -2.348875502400    -0.587632286917     1.007825032230
         H            1.139246783115    -0.815988502400    -1.627840286917     1.007825032230
         H           -1.163854216885    -0.076956502400    -1.556244286917     1.007825032230
         H            1.581413783115     0.229630497600     1.195958713083     1.007825032230
         H            0.363309783115     1.605278497600    -1.246970286917     1.007825032230
         H           -2.732578216885    -0.809679502400     0.955500713083     1.007825032230
         H           -3.036448216885    -1.427815502400    -0.679974286917     1.007825032230
         H           -0.393852216885    -0.774701502400     1.725111713083     1.007825032230
         H            2.972870783115    -1.562537502400    -0.357840286917     1.007825032230
         H            3.005583783115     1.591860497600     0.021602713083     1.007825032230
         H            0.116275783115     3.236485497600     0.321627713083     1.007825032230
         H           -3.084696216885     1.302159497600    -0.006508286917     1.007825032230

  Basis Set: AUG-CC-PVTZ
    Blend: AUG-CC-PVTZ
  Basis Set: (AUG-CC-PVTZ AUX)
    Blend: AUG-CC-PVTZ-JKFIT
	 Reference Energy          =    -683.6053515327835157 [Eh]
	 Singles Energy            =      -0.0000000000000000 [Eh]
	 Same-Spin Energy          =      -0.6665506443464122 [Eh]
	 Opposite-Spin Energy      =      -2.0465403678884364 [Eh]
	 Correlation Energy        =      -2.7130910122348486 [Eh]
	 Total Energy              =    -686.3184425450183426 [Eh]

	 ================> DF-SCS-MP2 Energies <==================
	-----------------------------------------------------------
	 SCS Same-Spin Scale       =       0.3333333333333333 [-]
	 SCS Opposite-Spin Scale   =       1.2000000000000000 [-]
	 SCS Same-Spin Energy      =      -0.2221835481154707 [Eh]
	 SCS Opposite-Spin Energy  =      -2.4558484414661237 [Eh]
	 SCS Correlation Energy    =      -2.6780319895815943 [Eh]
	 SCS Total Energy          =    -686.2833835223650567 [Eh]
	-----------------------------------------------------------

  Dipole Moment: [D]
     X:     0.5825      Y:     3.1905      Z:    -1.1029     Total:     3.4257

*** Psi4 exiting successfully. Buy a developer a beer!
