                               Psi4 1.3.2 release

  ==> Input File <==

--------------------------------------------------------------------------
#psi4
#
memory 32 gb

molecule  {
0 1
  O       -0.8456270     0.8862080     0.2793150
  O       -0.3079160    -1.6544620     1.3165970
  O        2.1058880    -1.9633380    -0.1734630
  O        2.7564030     0.7739560    -0.4353370
  O        0.7402180     2.5264820     0.5866940
  O       -3.4805510     0.5379580    -0.4489300
  C       -0.2340330    -1.4057570    -0.0828570
  C        1.1618270    -0.9690140    -0.5229560
  C       -1.2150640    -0.3000600    -0.4685780
  C        1.5092100     0.3624850     0.1183010
  C        0.4233390     1.3863000    -0.1554910
  C       -2.6031320    -0.6491230    -0.0776274
  H       -0.4877470    -2.3504840    -0.5773070
  H        1.1452800    -0.8176870    -1.6174030
  H       -1.1578680    -0.0786640    -1.5458690
  H        1.5875790     0.2279570     1.2063390
  H        0.3695010     1.6036290    -1.2365780
  H       -2.7264410    -0.8110830     0.9660040
  H       -3.0303370    -1.4295750    -0.6693420
  H       -0.3876700    -0.7765070     1.7356760
  H        2.9789380    -1.5641560    -0.3473760
  H        3.0115730     1.5902370     0.0317380
  H        0.1218180     3.2344810     0.3328360
  H       -3.0789740     1.3005050     0.0038810
units angstrom
no_reorient  #important for SAPT in psi4, default
symmetry c1  #important for SAPT in psi4, default
}

set PROPERTIES_ORIGIN ["COM"]
properties('MP2/aug-cc-pvtz', properties = ['dipole'])
--------------------------------------------------------------------------

    Molecular point group: c1
  Charge       = 0
  Multiplicity = 1
  Basis Set: AUG-CC-PVTZ
    Blend: AUG-CC-PVTZ
  Basis Set: (AUG-CC-PVTZ AUX)
    Blend: AUG-CC-PVTZ-JKFIT

    Orbital Energies [Eh]
    ---------------------

    Doubly Occupied:

       1A    -20.601061     2A    -20.596855     3A    -20.586182
       4A    -20.567478     5A    -20.564835     6A    -20.554112
       7A    -11.363866     8A    -11.307688     9A    -11.299929
      10A    -11.297971    11A    -11.295645    12A    -11.286064
      13A     -1.449380    14A     -1.392686    15A     -1.389368
      16A     -1.364452    17A     -1.355076    18A     -1.325544
      19A     -1.077078    20A     -1.058048    21A     -0.954301
      22A     -0.888772    23A     -0.850706    24A     -0.810397
      25A     -0.760915    26A     -0.735908    27A     -0.723636
      28A     -0.716863    29A     -0.682119    30A     -0.663068
      31A     -0.659240    32A     -0.639357    33A     -0.625591
      34A     -0.618077    35A     -0.591504    36A     -0.580943
      37A     -0.570962    38A     -0.561839    39A     -0.541281
      40A     -0.535296    41A     -0.525946    42A     -0.514545
      43A     -0.499349    44A     -0.483735    45A     -0.472506
      46A     -0.461202    47A     -0.447314    48A     -0.431945

  @DF-RHF Final Energy:  -683.59858188406974

   => Energetics <=

    Nuclear Repulsion Energy =            835.9229796495835672
    One-Electron Energy =               -2600.4818580650958211
    Two-Electron Energy =                1080.9602965314425091
    Total Energy =                       -683.5985818840697448
  Basis Set: (AUG-CC-PVTZ AUX)
    Blend: AUG-CC-PVTZ-RI
    Molecular point group: c1

    Geometry (in Angstrom), charge = 0, multiplicity = 1:

       Center              X                  Y                   Z               Mass
    ------------   -----------------  -----------------  -----------------  -----------------
         O           -0.858556812881     0.892145535758     0.268258032338    15.994914619570
         O           -0.320845812881    -1.648524464242     1.305540032338    15.994914619570
         O            2.092958187119    -1.957400464242    -0.184519967662    15.994914619570
         O            2.743473187119     0.779893535758    -0.446393967662    15.994914619570
         O            0.727288187119     2.532419535758     0.575637032338    15.994914619570
         O           -3.493480812881     0.543895535758    -0.459986967662    15.994914619570
         C           -0.246962812881    -1.399819464242    -0.093913967662    12.000000000000
         C            1.148897187119    -0.963076464242    -0.534012967662    12.000000000000
         C           -1.227993812881    -0.294122464242    -0.479634967662    12.000000000000
         C            1.496280187119     0.368422535758     0.107244032338    12.000000000000
         C            0.410409187119     1.392237535758    -0.166547967662    12.000000000000
         C           -2.616061812881    -0.643185464242    -0.088684367662    12.000000000000
         H           -0.500676812881    -2.344546464242    -0.588363967662     1.007825032230
         H            1.132350187119    -0.811749464242    -1.628459967662     1.007825032230
         H           -1.170797812881    -0.072726464242    -1.556925967662     1.007825032230
         H            1.574649187119     0.233894535758     1.195282032338     1.007825032230
         H            0.356571187119     1.609566535758    -1.247634967662     1.007825032230
         H           -2.739370812881    -0.805145464242     0.954947032338     1.007825032230
         H           -3.043266812881    -1.423637464242    -0.680398967662     1.007825032230
         H           -0.400599812881    -0.770569464242     1.724619032338     1.007825032230
         H            2.966008187119    -1.558218464242    -0.358432967662     1.007825032230
         H            2.998643187119     1.596174535758     0.020681032338     1.007825032230
         H            0.108888187119     3.240418535758     0.321779032338     1.007825032230
         H           -3.091903812881     1.306442535758    -0.007175967662     1.007825032230

  Basis Set: AUG-CC-PVTZ
    Blend: AUG-CC-PVTZ
  Basis Set: (AUG-CC-PVTZ AUX)
    Blend: AUG-CC-PVTZ-JKFIT
	 Reference Energy          =    -683.5985818840697448 [Eh]
	 Singles Energy            =      -0.0000000000000000 [Eh]
	 Same-Spin Energy          =      -0.6668282096233855 [Eh]
	 Opposite-Spin Energy      =      -2.0482868820871545 [Eh]
	 Correlation Energy        =      -2.7151150917105400 [Eh]
	 Total Energy              =    -686.3136969757803172 [Eh]

	 ================> DF-SCS-MP2 Energies <==================
	-----------------------------------------------------------
	 SCS Same-Spin Scale       =       0.3333333333333333 [-]
	 SCS Opposite-Spin Scale   =       1.2000000000000000 [-]
	 SCS Same-Spin Energy      =      -0.2222760698744618 [Eh]
	 SCS Opposite-Spin Energy  =      -2.4579442585045852 [Eh]
	 SCS Correlation Energy    =      -2.6802203283790469 [Eh]
	 SCS Total Energy          =    -686.2788022124487952 [Eh]
	-----------------------------------------------------------

  Dipole Moment: [D]
     X:     0.8908      Y:     2.9251      Z:    -1.0326     Total:     3.2274

*** Psi4 exiting successfully. Buy a developer a beer!
