                               Psi4 1.3.2 release

  ==> Input File <==

--------------------------------------------------------------------------
#psi4
#
memory 32 gb

molecule  {
0 1
  O       -0.8456270     0.8862080     0.2793150
  O       -0.3079160    -1.6544620     1.3165970
  O        2.1058880    -1.9633380    -0.1734630
  O        2.7564030     0.7739560    -0.4353370
  O        0.7402180     2.5264820     0.5866940
  O       -3.4805510     0.5379580    -0.4489300
  C       -0.2340330    -1.4057570    -0.0828570
  C        1.1618270    -0.9690140    -0.5229560
  C       -1.2150640    -0.3000600    -0.4685780
  C        1.5092100     0.3624850     0.1183010
  C        0.4233390     1.3863000    -0.1554910
  C       -2.6607760    -0.5711350    -0.1020210
  H       -0.4877470    -2.3504840    -0.5773070
  H        1.1482750    -0.8450769    -1.4193100
  H       -1.1578680    -0.0786640    -1.5458690
  H        1.5875790     0.2279570     1.2063390
  H        0.3695010     1.6036290    -1.2365780
  H       -2.7264410    -0.8110830     0.9660040
  H       -3.0303370    -1.4295750    -0.6693420
  H       -0.3876700    -0.7765070     1.7356760
  H        2.9789380    -1.5641560    -0.3473760
  H        3.0115730     1.5902370     0.0317380
  H        0.1218180     3.2344810     0.3328360
  H       -3.0789740     1.3005050     0.0038810
units angstrom
no_reorient  #important for SAPT in psi4, default
symmetry c1  #important for SAPT in psi4, default
}

set PROPERTIES_ORIGIN ["COM"]
properties('MP2/aug-cc-pvtz', properties = ['dipole'])
--------------------------------------------------------------------------

    Molecular point group: c1
  Charge       = 0
  Multiplicity = 1
  Basis Set: AUG-CC-PVTZ
    Blend: AUG-CC-PVTZ
  Basis Set: (AUG-CC-PVTZ AUX)
    Blend: AUG-CC-PVTZ-JKFIT

    Orbital Energies [Eh]
    ---------------------

    Doubly Occupied:

       1A    -20.600244     2A    -20.595264     3A    -20.585324
       4A    -20.564723     5A    -20.563946     6A    -20.560667
       7A    -11.362703     8A    -11.305349     9A    -11.297208
      10A    -11.295800    11A    -11.286173    12A    -11.269788
      13A     -1.448393    14A     -1.391920    15A     -1.388684
      16A     -1.367413    17A     -1.356202    18A     -1.351321
      19A     -1.081087    20A     -1.052208    21A     -0.952645
      22A     -0.891757    23A     -0.854531    24A     -0.820367
      25A     -0.761897    26A     -0.738244    27A     -0.729210
      28A     -0.715335    29A     -0.691021    30A     -0.674045
      31A     -0.657303    32A     -0.641325    33A     -0.623687
      34A     -0.618715    35A     -0.599733    36A     -0.583322
      37A     -0.575423    38A     -0.564386    39A     -0.540147
      40A     -0.534743    41A     -0.528587    42A     -0.511769
      43A     -0.496092    44A     -0.483865    45A     -0.473126
      46A     -0.463224    47A     -0.445647    48A     -0.429872

  @DF-RHF Final Energy:  -683.57815527367495

   => Energetics <=

    Nuclear Repulsion Energy =            837.2521087081199767
    One-Electron Energy =               -2603.0116508905207411
    Two-Electron Energy =                1082.1813869087259263
    Total Energy =                       -683.5781552736748381
  Basis Set: (AUG-CC-PVTZ AUX)
    Blend: AUG-CC-PVTZ-RI
    Molecular point group: c1

    Geometry (in Angstrom), charge = 0, multiplicity = 1:

       Center              X                  Y                   Z               Mass
    ------------   -----------------  -----------------  -----------------  -----------------
         O           -0.854731995569     0.887101468873     0.268774962053    15.994914619570
         O           -0.317020995569    -1.653568531127     1.306056962053    15.994914619570
         O            2.096783004431    -1.962444531127    -0.184003037947    15.994914619570
         O            2.747298004431     0.774849468873    -0.445877037947    15.994914619570
         O            0.731113004431     2.527375468873     0.576153962053    15.994914619570
         O           -3.489655995569     0.538851468873    -0.459470037947    15.994914619570
         C           -0.243137995569    -1.404863531127    -0.093397037947    12.000000000000
         C            1.152722004431    -0.968120531127    -0.533496037947    12.000000000000
         C           -1.224168995569    -0.299166531127    -0.479118037947    12.000000000000
         C            1.500105004431     0.363378468873     0.107760962053    12.000000000000
         C            0.414234004431     1.387193468873    -0.166031037947    12.000000000000
         C           -2.669880995569    -0.570241531127    -0.112561037947    12.000000000000
         H           -0.496851995569    -2.349590531127    -0.587847037947     1.007825032230
         H            1.139170004431    -0.844183431127    -1.429850037947     1.007825032230
         H           -1.166972995569    -0.077770531127    -1.556409037947     1.007825032230
         H            1.578474004431     0.228850468873     1.195798962053     1.007825032230
         H            0.360396004431     1.604522468873    -1.247118037947     1.007825032230
         H           -2.735545995569    -0.810189531127     0.955463962053     1.007825032230
         H           -3.039441995569    -1.428681531127    -0.679882037947     1.007825032230
         H           -0.396774995569    -0.775613531127     1.725135962053     1.007825032230
         H            2.969833004431    -1.563262531127    -0.357916037947     1.007825032230
         H            3.002468004431     1.591130468873     0.021197962053     1.007825032230
         H            0.112713004431     3.235374468873     0.322295962053     1.007825032230
         H           -3.088078995569     1.301398468873    -0.006659037947     1.007825032230

  Basis Set: AUG-CC-PVTZ
    Blend: AUG-CC-PVTZ
  Basis Set: (AUG-CC-PVTZ AUX)
    Blend: AUG-CC-PVTZ-JKFIT
	 Reference Energy          =    -683.5781552736749518 [Eh]
	 Singles Energy            =      -0.0000000000000000 [Eh]
	 Same-Spin Energy          =      -0.6660196756218231 [Eh]
	 Opposite-Spin Energy      =      -2.0450734867901921 [Eh]
	 Correlation Energy        =      -2.7110931624120154 [Eh]
	 Total Energy              =    -686.2892484360869503 [Eh]

	 ================> DF-SCS-MP2 Energies <==================
	-----------------------------------------------------------
	 SCS Same-Spin Scale       =       0.3333333333333333 [-]
	 SCS Opposite-Spin Scale   =       1.2000000000000000 [-]
	 SCS Same-Spin Energy      =      -0.2220065585406077 [Eh]
	 SCS Opposite-Spin Energy  =      -2.4540881841482305 [Eh]
	 SCS Correlation Energy    =      -2.6760947426888384 [Eh]
	 SCS Total Energy          =    -686.2542500163638124 [Eh]
	-----------------------------------------------------------

  Dipole Moment: [D]
     X:     0.6085      Y:     3.2034      Z:    -1.1881     Total:     3.4704

*** Psi4 exiting successfully. Buy a developer a beer!
