                               Psi4 1.3.2 release

  ==> Input File <==

--------------------------------------------------------------------------
#psi4
#
memory 32 gb

molecule  {
0 1
  O       -0.8456270     0.8862080     0.2793150
  O       -0.3079160    -1.6544620     1.3165970
  O        2.1058880    -1.9633380    -0.1734630
  O        2.7564030     0.7739560    -0.4353370
  O        0.7402180     2.5264820     0.5866940
  O       -3.4805510     0.5379580    -0.4489300
  C       -0.2340330    -1.4057570    -0.0828570
  C        1.1618270    -0.9690140    -0.5229560
  C       -1.2150640    -0.3000600    -0.4685780
  C        1.5092100     0.3624850     0.1183010
  C        0.4233390     1.3863000    -0.1554910
  C       -2.7760640    -0.4151591    -0.1508081
  H       -0.4877470    -2.3504840    -0.5773070
  H        1.1452800    -0.8176870    -1.6174030
  H       -1.1578680    -0.0786640    -1.5458690
  H        1.5875790     0.2279570     1.2063390
  H        0.3695010     1.6036290    -1.2365780
  H       -2.7264410    -0.8110830     0.9660040
  H       -3.0303370    -1.4295750    -0.6693420
  H       -0.3876700    -0.7765070     1.7356760
  H        2.9789380    -1.5641560    -0.3473760
  H        3.0115730     1.5902370     0.0317380
  H        0.1218180     3.2344810     0.3328360
  H       -3.0789740     1.3005050     0.0038810
units angstrom
no_reorient  #important for SAPT in psi4, default
symmetry c1  #important for SAPT in psi4, default
}

set PROPERTIES_ORIGIN ["COM"]
properties('MP2/aug-cc-pvtz', properties = ['dipole'])
--------------------------------------------------------------------------

    Molecular point group: c1
  Charge       = 0
  Multiplicity = 1
  Basis Set: AUG-CC-PVTZ
    Blend: AUG-CC-PVTZ
  Basis Set: (AUG-CC-PVTZ AUX)
    Blend: AUG-CC-PVTZ-JKFIT

    Orbital Energies [Eh]
    ---------------------

    Doubly Occupied:

       1A    -20.598369     2A    -20.591646     3A    -20.588014
       4A    -20.583742     5A    -20.562380     6A    -20.560485
       7A    -11.359722     8A    -11.298254     9A    -11.297488
      10A    -11.296940    11A    -11.294941    12A    -11.293064
      13A     -1.474467    14A     -1.443064    15A     -1.389819
      16A     -1.382223    17A     -1.359573    18A     -1.349927
      19A     -1.068204    20A     -1.036807    21A     -0.935981
      22A     -0.884842    23A     -0.856097    24A     -0.805708
      25A     -0.760954    26A     -0.751418    27A     -0.721916
      28A     -0.713066    29A     -0.708158    30A     -0.669549
      31A     -0.665381    32A     -0.651670    33A     -0.638834
      34A     -0.636326    35A     -0.611911    36A     -0.581295
      37A     -0.574858    38A     -0.566874    39A     -0.539080
      40A     -0.535830    41A     -0.527255    42A     -0.503325
      43A     -0.481511    44A     -0.462704    45A     -0.458312
      46A     -0.453889    47A     -0.436072    48A     -0.406668

  @DF-RHF Final Energy:  -683.56155798502152

   => Energetics <=

    Nuclear Repulsion Energy =            836.3773266332678986
    One-Electron Energy =               -2601.1405451969430942
    Two-Electron Energy =                1081.2016605786539003
    Total Energy =                       -683.5615579850214090
  Basis Set: (AUG-CC-PVTZ AUX)
    Blend: AUG-CC-PVTZ-RI
    Molecular point group: c1

    Geometry (in Angstrom), charge = 0, multiplicity = 1:

       Center              X                  Y                   Z               Mass
    ------------   -----------------  -----------------  -----------------  -----------------
         O           -0.847032071389     0.876553433279     0.273135028207    15.994914619570
         O           -0.309321071389    -1.664116566721     1.310417028207    15.994914619570
         O            2.104482928611    -1.972992566721    -0.179642971793    15.994914619570
         O            2.754997928611     0.764301433279    -0.441516971793    15.994914619570
         O            0.738812928611     2.516827433279     0.580514028207    15.994914619570
         O           -3.481956071389     0.528303433279    -0.455109971793    15.994914619570
         C           -0.235438071389    -1.415411566721    -0.089036971793    12.000000000000
         C            1.160421928611    -0.978668566721    -0.529135971793    12.000000000000
         C           -1.216469071389    -0.309714566721    -0.474757971793    12.000000000000
         C            1.507804928611     0.352830433279     0.112121028207    12.000000000000
         C            0.421933928611     1.376645433279    -0.161670971793    12.000000000000
         C           -2.777469071389    -0.424813666721    -0.156988071793    12.000000000000
         H           -0.489152071389    -2.360138566721    -0.583486971793     1.007825032230
         H            1.143874928611    -0.827341566721    -1.623582971793     1.007825032230
         H           -1.159273071389    -0.088318566721    -1.552048971793     1.007825032230
         H            1.586173928611     0.218302433279     1.200159028207     1.007825032230
         H            0.368095928611     1.593974433279    -1.242757971793     1.007825032230
         H           -2.727846071389    -0.820737566721     0.959824028207     1.007825032230
         H           -3.031742071389    -1.439229566721    -0.675521971793     1.007825032230
         H           -0.389075071389    -0.786161566721     1.729496028207     1.007825032230
         H            2.977532928611    -1.573810566721    -0.353555971793     1.007825032230
         H            3.010167928611     1.580582433279     0.025558028207     1.007825032230
         H            0.120412928611     3.224826433279     0.326656028207     1.007825032230
         H           -3.080379071389     1.290850433279    -0.002298971793     1.007825032230

  Basis Set: AUG-CC-PVTZ
    Blend: AUG-CC-PVTZ
  Basis Set: (AUG-CC-PVTZ AUX)
    Blend: AUG-CC-PVTZ-JKFIT
	 Reference Energy          =    -683.5615579850215227 [Eh]
	 Singles Energy            =      -0.0000000000000000 [Eh]
	 Same-Spin Energy          =      -0.6674217619433807 [Eh]
	 Opposite-Spin Energy      =      -2.0455681017793603 [Eh]
	 Correlation Energy        =      -2.7129898637227408 [Eh]
	 Total Energy              =    -686.2745478487443052 [Eh]

	 ================> DF-SCS-MP2 Energies <==================
	-----------------------------------------------------------
	 SCS Same-Spin Scale       =       0.3333333333333333 [-]
	 SCS Opposite-Spin Scale   =       1.2000000000000000 [-]
	 SCS Same-Spin Energy      =      -0.2224739206477935 [Eh]
	 SCS Opposite-Spin Energy  =      -2.4546817221352324 [Eh]
	 SCS Correlation Energy    =      -2.6771556427830259 [Eh]
	 SCS Total Energy          =    -686.2387136278046000 [Eh]
	-----------------------------------------------------------

  Dipole Moment: [D]
     X:     0.0906      Y:     3.8064      Z:    -1.3090     Total:     4.0262

*** Psi4 exiting successfully. Buy a developer a beer!
