                               Psi4 1.3.2 release

  ==> Input File <==

--------------------------------------------------------------------------
#psi4
#
memory 32 gb

molecule  {
0 1
  O       -0.8456270     0.8862080     0.2793150
  O       -0.3079160    -1.6544620     1.3165970
  O        2.1058880    -1.9633380    -0.1734630
  O        2.7564030     0.7739560    -0.4353370
  O        0.7402180     2.5264820     0.5866940
  O       -3.4805510     0.5379580    -0.4489300
  C       -0.2340330    -1.4057570    -0.0828570
  C        1.1618270    -0.9690140    -0.5229560
  C       -1.3434991    -0.1553038    -0.5190760
  C        1.5092100     0.3624850     0.1183010
  C        0.4233390     1.3863000    -0.1554910
  C       -2.6607760    -0.5711350    -0.1020210
  H       -0.4877470    -2.3504840    -0.5773070
  H        1.1452800    -0.8176870    -1.6174030
  H       -1.1578680    -0.0786640    -1.5458690
  H        1.5875790     0.2279570     1.2063390
  H        0.3695010     1.6036290    -1.2365780
  H       -2.7264410    -0.8110830     0.9660040
  H       -3.0303370    -1.4295750    -0.6693420
  H       -0.3876700    -0.7765070     1.7356760
  H        2.9789380    -1.5641560    -0.3473760
  H        3.0115730     1.5902370     0.0317380
  H        0.1218180     3.2344810     0.3328360
  H       -3.0789740     1.3005050     0.0038810
units angstrom
no_reorient  #important for SAPT in psi4, default
symmetry c1  #important for SAPT in psi4, default
}

set PROPERTIES_ORIGIN ["COM"]
properties('MP2/aug-cc-pvtz', properties = ['dipole'])
--------------------------------------------------------------------------

    Molecular point group: c1
  Charge       = 0
  Multiplicity = 1
  Basis Set: AUG-CC-PVTZ
    Blend: AUG-CC-PVTZ
  Basis Set: (AUG-CC-PVTZ AUX)
    Blend: AUG-CC-PVTZ-JKFIT

    Orbital Energies [Eh]
    ---------------------

    Doubly Occupied:

       1A    -20.602941     2A    -20.599742     3A    -20.585003
       4A    -20.561769     5A    -20.561414     6A    -20.560730
       7A    -11.366902     8A    -11.304696     9A    -11.298246
      10A    -11.293760    11A    -11.291639    12A    -11.283178
      13A     -1.456072    14A     -1.395108    15A     -1.388798
      16A     -1.367520    17A     -1.359503    18A     -1.349855
      19A     -1.062638    20A     -1.051029    21A     -0.951207
      22A     -0.882578    23A     -0.851372    24A     -0.808819
      25A     -0.759367    26A     -0.741471    27A     -0.723994
      28A     -0.713945    29A     -0.691900    30A     -0.659392
      31A     -0.656403    32A     -0.639545    33A     -0.638494
      34A     -0.616935    35A     -0.600291    36A     -0.579845
      37A     -0.575674    38A     -0.563028    39A     -0.541352
      40A     -0.539570    41A     -0.532784    42A     -0.517077
      43A     -0.499763    44A     -0.472411    45A     -0.464841
      46A     -0.458557    47A     -0.445461    48A     -0.395437

  @DF-RHF Final Energy:  -683.57740498792964

   => Energetics <=

    Nuclear Repulsion Energy =            834.7024919723941139
    One-Electron Energy =               -2598.0356854008105074
    Two-Electron Energy =                1079.7557884404868673
    Total Energy =                       -683.5774049879296399
  Basis Set: (AUG-CC-PVTZ AUX)
    Blend: AUG-CC-PVTZ-RI
    Molecular point group: c1

    Geometry (in Angstrom), charge = 0, multiplicity = 1:

       Center              X                  Y                   Z               Mass
    ------------   -----------------  -----------------  -----------------  -----------------
         O           -0.846155906603     0.877301149966     0.273249048054    15.994914619570
         O           -0.308444906603    -1.663368850034     1.310531048054    15.994914619570
         O            2.105359093397    -1.972244850034    -0.179528951946    15.994914619570
         O            2.755874093397     0.765049149966    -0.441402951946    15.994914619570
         O            0.739689093397     2.517575149966     0.580628048054    15.994914619570
         O           -3.481079906603     0.529051149966    -0.454995951946    15.994914619570
         C           -0.234561906603    -1.414663850034    -0.088922951946    12.000000000000
         C            1.161298093397    -0.977920850034    -0.529021951946    12.000000000000
         C           -1.344028006603    -0.164210650034    -0.525141951946    12.000000000000
         C            1.508681093397     0.353578149966     0.112235048054    12.000000000000
         C            0.422810093397     1.377393149966    -0.161556951946    12.000000000000
         C           -2.661304906603    -0.580041850034    -0.108086951946    12.000000000000
         H           -0.488275906603    -2.359390850034    -0.583372951946     1.007825032230
         H            1.144751093397    -0.826593850034    -1.623468951946     1.007825032230
         H           -1.158396906603    -0.087570850034    -1.551934951946     1.007825032230
         H            1.587050093397     0.219050149966     1.200273048054     1.007825032230
         H            0.368972093397     1.594722149966    -1.242643951946     1.007825032230
         H           -2.726969906603    -0.819989850034     0.959938048054     1.007825032230
         H           -3.030865906603    -1.438481850034    -0.675407951946     1.007825032230
         H           -0.388198906603    -0.785413850034     1.729610048054     1.007825032230
         H            2.978409093397    -1.573062850034    -0.353441951946     1.007825032230
         H            3.011044093397     1.581330149966     0.025672048054     1.007825032230
         H            0.121289093397     3.225574149966     0.326770048054     1.007825032230
         H           -3.079502906603     1.291598149966    -0.002184951946     1.007825032230

  Basis Set: AUG-CC-PVTZ
    Blend: AUG-CC-PVTZ
  Basis Set: (AUG-CC-PVTZ AUX)
    Blend: AUG-CC-PVTZ-JKFIT
	 Reference Energy          =    -683.5774049879296399 [Eh]
	 Singles Energy            =      -0.0000000000000000 [Eh]
	 Same-Spin Energy          =      -0.6670822935491372 [Eh]
	 Opposite-Spin Energy      =      -2.0476188687778665 [Eh]
	 Correlation Energy        =      -2.7147011623270036 [Eh]
	 Total Energy              =    -686.2921061502566999 [Eh]

	 ================> DF-SCS-MP2 Energies <==================
	-----------------------------------------------------------
	 SCS Same-Spin Scale       =       0.3333333333333333 [-]
	 SCS Opposite-Spin Scale   =       1.2000000000000000 [-]
	 SCS Same-Spin Energy      =      -0.2223607645163790 [Eh]
	 SCS Opposite-Spin Energy  =      -2.4571426425334395 [Eh]
	 SCS Correlation Energy    =      -2.6795034070498187 [Eh]
	 SCS Total Energy          =    -686.2569083949794049 [Eh]
	-----------------------------------------------------------

  Dipole Moment: [D]
     X:     0.5320      Y:     3.3831      Z:    -1.1075     Total:     3.5993

*** Psi4 exiting successfully. Buy a developer a beer!
