                               Psi4 1.3.2 release

  ==> Input File <==

--------------------------------------------------------------------------
#psi4
#
memory 32 gb

molecule  {
0 1
  N        1.6268380     0.6089620    -0.4693990
  C        0.3031040     0.1485790    -0.2066970
  C       -0.7706010     1.0561020    -0.0842670
  C        0.0806060    -1.2405240    -0.1151990
  C       -2.0579110     0.5582020     0.1415980
  C       -1.2176000    -1.6989120     0.1341680
  C       -2.2850370    -0.8120180     0.2620550
  C       -0.5715806     2.5323489    -0.3966350
  C        1.2072340    -2.2197810    -0.3093320
  C        2.5023020     0.6131830     0.7097540
  H       -2.8885640     1.2560570     0.2350690
  H       -1.3937740    -2.7714120     0.2029680
  H        1.5916390     1.5501200    -0.8540680
  H       -3.2895990    -1.1861590     0.4450020
  H        0.2351210     2.8885850     0.4923550
  H       -0.2380210     2.8365620    -1.2118290
  H       -1.4595390     3.0868260     0.0338520
  H        1.9415750    -1.8136360    -1.0094830
  H        1.7264620    -2.4417900     0.6300600
  H        0.8237630    -3.1662910    -0.7010550
  H        2.0935470     1.1833990     1.5571020
  H        3.4676080     1.0418550     0.4271840
  H        2.6734620    -0.4116070     1.0419720
units angstrom
no_reorient  #important for SAPT in psi4, default
symmetry c1  #important for SAPT in psi4, default
}

set PROPERTIES_ORIGIN ["COM"]
properties('MP2/aug-cc-pvtz', properties = ['dipole'])
--------------------------------------------------------------------------

    Molecular point group: c1
  Charge       = 0
  Multiplicity = 1
  Basis Set: AUG-CC-PVTZ
    Blend: AUG-CC-PVTZ
  Basis Set: (AUG-CC-PVTZ AUX)
    Blend: AUG-CC-PVTZ-JKFIT

    Orbital Energies [Eh]
    ---------------------

    Doubly Occupied:

       1A    -15.553571     2A    -11.259030     3A    -11.249056
       4A    -11.239067     5A    -11.233632     6A    -11.232675
       7A    -11.226252     8A    -11.224974     9A    -11.223810
      10A    -11.214438    11A     -1.226441    12A     -1.131309
      13A     -1.054648    14A     -1.013156    15A     -0.947325
      16A     -0.925284    17A     -0.892453    18A     -0.798125
      19A     -0.782009    20A     -0.696366    21A     -0.660317
      22A     -0.638426    23A     -0.616503    24A     -0.596527
      25A     -0.579598    26A     -0.574214    27A     -0.568523
      28A     -0.550092    29A     -0.542570    30A     -0.529453
      31A     -0.503978    32A     -0.484341    33A     -0.480217
      34A     -0.458791    35A     -0.402329    36A     -0.316992
      37A     -0.303217

  @DF-RHF Final Energy:  -402.91751335294305

   => Energetics <=

    Nuclear Repulsion Energy =            521.0308823950686019
    One-Electron Energy =               -1578.0373736139363245
    Two-Electron Energy =                 654.0889778659246758
    Total Energy =                       -402.9175133529430468
  Basis Set: (AUG-CC-PVTZ AUX)
    Blend: AUG-CC-PVTZ-RI
    Molecular point group: c1

    Geometry (in Angstrom), charge = 0, multiplicity = 1:

       Center              X                  Y                   Z               Mass
    ------------   -----------------  -----------------  -----------------  -----------------
         N            1.668346853501     0.624934277138    -0.442394241663    14.003074004430
         C            0.344612853501     0.164551277138    -0.179692241663    12.000000000000
         C           -0.729092146499     1.072074277138    -0.057262241663    12.000000000000
         C            0.122114853501    -1.224551722862    -0.088194241663    12.000000000000
         C           -2.016402146499     0.574174277138     0.168602758337    12.000000000000
         C           -1.176091146499    -1.682939722862     0.161172758337    12.000000000000
         C           -2.243528146499    -0.796045722862     0.289059758337    12.000000000000
         C           -0.530071746499     2.548321177138    -0.369630241663    12.000000000000
         C            1.248742853501    -2.203808722862    -0.282327241663    12.000000000000
         C            2.543810853501     0.629155277138     0.736758758337    12.000000000000
         H           -2.847055146499     1.272029277138     0.262073758337     1.007825032230
         H           -1.352265146499    -2.755439722862     0.229972758337     1.007825032230
         H            1.633147853501     1.566092277138    -0.827063241663     1.007825032230
         H           -3.248090146499    -1.170186722862     0.472006758337     1.007825032230
         H            0.276629853501     2.904557277138     0.519359758337     1.007825032230
         H           -0.196512146499     2.852534277138    -1.184824241663     1.007825032230
         H           -1.418030146499     3.102798277138     0.060856758337     1.007825032230
         H            1.983083853501    -1.797663722862    -0.982478241663     1.007825032230
         H            1.767970853501    -2.425817722862     0.657064758337     1.007825032230
         H            0.865271853501    -3.150318722862    -0.674050241663     1.007825032230
         H            2.135055853501     1.199371277138     1.584106758337     1.007825032230
         H            3.509116853501     1.057827277138     0.454188758337     1.007825032230
         H            2.714970853501    -0.395634722862     1.068976758337     1.007825032230

  Basis Set: AUG-CC-PVTZ
    Blend: AUG-CC-PVTZ
  Basis Set: (AUG-CC-PVTZ AUX)
    Blend: AUG-CC-PVTZ-JKFIT
	 Reference Energy          =    -402.9175133529430468 [Eh]
	 Singles Energy            =      -0.0000000000000000 [Eh]
	 Same-Spin Energy          =      -0.4486068000847911 [Eh]
	 Opposite-Spin Energy      =      -1.4678451681988327 [Eh]
	 Correlation Energy        =      -1.9164519682836239 [Eh]
	 Total Energy              =    -404.8339653212266853 [Eh]

	 ================> DF-SCS-MP2 Energies <==================
	-----------------------------------------------------------
	 SCS Same-Spin Scale       =       0.3333333333333333 [-]
	 SCS Opposite-Spin Scale   =       1.2000000000000000 [-]
	 SCS Same-Spin Energy      =      -0.1495356000282637 [Eh]
	 SCS Opposite-Spin Energy  =      -1.7614142018385992 [Eh]
	 SCS Correlation Energy    =      -1.9109498018668629 [Eh]
	 SCS Total Energy          =    -404.8284631548099242 [Eh]
	-----------------------------------------------------------

  Dipole Moment: [D]
     X:     0.4972      Y:     0.9867      Z:     0.4341     Total:     1.1871

*** Psi4 exiting successfully. Buy a developer a beer!
