                               Psi4 1.3.2 release

  ==> Input File <==

--------------------------------------------------------------------------
#psi4
#
memory 32 gb

molecule  {
0 1
  N        1.6268380     0.6089620    -0.4693990
  C        0.3031040     0.1485790    -0.2066970
  C       -0.7706010     1.0561020    -0.0842670
  C        0.1056973    -1.2332137     0.0325067
  C       -2.0579110     0.5582020     0.1415980
  C       -1.2176000    -1.6989120     0.1341680
  C       -2.2850370    -0.8120180     0.2620550
  C       -0.5406870     2.5426280    -0.1993030
  C        1.2072340    -2.2197810    -0.3093320
  C        2.5023020     0.6131830     0.7097540
  H       -2.8885640     1.2560570     0.2350690
  H       -1.3937740    -2.7714120     0.2029680
  H        1.5916390     1.5501200    -0.8540680
  H       -3.2895990    -1.1861590     0.4450020
  H        0.2351210     2.8885850     0.4923550
  H       -0.2380210     2.8365620    -1.2118290
  H       -1.4595390     3.0868260     0.0338520
  H        1.9415750    -1.8136360    -1.0094830
  H        1.7264620    -2.4417900     0.6300600
  H        0.8237630    -3.1662910    -0.7010550
  H        2.0935470     1.1833990     1.5571020
  H        3.4676080     1.0418550     0.4271840
  H        2.6734620    -0.4116070     1.0419720
units angstrom
no_reorient  #important for SAPT in psi4, default
symmetry c1  #important for SAPT in psi4, default
}

set PROPERTIES_ORIGIN ["COM"]
properties('MP2/aug-cc-pvtz', properties = ['dipole'])
--------------------------------------------------------------------------

    Molecular point group: c1
  Charge       = 0
  Multiplicity = 1
  Basis Set: AUG-CC-PVTZ
    Blend: AUG-CC-PVTZ
  Basis Set: (AUG-CC-PVTZ AUX)
    Blend: AUG-CC-PVTZ-JKFIT

    Orbital Energies [Eh]
    ---------------------

    Doubly Occupied:

       1A    -15.554986     2A    -11.261039     3A    -11.250313
       4A    -11.235097     5A    -11.233361     6A    -11.228256
       7A    -11.226214     8A    -11.225670     9A    -11.222968
      10A    -11.214627    11A     -1.227315    12A     -1.130178
      13A     -1.052998    14A     -1.011531    15A     -0.944603
      16A     -0.921518    17A     -0.892370    18A     -0.793931
      19A     -0.781157    20A     -0.692831    21A     -0.660292
      22A     -0.626915    23A     -0.604168    24A     -0.592142
      25A     -0.579887    26A     -0.568798    27A     -0.563324
      28A     -0.554547    29A     -0.553183    30A     -0.531261
      31A     -0.520969    32A     -0.482493    33A     -0.476415
      34A     -0.470129    35A     -0.404514    36A     -0.316760
      37A     -0.300479

  @DF-RHF Final Energy:  -402.95357950723508

   => Energetics <=

    Nuclear Repulsion Energy =            521.1581148525957587
    One-Electron Energy =               -1578.4089101104138990
    Two-Electron Energy =                 654.2972157505829500
    Total Energy =                       -402.9535795072350766
  Basis Set: (AUG-CC-PVTZ AUX)
    Blend: AUG-CC-PVTZ-RI
    Molecular point group: c1

    Geometry (in Angstrom), charge = 0, multiplicity = 1:

       Center              X                  Y                   Z               Mass
    ------------   -----------------  -----------------  -----------------  -----------------
         N            1.663374278116     0.623371987708    -0.473040469019    14.003074004430
         C            0.339640278116     0.162988987708    -0.210338469019    12.000000000000
         C           -0.734064721884     1.070511987708    -0.087908469019    12.000000000000
         C            0.142233578116    -1.218803712292     0.028865230981    12.000000000000
         C           -2.021374721884     0.572611987708     0.137956530981    12.000000000000
         C           -1.181063721884    -1.684502012292     0.130526530981    12.000000000000
         C           -2.248500721884    -0.797608012292     0.258413530981    12.000000000000
         C           -0.504150721884     2.557037987708    -0.202944469019    12.000000000000
         C            1.243770278116    -2.205371012292    -0.312973469019    12.000000000000
         C            2.538838278116     0.627592987708     0.706112530981    12.000000000000
         H           -2.852027721884     1.270466987708     0.231427530981     1.007825032230
         H           -1.357237721884    -2.757002012292     0.199326530981     1.007825032230
         H            1.628175278116     1.564529987708    -0.857709469019     1.007825032230
         H           -3.253062721884    -1.171749012292     0.441360530981     1.007825032230
         H            0.271657278116     2.902994987708     0.488713530981     1.007825032230
         H           -0.201484721884     2.850971987708    -1.215470469019     1.007825032230
         H           -1.423002721884     3.101235987708     0.030210530981     1.007825032230
         H            1.978111278116    -1.799226012292    -1.013124469019     1.007825032230
         H            1.762998278116    -2.427380012292     0.626418530981     1.007825032230
         H            0.860299278116    -3.151881012292    -0.704696469019     1.007825032230
         H            2.130083278116     1.197808987708     1.553460530981     1.007825032230
         H            3.504144278116     1.056264987708     0.423542530981     1.007825032230
         H            2.709998278116    -0.397197012292     1.038330530981     1.007825032230

  Basis Set: AUG-CC-PVTZ
    Blend: AUG-CC-PVTZ
  Basis Set: (AUG-CC-PVTZ AUX)
    Blend: AUG-CC-PVTZ-JKFIT
	 Reference Energy          =    -402.9535795072350766 [Eh]
	 Singles Energy            =      -0.0000000000000000 [Eh]
	 Same-Spin Energy          =      -0.4484553605365463 [Eh]
	 Opposite-Spin Energy      =      -1.4671161221442723 [Eh]
	 Correlation Energy        =      -1.9155714826808186 [Eh]
	 Total Energy              =    -404.8691509899159087 [Eh]

	 ================> DF-SCS-MP2 Energies <==================
	-----------------------------------------------------------
	 SCS Same-Spin Scale       =       0.3333333333333333 [-]
	 SCS Opposite-Spin Scale   =       1.2000000000000000 [-]
	 SCS Same-Spin Energy      =      -0.1494851201788487 [Eh]
	 SCS Opposite-Spin Energy  =      -1.7605393465731267 [Eh]
	 SCS Correlation Energy    =      -1.9100244667519755 [Eh]
	 SCS Total Energy          =    -404.8636039739870398 [Eh]
	-----------------------------------------------------------

  Dipole Moment: [D]
     X:     0.5443      Y:     1.1105      Z:     0.4521     Total:     1.3168

*** Psi4 exiting successfully. Buy a developer a beer!
