                               Psi4 1.3.2 release

  ==> Input File <==

--------------------------------------------------------------------------
#psi4
#
memory 32 gb

molecule  {
0 1
  N        1.6268380     0.6089620    -0.4693990
  C        0.3031040     0.1485790    -0.2066970
  C       -0.7706010     1.0561020    -0.0842670
  C        0.0806060    -1.2405240    -0.1151990
  C       -2.0579110     0.5582020     0.1415980
  C       -1.2176000    -1.6989120     0.1341680
  C       -2.2850370    -0.8120180     0.2620550
  C       -0.5406870     2.5426280    -0.1993030
  C        1.2072340    -2.2197810    -0.3093320
  C        2.5023020     0.6131830     0.7097540
  H       -2.8962730     1.2531638     0.1857517
  H       -1.3937740    -2.7714120     0.2029680
  H        1.5916390     1.5501200    -0.8540680
  H       -3.2895990    -1.1861590     0.4450020
  H        0.2351210     2.8885850     0.4923550
  H       -0.2380210     2.8365620    -1.2118290
  H       -1.4595390     3.0868260     0.0338520
  H        1.9415750    -1.8136360    -1.0094830
  H        1.7264620    -2.4417900     0.6300600
  H        0.8237630    -3.1662910    -0.7010550
  H        2.0935470     1.1833990     1.5571020
  H        3.4676080     1.0418550     0.4271840
  H        2.6734620    -0.4116070     1.0419720
units angstrom
no_reorient  #important for SAPT in psi4, default
symmetry c1  #important for SAPT in psi4, default
}

set PROPERTIES_ORIGIN ["COM"]
properties('MP2/aug-cc-pvtz', properties = ['dipole'])
--------------------------------------------------------------------------

    Molecular point group: c1
  Charge       = 0
  Multiplicity = 1
  Basis Set: AUG-CC-PVTZ
    Blend: AUG-CC-PVTZ
  Basis Set: (AUG-CC-PVTZ AUX)
    Blend: AUG-CC-PVTZ-JKFIT

    Orbital Energies [Eh]
    ---------------------

    Doubly Occupied:

       1A    -15.553778     2A    -11.258213     3A    -11.249622
       4A    -11.235863     5A    -11.232078     6A    -11.228354
       7A    -11.225452     8A    -11.224275     9A    -11.223045
      10A    -11.214142    11A     -1.226540    12A     -1.130840
      13A     -1.054393    14A     -1.012418    15A     -0.945355
      16A     -0.922123    17A     -0.892058    18A     -0.794650
      19A     -0.781209    20A     -0.692515    21A     -0.660677
      22A     -0.629546    23A     -0.603726    24A     -0.591425
      25A     -0.578488    26A     -0.568762    27A     -0.565361
      28A     -0.556701    29A     -0.552339    30A     -0.530714
      31A     -0.521051    32A     -0.485035    33A     -0.476972
      34A     -0.471424    35A     -0.402079    36A     -0.317056
      37A     -0.302873

  @DF-RHF Final Energy:  -402.96161387823366

   => Energetics <=

    Nuclear Repulsion Energy =            521.3078962580635789
    One-Electron Energy =               -1578.7167130523523610
    Two-Electron Energy =                 654.4472029160549482
    Total Energy =                       -402.9616138782337202
  Basis Set: (AUG-CC-PVTZ AUX)
    Blend: AUG-CC-PVTZ-RI
    Molecular point group: c1

    Geometry (in Angstrom), charge = 0, multiplicity = 1:

       Center              X                  Y                   Z               Mass
    ------------   -----------------  -----------------  -----------------  -----------------
         N            1.665660391744     0.624042870162    -0.459553371467    14.003074004430
         C            0.341926391744     0.163659870162    -0.196851371467    12.000000000000
         C           -0.731778608256     1.071182870162    -0.074421371467    12.000000000000
         C            0.119428391744    -1.225443129838    -0.105353371467    12.000000000000
         C           -2.019088608256     0.573282870162     0.151443628533    12.000000000000
         C           -1.178777608256    -1.683831129838     0.144013628533    12.000000000000
         C           -2.246214608256    -0.796937129838     0.271900628533    12.000000000000
         C           -0.501864608256     2.557708870162    -0.189457371467    12.000000000000
         C            1.246056391744    -2.204700129838    -0.299486371467    12.000000000000
         C            2.541124391744     0.628263870162     0.719599628533    12.000000000000
         H           -2.857450608256     1.268244670162     0.195597328533     1.007825032230
         H           -1.354951608256    -2.756331129838     0.212813628533     1.007825032230
         H            1.630461391744     1.565200870162    -0.844222371467     1.007825032230
         H           -3.250776608256    -1.171078129838     0.454847628533     1.007825032230
         H            0.273943391744     2.903665870162     0.502200628533     1.007825032230
         H           -0.199198608256     2.851642870162    -1.201983371467     1.007825032230
         H           -1.420716608256     3.101906870162     0.043697628533     1.007825032230
         H            1.980397391744    -1.798555129838    -0.999637371467     1.007825032230
         H            1.765284391744    -2.426709129838     0.639905628533     1.007825032230
         H            0.862585391744    -3.151210129838    -0.691209371467     1.007825032230
         H            2.132369391744     1.198479870162     1.566947628533     1.007825032230
         H            3.506430391744     1.056935870162     0.437029628533     1.007825032230
         H            2.712284391744    -0.396526129838     1.051817628533     1.007825032230

  Basis Set: AUG-CC-PVTZ
    Blend: AUG-CC-PVTZ
  Basis Set: (AUG-CC-PVTZ AUX)
    Blend: AUG-CC-PVTZ-JKFIT
	 Reference Energy          =    -402.9616138782336634 [Eh]
	 Singles Energy            =      -0.0000000000000000 [Eh]
	 Same-Spin Energy          =      -0.4479997383059917 [Eh]
	 Opposite-Spin Energy      =      -1.4659358625270453 [Eh]
	 Correlation Energy        =      -1.9139356008330370 [Eh]
	 Total Energy              =    -404.8755494790667058 [Eh]

	 ================> DF-SCS-MP2 Energies <==================
	-----------------------------------------------------------
	 SCS Same-Spin Scale       =       0.3333333333333333 [-]
	 SCS Opposite-Spin Scale   =       1.2000000000000000 [-]
	 SCS Same-Spin Energy      =      -0.1493332461019972 [Eh]
	 SCS Opposite-Spin Energy  =      -1.7591230350324543 [Eh]
	 SCS Correlation Energy    =      -1.9084562811344514 [Eh]
	 SCS Total Energy          =    -404.8700701593681401 [Eh]
	-----------------------------------------------------------

  Dipole Moment: [D]
     X:     0.5344      Y:     1.0679      Z:     0.4914     Total:     1.2913

*** Psi4 exiting successfully. Buy a developer a beer!
