                               Psi4 1.3.2 release

  ==> Input File <==

--------------------------------------------------------------------------
#psi4
#
memory 32 gb

molecule  {
0 1
  N        1.6268380     0.6089620    -0.4693990
  C        0.3031040     0.1485790    -0.2066970
  C       -0.7706010     1.0561020    -0.0842670
  C        0.0806060    -1.2405240    -0.1151990
  C       -2.0579110     0.5582020     0.1415980
  C       -1.2176000    -1.6989120     0.1341680
  C       -2.2850370    -0.8120180     0.2620550
  C       -0.5406870     2.5426280    -0.1993030
  C        1.2072340    -2.2197810    -0.3093320
  C        2.5023020     0.6131830     0.7097540
  H       -2.9039820     1.2502705     0.1364343
  H       -1.3937740    -2.7714120     0.2029680
  H        1.5916390     1.5501200    -0.8540680
  H       -3.2895990    -1.1861590     0.4450020
  H        0.2351210     2.8885850     0.4923550
  H       -0.2380210     2.8365620    -1.2118290
  H       -1.4595390     3.0868260     0.0338520
  H        1.9415750    -1.8136360    -1.0094830
  H        1.7264620    -2.4417900     0.6300600
  H        0.8237630    -3.1662910    -0.7010550
  H        2.0935470     1.1833990     1.5571020
  H        3.4676080     1.0418550     0.4271840
  H        2.6734620    -0.4116070     1.0419720
units angstrom
no_reorient  #important for SAPT in psi4, default
symmetry c1  #important for SAPT in psi4, default
}

set PROPERTIES_ORIGIN ["COM"]
properties('MP2/aug-cc-pvtz', properties = ['dipole'])
--------------------------------------------------------------------------

    Molecular point group: c1
  Charge       = 0
  Multiplicity = 1
  Basis Set: AUG-CC-PVTZ
    Blend: AUG-CC-PVTZ
  Basis Set: (AUG-CC-PVTZ AUX)
    Blend: AUG-CC-PVTZ-JKFIT

    Orbital Energies [Eh]
    ---------------------

    Doubly Occupied:

       1A    -15.553771     2A    -11.258222     3A    -11.249616
       4A    -11.235878     5A    -11.232176     6A    -11.228324
       7A    -11.225676     8A    -11.224409     9A    -11.223106
      10A    -11.214188    11A     -1.226544    12A     -1.130852
      13A     -1.054384    14A     -1.012432    15A     -0.945355
      16A     -0.922049    17A     -0.892060    18A     -0.794674
      19A     -0.781018    20A     -0.692396    21A     -0.660501
      22A     -0.629587    23A     -0.603936    24A     -0.591347
      25A     -0.578088    26A     -0.568667    27A     -0.565442
      28A     -0.556643    29A     -0.552284    30A     -0.530725
      31A     -0.521076    32A     -0.484815    33A     -0.476967
      34A     -0.471791    35A     -0.401685    36A     -0.317013
      37A     -0.303014

  @DF-RHF Final Energy:  -402.96115975065311

   => Energetics <=

    Nuclear Repulsion Energy =            521.2931073662425661
    One-Electron Energy =               -1578.6871167468707426
    Two-Electron Energy =                 654.4328496299750668
    Total Energy =                       -402.9611597506531098
  Basis Set: (AUG-CC-PVTZ AUX)
    Blend: AUG-CC-PVTZ-RI
    Molecular point group: c1

    Geometry (in Angstrom), charge = 0, multiplicity = 1:

       Center              X                  Y                   Z               Mass
    ------------   -----------------  -----------------  -----------------  -----------------
         N            1.665717897644     0.624064452965    -0.459185484387    14.003074004430
         C            0.341983897644     0.163681452965    -0.196483484387    12.000000000000
         C           -0.731721102356     1.071204452965    -0.074053484387    12.000000000000
         C            0.119485897644    -1.225421547035    -0.104985484387    12.000000000000
         C           -2.019031102356     0.573304452965     0.151811515613    12.000000000000
         C           -1.178720102356    -1.683809547035     0.144381515613    12.000000000000
         C           -2.246157102356    -0.796915547035     0.272268515613    12.000000000000
         C           -0.501807102356     2.557730452965    -0.189089484387    12.000000000000
         C            1.246113897644    -2.204678547035    -0.299118484387    12.000000000000
         C            2.541181897644     0.628285452965     0.719967515613    12.000000000000
         H           -2.865102102356     1.265372952965     0.146647815613     1.007825032230
         H           -1.354894102356    -2.756309547035     0.213181515613     1.007825032230
         H            1.630518897644     1.565222452965    -0.843854484387     1.007825032230
         H           -3.250719102356    -1.171056547035     0.455215515613     1.007825032230
         H            0.274000897644     2.903687452965     0.502568515613     1.007825032230
         H           -0.199141102356     2.851664452965    -1.201615484387     1.007825032230
         H           -1.420659102356     3.101928452965     0.044065515613     1.007825032230
         H            1.980454897644    -1.798533547035    -0.999269484387     1.007825032230
         H            1.765341897644    -2.426687547035     0.640273515613     1.007825032230
         H            0.862642897644    -3.151188547035    -0.690841484387     1.007825032230
         H            2.132426897644     1.198501452965     1.567315515613     1.007825032230
         H            3.506487897644     1.056957452965     0.437397515613     1.007825032230
         H            2.712341897644    -0.396504547035     1.052185515613     1.007825032230

  Basis Set: AUG-CC-PVTZ
    Blend: AUG-CC-PVTZ
  Basis Set: (AUG-CC-PVTZ AUX)
    Blend: AUG-CC-PVTZ-JKFIT
	 Reference Energy          =    -402.9611597506531098 [Eh]
	 Singles Energy            =      -0.0000000000000000 [Eh]
	 Same-Spin Energy          =      -0.4480266329775950 [Eh]
	 Opposite-Spin Energy      =      -1.4659835718631937 [Eh]
	 Correlation Energy        =      -1.9140102048407888 [Eh]
	 Total Energy              =    -404.8751699554939023 [Eh]

	 ================> DF-SCS-MP2 Energies <==================
	-----------------------------------------------------------
	 SCS Same-Spin Scale       =       0.3333333333333333 [-]
	 SCS Opposite-Spin Scale   =       1.2000000000000000 [-]
	 SCS Same-Spin Energy      =      -0.1493422109925317 [Eh]
	 SCS Opposite-Spin Energy  =      -1.7591802862358323 [Eh]
	 SCS Correlation Energy    =      -1.9085224972283641 [Eh]
	 SCS Total Energy          =    -404.8696822478814852 [Eh]
	-----------------------------------------------------------

  Dipole Moment: [D]
     X:     0.5337      Y:     1.0602      Z:     0.4621     Total:     1.2737

*** Psi4 exiting successfully. Buy a developer a beer!
