                               Psi4 1.3.2 release

  ==> Input File <==

--------------------------------------------------------------------------
#psi4
#
memory 32 gb

molecule  {
0 1
  N        1.6268380     0.6089620    -0.4693990
  C        0.3031040     0.1485790    -0.2066970
  C       -0.7706010     1.0561020    -0.0842670
  C        0.0806060    -1.2405240    -0.1151990
  C       -2.0579110     0.5582020     0.1415980
  C       -1.2176000    -1.6989120     0.1341680
  C       -2.2850370    -0.8120180     0.2620550
  C       -0.5406870     2.5426280    -0.1993030
  C        1.2072340    -2.2197810    -0.3093320
  C        2.5023020     0.6131830     0.7097540
  H       -2.9193999     1.2444840     0.0377996
  H       -1.3937740    -2.7714120     0.2029680
  H        1.5916390     1.5501200    -0.8540680
  H       -3.2895990    -1.1861590     0.4450020
  H        0.2351210     2.8885850     0.4923550
  H       -0.2380210     2.8365620    -1.2118290
  H       -1.4595390     3.0868260     0.0338520
  H        1.9415750    -1.8136360    -1.0094830
  H        1.7264620    -2.4417900     0.6300600
  H        0.8237630    -3.1662910    -0.7010550
  H        2.0935470     1.1833990     1.5571020
  H        3.4676080     1.0418550     0.4271840
  H        2.6734620    -0.4116070     1.0419720
units angstrom
no_reorient  #important for SAPT in psi4, default
symmetry c1  #important for SAPT in psi4, default
}

set PROPERTIES_ORIGIN ["COM"]
properties('MP2/aug-cc-pvtz', properties = ['dipole'])
--------------------------------------------------------------------------

    Molecular point group: c1
  Charge       = 0
  Multiplicity = 1
  Basis Set: AUG-CC-PVTZ
    Blend: AUG-CC-PVTZ
  Basis Set: (AUG-CC-PVTZ AUX)
    Blend: AUG-CC-PVTZ-JKFIT

    Orbital Energies [Eh]
    ---------------------

    Doubly Occupied:

       1A    -15.553798     2A    -11.258296     3A    -11.249640
       4A    -11.236044     5A    -11.232532     6A    -11.228249
       7A    -11.226681     8A    -11.224836     9A    -11.223299
      10A    -11.214365    11A     -1.226603    12A     -1.130912
      13A     -1.054372    14A     -1.012490    15A     -0.945388
      16A     -0.921767    17A     -0.892093    18A     -0.794778
      19A     -0.780284    20A     -0.692003    21A     -0.659798
      22A     -0.629729    23A     -0.604275    24A     -0.591249
      25A     -0.577207    26A     -0.568476    27A     -0.565617
      28A     -0.556524    29A     -0.551553    30A     -0.530797
      31A     -0.521150    32A     -0.484641    33A     -0.477137
      34A     -0.471826    35A     -0.400894    36A     -0.316901
      37A     -0.303337

  @DF-RHF Final Energy:  -402.95922684368634

   => Energetics <=

    Nuclear Repulsion Energy =            521.2370643251480260
    One-Electron Energy =               -1578.5735007619141470
    Two-Electron Energy =                 654.3772095930798969
    Total Energy =                       -402.9592268436863378
  Basis Set: (AUG-CC-PVTZ AUX)
    Blend: AUG-CC-PVTZ-RI
    Molecular point group: c1

    Geometry (in Angstrom), charge = 0, multiplicity = 1:

       Center              X                  Y                   Z               Mass
    ------------   -----------------  -----------------  -----------------  -----------------
         N            1.665832908700     0.624107617823    -0.458449710971    14.003074004430
         C            0.342098908700     0.163724617823    -0.195747710971    12.000000000000
         C           -0.731606091300     1.071247617823    -0.073317710971    12.000000000000
         C            0.119600908700    -1.225378382177    -0.104249710971    12.000000000000
         C           -2.018916091300     0.573347617823     0.152547289029    12.000000000000
         C           -1.178605091300    -1.683766382177     0.145117289029    12.000000000000
         C           -2.246042091300    -0.796872382177     0.273004289029    12.000000000000
         C           -0.501692091300     2.557773617823    -0.188353710971    12.000000000000
         C            1.246228908700    -2.204635382177    -0.298382710971    12.000000000000
         C            2.541296908700     0.628328617823     0.720703289029    12.000000000000
         H           -2.880404991300     1.259629617823     0.048748889029     1.007825032230
         H           -1.354779091300    -2.756266382177     0.213917289029     1.007825032230
         H            1.630633908700     1.565265617823    -0.843118710971     1.007825032230
         H           -3.250604091300    -1.171013382177     0.455951289029     1.007825032230
         H            0.274115908700     2.903730617823     0.503304289029     1.007825032230
         H           -0.199026091300     2.851707617823    -1.200879710971     1.007825032230
         H           -1.420544091300     3.101971617823     0.044801289029     1.007825032230
         H            1.980569908700    -1.798490382177    -0.998533710971     1.007825032230
         H            1.765456908700    -2.426644382177     0.641009289029     1.007825032230
         H            0.862757908700    -3.151145382177    -0.690105710971     1.007825032230
         H            2.132541908700     1.198544617823     1.568051289029     1.007825032230
         H            3.506602908700     1.057000617823     0.438133289029     1.007825032230
         H            2.712456908700    -0.396461382177     1.052921289029     1.007825032230

  Basis Set: AUG-CC-PVTZ
    Blend: AUG-CC-PVTZ
  Basis Set: (AUG-CC-PVTZ AUX)
    Blend: AUG-CC-PVTZ-JKFIT
	 Reference Energy          =    -402.9592268436863378 [Eh]
	 Singles Energy            =      -0.0000000000000000 [Eh]
	 Same-Spin Energy          =      -0.4481356624894129 [Eh]
	 Opposite-Spin Energy      =      -1.4662044318933196 [Eh]
	 Correlation Energy        =      -1.9143400943827324 [Eh]
	 Total Energy              =    -404.8735669380690751 [Eh]

	 ================> DF-SCS-MP2 Energies <==================
	-----------------------------------------------------------
	 SCS Same-Spin Scale       =       0.3333333333333333 [-]
	 SCS Opposite-Spin Scale   =       1.2000000000000000 [-]
	 SCS Same-Spin Energy      =      -0.1493785541631376 [Eh]
	 SCS Opposite-Spin Energy  =      -1.7594453182719836 [Eh]
	 SCS Correlation Energy    =      -1.9088238724351212 [Eh]
	 SCS Total Energy          =    -404.8680507161214450 [Eh]
	-----------------------------------------------------------

  Dipole Moment: [D]
     X:     0.5438      Y:     1.0361      Z:     0.4035     Total:     1.2377

*** Psi4 exiting successfully. Buy a developer a beer!
