                               Psi4 1.3.2 release

  ==> Input File <==

--------------------------------------------------------------------------
#psi4
#
memory 32 gb

molecule  {
0 1
  N        1.6268380     0.6089620    -0.4693990
  C        0.3031040     0.1485790    -0.2066970
  C       -0.7706010     1.0561020    -0.0842670
  C        0.0806060    -1.2405240    -0.1151990
  C       -2.0579110     0.5582020     0.1415980
  C       -1.2176000    -1.6989120     0.1341680
  C       -2.2850370    -0.8120180     0.2620550
  C       -0.5406870     2.5426280    -0.1993030
  C        1.2072340    -2.2197810    -0.3093320
  C        2.5023020     0.6131830     0.7097540
  H       -2.8885640     1.2560570     0.2350690
  H       -1.3937740    -2.7714120     0.2029680
  H        1.5916390     1.5501200    -0.8540680
  H       -3.3300749    -1.2004172     0.1987127
  H        0.2351210     2.8885850     0.4923550
  H       -0.2380210     2.8365620    -1.2118290
  H       -1.4595390     3.0868260     0.0338520
  H        1.9415750    -1.8136360    -1.0094830
  H        1.7264620    -2.4417900     0.6300600
  H        0.8237630    -3.1662910    -0.7010550
  H        2.0935470     1.1833990     1.5571020
  H        3.4676080     1.0418550     0.4271840
  H        2.6734620    -0.4116070     1.0419720
units angstrom
no_reorient  #important for SAPT in psi4, default
symmetry c1  #important for SAPT in psi4, default
}

set PROPERTIES_ORIGIN ["COM"]
properties('MP2/aug-cc-pvtz', properties = ['dipole'])
--------------------------------------------------------------------------

    Molecular point group: c1
  Charge       = 0
  Multiplicity = 1
  Basis Set: AUG-CC-PVTZ
    Blend: AUG-CC-PVTZ
  Basis Set: (AUG-CC-PVTZ AUX)
    Blend: AUG-CC-PVTZ-JKFIT

    Orbital Energies [Eh]
    ---------------------

    Doubly Occupied:

       1A    -15.554170     2A    -11.258945     3A    -11.249933
       4A    -11.236063     5A    -11.232335     6A    -11.228549
       7A    -11.227106     8A    -11.225283     9A    -11.223873
      10A    -11.214348    11A     -1.226955    12A     -1.131022
      13A     -1.054697    14A     -1.011907    15A     -0.945619
      16A     -0.922402    17A     -0.891882    18A     -0.793377
      19A     -0.781033    20A     -0.692838    21A     -0.660166
      22A     -0.626975    23A     -0.601651    24A     -0.591793
      25A     -0.579093    26A     -0.569309    27A     -0.565214
      28A     -0.556900    29A     -0.552168    30A     -0.530792
      31A     -0.521279    32A     -0.487466    33A     -0.477854
      34A     -0.465301    35A     -0.403238    36A     -0.317372
      37A     -0.302611

  @DF-RHF Final Energy:  -402.95756128943833

   => Energetics <=

    Nuclear Repulsion Energy =            521.1983205975933515
    One-Electron Energy =               -1578.4887250122196747
    Two-Electron Energy =                 654.3328431251878783
    Total Energy =                       -402.9575612894383312
  Basis Set: (AUG-CC-PVTZ AUX)
    Blend: AUG-CC-PVTZ-RI
    Molecular point group: c1

    Geometry (in Angstrom), charge = 0, multiplicity = 1:

       Center              X                  Y                   Z               Mass
    ------------   -----------------  -----------------  -----------------  -----------------
         N            1.665904819049     0.624127648287    -0.458084043116    14.003074004430
         C            0.342170819049     0.163744648287    -0.195382043116    12.000000000000
         C           -0.731534180951     1.071267648287    -0.072952043116    12.000000000000
         C            0.119672819049    -1.225358351713    -0.103884043116    12.000000000000
         C           -2.018844180951     0.573367648287     0.152912956884    12.000000000000
         C           -1.178533180951    -1.683746351713     0.145482956884    12.000000000000
         C           -2.245970180951    -0.796852351713     0.273369956884    12.000000000000
         C           -0.501620180951     2.557793648287    -0.187988043116    12.000000000000
         C            1.246300819049    -2.204615351713    -0.298017043116    12.000000000000
         C            2.541368819049     0.628348648287     0.721068956884    12.000000000000
         H           -2.849497180951     1.271222648287     0.246383956884     1.007825032230
         H           -1.354707180951    -2.756246351713     0.214282956884     1.007825032230
         H            1.630705819049     1.565285648287    -0.842753043116     1.007825032230
         H           -3.291008080951    -1.185251551713     0.210027656884     1.007825032230
         H            0.274187819049     2.903750648287     0.503669956884     1.007825032230
         H           -0.198954180951     2.851727648287    -1.200514043116     1.007825032230
         H           -1.420472180951     3.101991648287     0.045166956884     1.007825032230
         H            1.980641819049    -1.798470351713    -0.998168043116     1.007825032230
         H            1.765528819049    -2.426624351713     0.641374956884     1.007825032230
         H            0.862829819049    -3.151125351713    -0.689740043116     1.007825032230
         H            2.132613819049     1.198564648287     1.568416956884     1.007825032230
         H            3.506674819049     1.057020648287     0.438498956884     1.007825032230
         H            2.712528819049    -0.396441351713     1.053286956884     1.007825032230

  Basis Set: AUG-CC-PVTZ
    Blend: AUG-CC-PVTZ
  Basis Set: (AUG-CC-PVTZ AUX)
    Blend: AUG-CC-PVTZ-JKFIT
	 Reference Energy          =    -402.9575612894383312 [Eh]
	 Singles Energy            =      -0.0000000000000000 [Eh]
	 Same-Spin Energy          =      -0.4482028571048369 [Eh]
	 Opposite-Spin Energy      =      -1.4664631653530846 [Eh]
	 Correlation Energy        =      -1.9146660224579215 [Eh]
	 Total Energy              =    -404.8722273118962676 [Eh]

	 ================> DF-SCS-MP2 Energies <==================
	-----------------------------------------------------------
	 SCS Same-Spin Scale       =       0.3333333333333333 [-]
	 SCS Opposite-Spin Scale   =       1.2000000000000000 [-]
	 SCS Same-Spin Energy      =      -0.1494009523682789 [Eh]
	 SCS Opposite-Spin Energy  =      -1.7597557984237016 [Eh]
	 SCS Correlation Energy    =      -1.9091567507919804 [Eh]
	 SCS Total Energy          =    -404.8667180402302961 [Eh]
	-----------------------------------------------------------

  Dipole Moment: [D]
     X:     0.5759      Y:     1.0848      Z:     0.3562     Total:     1.2788

*** Psi4 exiting successfully. Buy a developer a beer!
