                               Psi4 1.3.2 release

  ==> Input File <==

--------------------------------------------------------------------------
#psi4
#
memory 32 gb

molecule  {
0 1
  N        1.6268380     0.6089620    -0.4693990
  C        0.3031040     0.1485790    -0.2066970
  C       -0.7706010     1.0561020    -0.0842670
  C        0.1224249    -1.2283401     0.1309772
  C       -2.0579110     0.5582020     0.1415980
  C       -1.2176000    -1.6989120     0.1341680
  C       -2.2850370    -0.8120180     0.2620550
  C       -0.5406870     2.5426280    -0.1993030
  C        1.2072340    -2.2197810    -0.3093320
  C        2.5023020     0.6131830     0.7097540
  H       -2.8885640     1.2560570     0.2350690
  H       -1.3937740    -2.7714120     0.2029680
  H        1.5916390     1.5501200    -0.8540680
  H       -3.2895990    -1.1861590     0.4450020
  H        0.2351210     2.8885850     0.4923550
  H       -0.2380210     2.8365620    -1.2118290
  H       -1.4595390     3.0868260     0.0338520
  H        1.9415750    -1.8136360    -1.0094830
  H        1.7264620    -2.4417900     0.6300600
  H        0.8237630    -3.1662910    -0.7010550
  H        2.0935470     1.1833990     1.5571020
  H        3.4676080     1.0418550     0.4271840
  H        2.6734620    -0.4116070     1.0419720
units angstrom
no_reorient  #important for SAPT in psi4, default
symmetry c1  #important for SAPT in psi4, default
}

set PROPERTIES_ORIGIN ["COM"]
properties('MP2/aug-cc-pvtz', properties = ['dipole'])
--------------------------------------------------------------------------

    Molecular point group: c1
  Charge       = 0
  Multiplicity = 1
  Basis Set: AUG-CC-PVTZ
    Blend: AUG-CC-PVTZ
  Basis Set: (AUG-CC-PVTZ AUX)
    Blend: AUG-CC-PVTZ-JKFIT

    Orbital Energies [Eh]
    ---------------------

    Doubly Occupied:

       1A    -15.556224     2A    -11.265064     3A    -11.250959
       4A    -11.235591     5A    -11.234446     6A    -11.229092
       7A    -11.228313     8A    -11.228196     9A    -11.222236
      10A    -11.214747    11A     -1.227935    12A     -1.129282
      13A     -1.050974    14A     -1.010473    15A     -0.943585
      16A     -0.920722    17A     -0.892035    18A     -0.792200
      19A     -0.780990    20A     -0.693227    21A     -0.659865
      22A     -0.625121    23A     -0.604409    24A     -0.592187
      25A     -0.581471    26A     -0.568425    27A     -0.562091
      28A     -0.553768    29A     -0.550113    30A     -0.531485
      31A     -0.520566    32A     -0.482020    33A     -0.475741
      34A     -0.463953    35A     -0.405544    36A     -0.316463
      37A     -0.298852

  @DF-RHF Final Energy:  -402.93880696013491

   => Energetics <=

    Nuclear Repulsion Energy =            520.7373861577168555
    One-Electron Energy =               -1577.5556583475740808
    Two-Electron Energy =                 653.8794652297223138
    Total Energy =                       -402.9388069601349116
  Basis Set: (AUG-CC-PVTZ AUX)
    Blend: AUG-CC-PVTZ-RI
    Molecular point group: c1

    Geometry (in Angstrom), charge = 0, multiplicity = 1:

       Center              X                  Y                   Z               Mass
    ------------   -----------------  -----------------  -----------------  -----------------
         N            1.661888533709     0.622939114855    -0.481786612790    14.003074004430
         C            0.338154533709     0.162556114855    -0.219084612790    12.000000000000
         C           -0.735550466291     1.070079114855    -0.096654612790    12.000000000000
         C            0.157475433709    -1.214362985145     0.118589587210    12.000000000000
         C           -2.022860466291     0.572179114855     0.129210387210    12.000000000000
         C           -1.182549466291    -1.684934885145     0.121780387210    12.000000000000
         C           -2.249986466291    -0.798040885145     0.249667387210    12.000000000000
         C           -0.505636466291     2.556605114855    -0.211690612790    12.000000000000
         C            1.242284533709    -2.205803885145    -0.321719612790    12.000000000000
         C            2.537352533709     0.627160114855     0.697366387210    12.000000000000
         H           -2.853513466291     1.270034114855     0.222681387210     1.007825032230
         H           -1.358723466291    -2.757434885145     0.190580387210     1.007825032230
         H            1.626689533709     1.564097114855    -0.866455612790     1.007825032230
         H           -3.254548466291    -1.172181885145     0.432614387210     1.007825032230
         H            0.270171533709     2.902562114855     0.479967387210     1.007825032230
         H           -0.202970466291     2.850539114855    -1.224216612790     1.007825032230
         H           -1.424488466291     3.100803114855     0.021464387210     1.007825032230
         H            1.976625533709    -1.799658885145    -1.021870612790     1.007825032230
         H            1.761512533709    -2.427812885145     0.617672387210     1.007825032230
         H            0.858813533709    -3.152313885145    -0.713442612790     1.007825032230
         H            2.128597533709     1.197376114855     1.544714387210     1.007825032230
         H            3.502658533709     1.055832114855     0.414796387210     1.007825032230
         H            2.708512533709    -0.397629885145     1.029584387210     1.007825032230

  Basis Set: AUG-CC-PVTZ
    Blend: AUG-CC-PVTZ
  Basis Set: (AUG-CC-PVTZ AUX)
    Blend: AUG-CC-PVTZ-JKFIT
	 Reference Energy          =    -402.9388069601349116 [Eh]
	 Singles Energy            =      -0.0000000000000000 [Eh]
	 Same-Spin Energy          =      -0.4491664000477674 [Eh]
	 Opposite-Spin Energy      =      -1.4690777882134758 [Eh]
	 Correlation Energy        =      -1.9182441882612431 [Eh]
	 Total Energy              =    -404.8570511483961809 [Eh]

	 ================> DF-SCS-MP2 Energies <==================
	-----------------------------------------------------------
	 SCS Same-Spin Scale       =       0.3333333333333333 [-]
	 SCS Opposite-Spin Scale   =       1.2000000000000000 [-]
	 SCS Same-Spin Energy      =      -0.1497221333492558 [Eh]
	 SCS Opposite-Spin Energy  =      -1.7628933458561709 [Eh]
	 SCS Correlation Energy    =      -1.9126154792054266 [Eh]
	 SCS Total Energy          =    -404.8514224393403538 [Eh]
	-----------------------------------------------------------

  Dipole Moment: [D]
     X:     0.5135      Y:     1.1836      Z:     0.4064     Total:     1.3526

*** Psi4 exiting successfully. Buy a developer a beer!
