                               Psi4 1.3.2 release

  ==> Input File <==

--------------------------------------------------------------------------
#psi4
#
memory 32 gb

molecule  {
0 1
  N        1.6268380     0.6089620    -0.4693990
  C        0.3031040     0.1485790    -0.2066970
  C       -0.7706010     1.0561020    -0.0842670
  C        0.1140611    -1.2307769     0.0817420
  C       -2.0579110     0.5582020     0.1415980
  C       -1.2176000    -1.6989120     0.1341680
  C       -2.2850370    -0.8120180     0.2620550
  C       -0.5406870     2.5426280    -0.1993030
  C        1.2072340    -2.2197810    -0.3093320
  C        2.5023020     0.6131830     0.7097540
  H       -2.8885640     1.2560570     0.2350690
  H       -1.3937740    -2.7714120     0.2029680
  H        1.5916390     1.5501200    -0.8540680
  H       -3.2895990    -1.1861590     0.4450020
  H        0.2351210     2.8885850     0.4923550
  H       -0.2380210     2.8365620    -1.2118290
  H       -1.4595390     3.0868260     0.0338520
  H        1.9415750    -1.8136360    -1.0094830
  H        1.7264620    -2.4417900     0.6300600
  H        0.8237630    -3.1662910    -0.7010550
  H        2.0935470     1.1833990     1.5571020
  H        3.4676080     1.0418550     0.4271840
  H        2.6734620    -0.4116070     1.0419720
units angstrom
no_reorient  #important for SAPT in psi4, default
symmetry c1  #important for SAPT in psi4, default
}

set PROPERTIES_ORIGIN ["COM"]
properties('MP2/aug-cc-pvtz', properties = ['dipole'])
--------------------------------------------------------------------------

    Molecular point group: c1
  Charge       = 0
  Multiplicity = 1
  Basis Set: AUG-CC-PVTZ
    Blend: AUG-CC-PVTZ
  Basis Set: (AUG-CC-PVTZ AUX)
    Blend: AUG-CC-PVTZ-JKFIT

    Orbital Energies [Eh]
    ---------------------

    Doubly Occupied:

       1A    -15.555558     2A    -11.262847     3A    -11.250619
       4A    -11.234776     5A    -11.234369     6A    -11.228261
       7A    -11.227226     8A    -11.227011     9A    -11.222636
      10A    -11.214723    11A     -1.227612    12A     -1.129764
      13A     -1.052090    14A     -1.011054    15A     -0.944133
      16A     -0.921146    17A     -0.892264    18A     -0.793173
      19A     -0.781086    20A     -0.693005    21A     -0.660080
      22A     -0.626000    23A     -0.604322    24A     -0.592210
      25A     -0.580665    26A     -0.568620    27A     -0.562711
      28A     -0.553773    29A     -0.552231    30A     -0.531387
      31A     -0.520802    32A     -0.482202    33A     -0.476108
      34A     -0.467548    35A     -0.405064    36A     -0.316605
      37A     -0.299668

  @DF-RHF Final Energy:  -402.94711755682368

   => Energetics <=

    Nuclear Repulsion Energy =            520.9783554340450564
    One-Electron Energy =               -1578.0442458100144449
    Two-Electron Energy =                 654.1187728191457609
    Total Energy =                       -402.9471175568237413
  Basis Set: (AUG-CC-PVTZ AUX)
    Blend: AUG-CC-PVTZ-RI
    Molecular point group: c1

    Geometry (in Angstrom), charge = 0, multiplicity = 1:

       Center              X                  Y                   Z               Mass
    ------------   -----------------  -----------------  -----------------  -----------------
         N            1.662631405912     0.623155551282    -0.477413545345    14.003074004430
         C            0.338897405912     0.162772551282    -0.214711545345    12.000000000000
         C           -0.734807594088     1.070295551282    -0.092281545345    12.000000000000
         C            0.149854505912    -1.216583348718     0.073727454655    12.000000000000
         C           -2.022117594088     0.572395551282     0.133583454655    12.000000000000
         C           -1.181806594088    -1.684718448718     0.126153454655    12.000000000000
         C           -2.249243594088    -0.797824448718     0.254040454655    12.000000000000
         C           -0.504893594088     2.556821551282    -0.207317545345    12.000000000000
         C            1.243027405912    -2.205587448718    -0.317346545345    12.000000000000
         C            2.538095405912     0.627376551282     0.701739454655    12.000000000000
         H           -2.852770594088     1.270250551282     0.227054454655     1.007825032230
         H           -1.357980594088    -2.757218448718     0.194953454655     1.007825032230
         H            1.627432405912     1.564313551282    -0.862082545345     1.007825032230
         H           -3.253805594088    -1.171965448718     0.436987454655     1.007825032230
         H            0.270914405912     2.902778551282     0.484340454655     1.007825032230
         H           -0.202227594088     2.850755551282    -1.219843545345     1.007825032230
         H           -1.423745594088     3.101019551282     0.025837454655     1.007825032230
         H            1.977368405912    -1.799442448718    -1.017497545345     1.007825032230
         H            1.762255405912    -2.427596448718     0.622045454655     1.007825032230
         H            0.859556405912    -3.152097448718    -0.709069545345     1.007825032230
         H            2.129340405912     1.197592551282     1.549087454655     1.007825032230
         H            3.503401405912     1.056048551282     0.419169454655     1.007825032230
         H            2.709255405912    -0.397413448718     1.033957454655     1.007825032230

  Basis Set: AUG-CC-PVTZ
    Blend: AUG-CC-PVTZ
  Basis Set: (AUG-CC-PVTZ AUX)
    Blend: AUG-CC-PVTZ-JKFIT
	 Reference Energy          =    -402.9471175568236845 [Eh]
	 Singles Energy            =      -0.0000000000000000 [Eh]
	 Same-Spin Energy          =      -0.4487727912406703 [Eh]
	 Opposite-Spin Energy      =      -1.4679843205058911 [Eh]
	 Correlation Energy        =      -1.9167571117465614 [Eh]
	 Total Energy              =    -404.8638746685702472 [Eh]

	 ================> DF-SCS-MP2 Energies <==================
	-----------------------------------------------------------
	 SCS Same-Spin Scale       =       0.3333333333333333 [-]
	 SCS Opposite-Spin Scale   =       1.2000000000000000 [-]
	 SCS Same-Spin Energy      =      -0.1495909304135568 [Eh]
	 SCS Opposite-Spin Energy  =      -1.7615811846070693 [Eh]
	 SCS Correlation Energy    =      -1.9111721150206260 [Eh]
	 SCS Total Energy          =    -404.8582896718443180 [Eh]
	-----------------------------------------------------------

  Dipole Moment: [D]
     X:     0.5322      Y:     1.1423      Z:     0.4294     Total:     1.3313

*** Psi4 exiting successfully. Buy a developer a beer!
