                               Psi4 1.3.2 release

  ==> Input File <==

--------------------------------------------------------------------------
#psi4
#
memory 32 gb

molecule  {
0 1
  N        1.6268380     0.6089620    -0.4693990
  C        0.3031040     0.1485790    -0.2066970
  C       -0.7706010     1.0561020    -0.0842670
  C        0.0806060    -1.2405240    -0.1151990
  C       -2.0579110     0.5582020     0.1415980
  C       -1.2176000    -1.6989120     0.1341680
  C       -2.2850370    -0.8120180     0.2620550
  C       -0.5406870     2.5426280    -0.1993030
  C        1.2072340    -2.2197810    -0.3093320
  C        2.5023020     0.6131830     0.7097540
  H       -2.8885640     1.2560570     0.2350690
  H       -1.3937740    -2.7714120     0.2029680
  H        1.5916390     1.5501200    -0.8540680
  H       -3.2895990    -1.1861590     0.4450020
  H        0.2351210     2.8885850     0.4923550
  H       -0.2380210     2.8365620    -1.2118290
  H       -1.4595390     3.0868260     0.0338520
  H        1.9415750    -1.8136360    -1.0094830
  H        1.7264620    -2.4417900     0.6300600
  H        0.8237630    -3.1662910    -0.7010550
  H        2.0935470     1.1833990     1.5571020
  H        3.4676080     1.0418550     0.4271840
  H        2.6734620    -0.4116070     1.0419720
units angstrom
no_reorient  #important for SAPT in psi4, default
symmetry c1  #important for SAPT in psi4, default
}

set PROPERTIES_ORIGIN ["COM"]
properties('MP2/aug-cc-pvtz', properties = ['dipole'])
--------------------------------------------------------------------------

    Molecular point group: c1
  Charge       = 0
  Multiplicity = 1
  Basis Set: AUG-CC-PVTZ
    Blend: AUG-CC-PVTZ
  Basis Set: (AUG-CC-PVTZ AUX)
    Blend: AUG-CC-PVTZ-JKFIT

    Orbital Energies [Eh]
    ---------------------

    Doubly Occupied:

       1A    -15.553797     2A    -11.258222     3A    -11.249640
       4A    -11.235893     5A    -11.232035     6A    -11.228380
       7A    -11.225386     8A    -11.224220     9A    -11.223012
      10A    -11.214126    11A     -1.226552    12A     -1.130838
      13A     -1.054402    14A     -1.012413    15A     -0.945366
      16A     -0.922147    17A     -0.892065    18A     -0.794643
      19A     -0.781270    20A     -0.692573    21A     -0.660731
      22A     -0.629525    23A     -0.603493    24A     -0.591521
      25A     -0.578836    26A     -0.568856    27A     -0.565288
      28A     -0.556751    29A     -0.552215    30A     -0.530719
      31A     -0.521035    32A     -0.485334    33A     -0.477024
      34A     -0.470849    35A     -0.402472    36A     -0.317089
      37A     -0.302744

  @DF-RHF Final Energy:  -402.96175510445062

   => Energetics <=

    Nuclear Repulsion Energy =            521.3135870010227109
    One-Electron Energy =               -1578.7277581327609823
    Two-Electron Energy =                 654.4524160272877680
    Total Energy =                       -402.9617551044506172
  Basis Set: (AUG-CC-PVTZ AUX)
    Blend: AUG-CC-PVTZ-RI
    Molecular point group: c1

    Geometry (in Angstrom), charge = 0, multiplicity = 1:

       Center              X                  Y                   Z               Mass
    ------------   -----------------  -----------------  -----------------  -----------------
         N            1.665602885843     0.624021288106    -0.459921257802    14.003074004430
         C            0.341868885843     0.163638288106    -0.197219257802    12.000000000000
         C           -0.731836114157     1.071161288106    -0.074789257802    12.000000000000
         C            0.119370885843    -1.225464711894    -0.105721257802    12.000000000000
         C           -2.019146114157     0.573261288106     0.151075742198    12.000000000000
         C           -1.178835114157    -1.683852711894     0.143645742198    12.000000000000
         C           -2.246272114157    -0.796958711894     0.271532742198    12.000000000000
         C           -0.501922114157     2.557687288106    -0.189825257802    12.000000000000
         C            1.245998885843    -2.204721711894    -0.299854257802    12.000000000000
         C            2.541066885843     0.628242288106     0.719231742198    12.000000000000
         H           -2.849799114157     1.271116288106     0.244546742198     1.007825032230
         H           -1.355009114157    -2.756352711894     0.212445742198     1.007825032230
         H            1.630403885843     1.565179288106    -0.844590257802     1.007825032230
         H           -3.250834114157    -1.171099711894     0.454479742198     1.007825032230
         H            0.273885885843     2.903644288106     0.501832742198     1.007825032230
         H           -0.199256114157     2.851621288106    -1.202351257802     1.007825032230
         H           -1.420774114157     3.101885288106     0.043329742198     1.007825032230
         H            1.980339885843    -1.798576711894    -1.000005257802     1.007825032230
         H            1.765226885843    -2.426730711894     0.639537742198     1.007825032230
         H            0.862527885843    -3.151231711894    -0.691577257802     1.007825032230
         H            2.132311885843     1.198458288106     1.566579742198     1.007825032230
         H            3.506372885843     1.056914288106     0.436661742198     1.007825032230
         H            2.712226885843    -0.396547711894     1.051449742198     1.007825032230

  Basis Set: AUG-CC-PVTZ
    Blend: AUG-CC-PVTZ
  Basis Set: (AUG-CC-PVTZ AUX)
    Blend: AUG-CC-PVTZ-JKFIT
	 Reference Energy          =    -402.9617551044506172 [Eh]
	 Singles Energy            =      -0.0000000000000000 [Eh]
	 Same-Spin Energy          =      -0.4479915992557482 [Eh]
	 Opposite-Spin Energy      =      -1.4659215115024480 [Eh]
	 Correlation Energy        =      -1.9139131107581961 [Eh]
	 Total Energy              =    -404.8756682152088047 [Eh]

	 ================> DF-SCS-MP2 Energies <==================
	-----------------------------------------------------------
	 SCS Same-Spin Scale       =       0.3333333333333333 [-]
	 SCS Opposite-Spin Scale   =       1.2000000000000000 [-]
	 SCS Same-Spin Energy      =      -0.1493305330852494 [Eh]
	 SCS Opposite-Spin Energy  =      -1.7591058138029376 [Eh]
	 SCS Correlation Energy    =      -1.9084363468881871 [Eh]
	 SCS Total Energy          =    -404.8701914513388260 [Eh]
	-----------------------------------------------------------

  Dipole Moment: [D]
     X:     0.5389      Y:     1.0726      Z:     0.5205     Total:     1.3084

*** Psi4 exiting successfully. Buy a developer a beer!
