                               Psi4 1.3.2 release

  ==> Input File <==

--------------------------------------------------------------------------
#psi4
#
memory 32 gb

molecule  {
0 1
  N        1.6268380     0.6089620    -0.4693990
  C        0.3031040     0.1485790    -0.2066970
  C       -0.7706010     1.0561020    -0.0842670
  C        0.0806060    -1.2405240    -0.1151990
  C       -2.0579110     0.5582020     0.1415980
  C       -1.2176000    -1.6989120     0.1341680
  C       -2.2850370    -0.8120180     0.2620550
  C       -0.5406870     2.5426280    -0.1993030
  C        1.2072340    -2.2197810    -0.3093320
  C        2.5023020     0.6131830     0.7097540
  H       -2.8885640     1.2560570     0.2350690
  H       -1.3937740    -2.7714120     0.2029680
  H        1.5916390     1.5501200    -0.8540680
  H       -3.3057894    -1.1918623     0.3464863
  H        0.2351210     2.8885850     0.4923550
  H       -0.2380210     2.8365620    -1.2118290
  H       -1.4595390     3.0868260     0.0338520
  H        1.9415750    -1.8136360    -1.0094830
  H        1.7264620    -2.4417900     0.6300600
  H        0.8237630    -3.1662910    -0.7010550
  H        2.0935470     1.1833990     1.5571020
  H        3.4676080     1.0418550     0.4271840
  H        2.6734620    -0.4116070     1.0419720
units angstrom
no_reorient  #important for SAPT in psi4, default
symmetry c1  #important for SAPT in psi4, default
}

set PROPERTIES_ORIGIN ["COM"]
properties('MP2/aug-cc-pvtz', properties = ['dipole'])
--------------------------------------------------------------------------

    Molecular point group: c1
  Charge       = 0
  Multiplicity = 1
  Basis Set: AUG-CC-PVTZ
    Blend: AUG-CC-PVTZ
  Basis Set: (AUG-CC-PVTZ AUX)
    Blend: AUG-CC-PVTZ-JKFIT

    Orbital Energies [Eh]
    ---------------------

    Doubly Occupied:

       1A    -15.553847     2A    -11.258347     3A    -11.249682
       4A    -11.235907     5A    -11.232104     6A    -11.228402
       7A    -11.225579     8A    -11.224460     9A    -11.223204
      10A    -11.214169    11A     -1.226614    12A     -1.130869
      13A     -1.054453    14A     -1.012324    15A     -0.945406
      16A     -0.922191    17A     -0.892025    18A     -0.794402
      19A     -0.781235    20A     -0.692611    21A     -0.660621
      22A     -0.629188    23A     -0.602964    24A     -0.591564
      25A     -0.578872    26A     -0.568985    27A     -0.565284
      28A     -0.556773    29A     -0.552167    30A     -0.530862
      31A     -0.521096    32A     -0.486071    33A     -0.477010
      34A     -0.469492    35A     -0.402771    36A     -0.317138
      37A     -0.302702

  @DF-RHF Final Energy:  -402.96112928689507

   => Energetics <=

    Nuclear Repulsion Energy =            521.2925856106296578
    One-Electron Energy =               -1578.6846486056901995
    Two-Electron Energy =                 654.4309337081655258
    Total Energy =                       -402.9611292868950159
  Basis Set: (AUG-CC-PVTZ AUX)
    Blend: AUG-CC-PVTZ-RI
    Molecular point group: c1

    Geometry (in Angstrom), charge = 0, multiplicity = 1:

       Center              X                  Y                   Z               Mass
    ------------   -----------------  -----------------  -----------------  -----------------
         N            1.665723659424     0.624063832328    -0.459186372077    14.003074004430
         C            0.341989659424     0.163680832328    -0.196484372077    12.000000000000
         C           -0.731715340576     1.071203832328    -0.074054372077    12.000000000000
         C            0.119491659424    -1.225422167672    -0.104986372077    12.000000000000
         C           -2.019025340576     0.573303832328     0.151810627923    12.000000000000
         C           -1.178714340576    -1.683810167672     0.144380627923    12.000000000000
         C           -2.246151340576    -0.796916167672     0.272267627923    12.000000000000
         C           -0.501801340576     2.557729832328    -0.189090372077    12.000000000000
         C            1.246119659424    -2.204679167672    -0.299119372077    12.000000000000
         C            2.541187659424     0.628284832328     0.719966627923    12.000000000000
         H           -2.849678340576     1.271158832328     0.245281627923     1.007825032230
         H           -1.354888340576    -2.756310167672     0.213180627923     1.007825032230
         H            1.630524659424     1.565221832328    -0.843855372077     1.007825032230
         H           -3.266903740576    -1.176760467672     0.356698927923     1.007825032230
         H            0.274006659424     2.903686832328     0.502567627923     1.007825032230
         H           -0.199135340576     2.851663832328    -1.201616372077     1.007825032230
         H           -1.420653340576     3.101927832328     0.044064627923     1.007825032230
         H            1.980460659424    -1.798534167672    -0.999270372077     1.007825032230
         H            1.765347659424    -2.426688167672     0.640272627923     1.007825032230
         H            0.862648659424    -3.151189167672    -0.690842372077     1.007825032230
         H            2.132432659424     1.198500832328     1.567314627923     1.007825032230
         H            3.506493659424     1.056956832328     0.437396627923     1.007825032230
         H            2.712347659424    -0.396505167672     1.052184627923     1.007825032230

  Basis Set: AUG-CC-PVTZ
    Blend: AUG-CC-PVTZ
  Basis Set: (AUG-CC-PVTZ AUX)
    Blend: AUG-CC-PVTZ-JKFIT
	 Reference Energy          =    -402.9611292868950727 [Eh]
	 Singles Energy            =      -0.0000000000000000 [Eh]
	 Same-Spin Energy          =      -0.4480251967655874 [Eh]
	 Opposite-Spin Energy      =      -1.4659959670104290 [Eh]
	 Correlation Energy        =      -1.9140211637760163 [Eh]
	 Total Energy              =    -404.8751504506710717 [Eh]

	 ================> DF-SCS-MP2 Energies <==================
	-----------------------------------------------------------
	 SCS Same-Spin Scale       =       0.3333333333333333 [-]
	 SCS Opposite-Spin Scale   =       1.2000000000000000 [-]
	 SCS Same-Spin Energy      =      -0.1493417322551958 [Eh]
	 SCS Opposite-Spin Energy  =      -1.7591951604125147 [Eh]
	 SCS Correlation Energy    =      -1.9085368926677104 [Eh]
	 SCS Total Energy          =    -404.8696661795627847 [Eh]
	-----------------------------------------------------------

  Dipole Moment: [D]
     X:     0.5392      Y:     1.0722      Z:     0.4560     Total:     1.2838

*** Psi4 exiting successfully. Buy a developer a beer!
