                               Psi4 1.3.2 release

  ==> Input File <==

--------------------------------------------------------------------------
#psi4
#
memory 32 gb

molecule  {
0 1
  N        1.6268380     0.6089620    -0.4693990
  C        0.3031040     0.1485790    -0.2066970
  C       -0.7706010     1.0561020    -0.0842670
  C        0.0806060    -1.2405240    -0.1151990
  C       -2.0579110     0.5582020     0.1415980
  C       -1.2176000    -1.6989120     0.1341680
  C       -2.2850370    -0.8120180     0.2620550
  C       -0.5406870     2.5426280    -0.1993030
  C        1.2072340    -2.2197810    -0.3093320
  C        2.5023020     0.6131830     0.7097540
  H       -2.8885640     1.2560570     0.2350690
  H       -1.3937740    -2.7714120     0.2029680
  H        1.5916390     1.5501200    -0.8540680
  H       -3.2976942    -1.1890106     0.3957441
  H        0.2351210     2.8885850     0.4923550
  H       -0.2380210     2.8365620    -1.2118290
  H       -1.4595390     3.0868260     0.0338520
  H        1.9415750    -1.8136360    -1.0094830
  H        1.7264620    -2.4417900     0.6300600
  H        0.8237630    -3.1662910    -0.7010550
  H        2.0935470     1.1833990     1.5571020
  H        3.4676080     1.0418550     0.4271840
  H        2.6734620    -0.4116070     1.0419720
units angstrom
no_reorient  #important for SAPT in psi4, default
symmetry c1  #important for SAPT in psi4, default
}

set PROPERTIES_ORIGIN ["COM"]
properties('MP2/aug-cc-pvtz', properties = ['dipole'])
--------------------------------------------------------------------------

    Molecular point group: c1
  Charge       = 0
  Multiplicity = 1
  Basis Set: AUG-CC-PVTZ
    Blend: AUG-CC-PVTZ
  Basis Set: (AUG-CC-PVTZ AUX)
    Blend: AUG-CC-PVTZ-JKFIT

    Orbital Energies [Eh]
    ---------------------

    Doubly Occupied:

       1A    -15.553806     2A    -11.258256     3A    -11.249648
       4A    -11.235891     5A    -11.232061     6A    -11.228383
       7A    -11.225431     8A    -11.224287     9A    -11.223072
      10A    -11.214140    11A     -1.226566    12A     -1.130847
      13A     -1.054416    14A     -1.012390    15A     -0.945376
      16A     -0.922159    17A     -0.892052    18A     -0.794575
      19A     -0.781261    20A     -0.692581    21A     -0.660703
      22A     -0.629482    23A     -0.603257    24A     -0.591531
      25A     -0.578843    26A     -0.568911    27A     -0.565291
      28A     -0.556756    29A     -0.552186    30A     -0.530807
      31A     -0.521059    32A     -0.485673    33A     -0.476908
      34A     -0.470375    35A     -0.402620    36A     -0.317103
      37A     -0.302726

  @DF-RHF Final Energy:  -402.96159984824874

   => Energetics <=

    Nuclear Repulsion Energy =            521.3074371027366851
    One-Electron Energy =               -1578.7152089915045963
    Two-Electron Energy =                 654.4461720405191727
    Total Energy =                       -402.9615998482487385
  Basis Set: (AUG-CC-PVTZ AUX)
    Blend: AUG-CC-PVTZ-RI
    Molecular point group: c1

    Geometry (in Angstrom), charge = 0, multiplicity = 1:

       Center              X                  Y                   Z               Mass
    ------------   -----------------  -----------------  -----------------  -----------------
         N            1.665663272633     0.624042559844    -0.459553814566    14.003074004430
         C            0.341929272633     0.163659559844    -0.196851814566    12.000000000000
         C           -0.731775727367     1.071182559844    -0.074421814566    12.000000000000
         C            0.119431272633    -1.225443440156    -0.105353814566    12.000000000000
         C           -2.019085727367     0.573282559844     0.151443185434    12.000000000000
         C           -1.178774727367    -1.683831440156     0.144013185434    12.000000000000
         C           -2.246211727367    -0.796937440156     0.271900185434    12.000000000000
         C           -0.501861727367     2.557708559844    -0.189457814566    12.000000000000
         C            1.246059272633    -2.204700440156    -0.299486814566    12.000000000000
         C            2.541127272633     0.628263559844     0.719599185434    12.000000000000
         H           -2.849738727367     1.271137559844     0.244914185434     1.007825032230
         H           -1.354948727367    -2.756331440156     0.212813185434     1.007825032230
         H            1.630464272633     1.565200559844    -0.844222814566     1.007825032230
         H           -3.258868927367    -1.173930040156     0.405589285434     1.007825032230
         H            0.273946272633     2.903665559844     0.502200185434     1.007825032230
         H           -0.199195727367     2.851642559844    -1.201983814566     1.007825032230
         H           -1.420713727367     3.101906559844     0.043697185434     1.007825032230
         H            1.980400272633    -1.798555440156    -0.999637814566     1.007825032230
         H            1.765287272633    -2.426709440156     0.639905185434     1.007825032230
         H            0.862588272633    -3.151210440156    -0.691209814566     1.007825032230
         H            2.132372272633     1.198479559844     1.566947185434     1.007825032230
         H            3.506433272633     1.056935559844     0.437029185434     1.007825032230
         H            2.712287272633    -0.396526440156     1.051817185434     1.007825032230

  Basis Set: AUG-CC-PVTZ
    Blend: AUG-CC-PVTZ
  Basis Set: (AUG-CC-PVTZ AUX)
    Blend: AUG-CC-PVTZ-JKFIT
	 Reference Energy          =    -402.9615998482487385 [Eh]
	 Singles Energy            =      -0.0000000000000000 [Eh]
	 Same-Spin Energy          =      -0.4479996781475302 [Eh]
	 Opposite-Spin Energy      =      -1.4659370573897001 [Eh]
	 Correlation Energy        =      -1.9139367355372303 [Eh]
	 Total Energy              =    -404.8755365837859586 [Eh]

	 ================> DF-SCS-MP2 Energies <==================
	-----------------------------------------------------------
	 SCS Same-Spin Scale       =       0.3333333333333333 [-]
	 SCS Opposite-Spin Scale   =       1.2000000000000000 [-]
	 SCS Same-Spin Energy      =      -0.1493332260491767 [Eh]
	 SCS Opposite-Spin Energy  =      -1.7591244688676402 [Eh]
	 SCS Correlation Energy    =      -1.9084576949168168 [Eh]
	 SCS Total Energy          =    -404.8700575431655579 [Eh]
	-----------------------------------------------------------

  Dipole Moment: [D]
     X:     0.5366      Y:     1.0715      Z:     0.4886     Total:     1.2941

*** Psi4 exiting successfully. Buy a developer a beer!
