                               Psi4 1.3.2 release

  ==> Input File <==

--------------------------------------------------------------------------
#psi4
#
memory 32 gb

molecule  {
0 1
  N        1.6268380     0.6089620    -0.4693990
  C        0.3031040     0.1485790    -0.2066970
  C       -0.7706010     1.0561020    -0.0842670
  C        0.0806060    -1.2405240    -0.1151990
  C       -2.0579110     0.5582020     0.1415980
  C       -1.2176000    -1.6989120     0.1341680
  C       -2.2850370    -0.8120180     0.2620550
  C       -0.5793040     2.5297791    -0.4459680
  C        1.2072340    -2.2197810    -0.3093320
  C        2.5023020     0.6131830     0.7097540
  H       -2.8885640     1.2560570     0.2350690
  H       -1.3937740    -2.7714120     0.2029680
  H        1.5916390     1.5501200    -0.8540680
  H       -3.2895990    -1.1861590     0.4450020
  H        0.2351210     2.8885850     0.4923550
  H       -0.2380210     2.8365620    -1.2118290
  H       -1.4595390     3.0868260     0.0338520
  H        1.9415750    -1.8136360    -1.0094830
  H        1.7264620    -2.4417900     0.6300600
  H        0.8237630    -3.1662910    -0.7010550
  H        2.0935470     1.1833990     1.5571020
  H        3.4676080     1.0418550     0.4271840
  H        2.6734620    -0.4116070     1.0419720
units angstrom
no_reorient  #important for SAPT in psi4, default
symmetry c1  #important for SAPT in psi4, default
}

set PROPERTIES_ORIGIN ["COM"]
properties('MP2/aug-cc-pvtz', properties = ['dipole'])
--------------------------------------------------------------------------

    Molecular point group: c1
  Charge       = 0
  Multiplicity = 1
  Basis Set: AUG-CC-PVTZ
    Blend: AUG-CC-PVTZ
  Basis Set: (AUG-CC-PVTZ AUX)
    Blend: AUG-CC-PVTZ-JKFIT

    Orbital Energies [Eh]
    ---------------------

    Doubly Occupied:

       1A    -15.553519     2A    -11.259424     3A    -11.248936
       4A    -11.240946     5A    -11.236759     6A    -11.233007
       7A    -11.226764     8A    -11.225389     9A    -11.224212
      10A    -11.214615    11A     -1.226466    12A     -1.131594
      13A     -1.054868    14A     -1.013646    15A     -0.949086
      16A     -0.926928    17A     -0.892698    18A     -0.800367
      19A     -0.782488    20A     -0.698589    21A     -0.660356
      22A     -0.644962    23A     -0.617776    24A     -0.596543
      25A     -0.580955    26A     -0.573645    27A     -0.568394
      28A     -0.549078    29A     -0.541053    30A     -0.528964
      31A     -0.500771    32A     -0.485495    33A     -0.478100
      34A     -0.453058    35A     -0.402328    36A     -0.316617
      37A     -0.303367

  @DF-RHF Final Energy:  -402.89093566444853

   => Energetics <=

    Nuclear Repulsion Energy =            520.9154393951333759
    One-Electron Energy =               -1577.7292284575505619
    Two-Electron Energy =                 653.9228533979685380
    Total Energy =                       -402.8909356644485342
  Basis Set: (AUG-CC-PVTZ AUX)
    Blend: AUG-CC-PVTZ-RI
    Molecular point group: c1

    Geometry (in Angstrom), charge = 0, multiplicity = 1:

       Center              X                  Y                   Z               Mass
    ------------   -----------------  -----------------  -----------------  -----------------
         N            1.669032845415     0.625162526616    -0.438012487628    14.003074004430
         C            0.345298845415     0.164779526616    -0.175310487628    12.000000000000
         C           -0.728406154585     1.072302526616    -0.052880487628    12.000000000000
         C            0.122800845415    -1.224323473384    -0.083812487628    12.000000000000
         C           -2.015716154585     0.574402526616     0.172984512372    12.000000000000
         C           -1.175405154585    -1.682711473384     0.165554512372    12.000000000000
         C           -2.242842154585    -0.795817473384     0.293441512372    12.000000000000
         C           -0.537109154585     2.545979626616    -0.414581487628    12.000000000000
         C            1.249428845415    -2.203580473384    -0.277945487628    12.000000000000
         C            2.544496845415     0.629383526616     0.741140512372    12.000000000000
         H           -2.846369154585     1.272257526616     0.266455512372     1.007825032230
         H           -1.351579154585    -2.755211473384     0.234354512372     1.007825032230
         H            1.633833845415     1.566320526616    -0.822681487628     1.007825032230
         H           -3.247404154585    -1.169958473384     0.476388512372     1.007825032230
         H            0.277315845415     2.904785526616     0.523741512372     1.007825032230
         H           -0.195826154585     2.852762526616    -1.180442487628     1.007825032230
         H           -1.417344154585     3.103026526616     0.065238512372     1.007825032230
         H            1.983769845415    -1.797435473384    -0.978096487628     1.007825032230
         H            1.768656845415    -2.425589473384     0.661446512372     1.007825032230
         H            0.865957845415    -3.150090473384    -0.669668487628     1.007825032230
         H            2.135741845415     1.199599526616     1.588488512372     1.007825032230
         H            3.509802845415     1.058055526616     0.458570512372     1.007825032230
         H            2.715656845415    -0.395406473384     1.073358512372     1.007825032230

  Basis Set: AUG-CC-PVTZ
    Blend: AUG-CC-PVTZ
  Basis Set: (AUG-CC-PVTZ AUX)
    Blend: AUG-CC-PVTZ-JKFIT
	 Reference Energy          =    -402.8909356644485342 [Eh]
	 Singles Energy            =      -0.0000000000000000 [Eh]
	 Same-Spin Energy          =      -0.4489441243173000 [Eh]
	 Opposite-Spin Energy      =      -1.4689567485708834 [Eh]
	 Correlation Energy        =      -1.9179008728881835 [Eh]
	 Total Energy              =    -404.8088365373367310 [Eh]

	 ================> DF-SCS-MP2 Energies <==================
	-----------------------------------------------------------
	 SCS Same-Spin Scale       =       0.3333333333333333 [-]
	 SCS Opposite-Spin Scale   =       1.2000000000000000 [-]
	 SCS Same-Spin Energy      =      -0.1496480414391000 [Eh]
	 SCS Opposite-Spin Energy  =      -1.7627480982850601 [Eh]
	 SCS Correlation Energy    =      -1.9123961397241600 [Eh]
	 SCS Total Energy          =    -404.8033318041726716 [Eh]
	-----------------------------------------------------------

  Dipole Moment: [D]
     X:     0.4805      Y:     0.9447      Z:     0.4229     Total:     1.1411

*** Psi4 exiting successfully. Buy a developer a beer!
