                               Psi4 1.3.2 release

  ==> Input File <==

--------------------------------------------------------------------------
#psi4
#
memory 32 gb

molecule  {
0 1
  N        1.6268380     0.6089620    -0.4693990
  C        0.3031040     0.1485790    -0.2066970
  C       -0.7706010     1.0561020    -0.0842670
  C        0.0806060    -1.2405240    -0.1151990
  C       -2.0579110     0.5582020     0.1415980
  C       -1.2176000    -1.6989120     0.1341680
  C       -2.2850370    -0.8120180     0.2620550
  C       -0.5638572     2.5349187    -0.3473020
  C        1.2072340    -2.2197810    -0.3093320
  C        2.5023020     0.6131830     0.7097540
  H       -2.8885640     1.2560570     0.2350690
  H       -1.3937740    -2.7714120     0.2029680
  H        1.5916390     1.5501200    -0.8540680
  H       -3.2895990    -1.1861590     0.4450020
  H        0.2351210     2.8885850     0.4923550
  H       -0.2380210     2.8365620    -1.2118290
  H       -1.4595390     3.0868260     0.0338520
  H        1.9415750    -1.8136360    -1.0094830
  H        1.7264620    -2.4417900     0.6300600
  H        0.8237630    -3.1662910    -0.7010550
  H        2.0935470     1.1833990     1.5571020
  H        3.4676080     1.0418550     0.4271840
  H        2.6734620    -0.4116070     1.0419720
units angstrom
no_reorient  #important for SAPT in psi4, default
symmetry c1  #important for SAPT in psi4, default
}

set PROPERTIES_ORIGIN ["COM"]
properties('MP2/aug-cc-pvtz', properties = ['dipole'])
--------------------------------------------------------------------------

    Molecular point group: c1
  Charge       = 0
  Multiplicity = 1
  Basis Set: AUG-CC-PVTZ
    Blend: AUG-CC-PVTZ
  Basis Set: (AUG-CC-PVTZ AUX)
    Blend: AUG-CC-PVTZ-JKFIT

    Orbital Energies [Eh]
    ---------------------

    Doubly Occupied:

       1A    -15.553630     2A    -11.258713     3A    -11.249190
       4A    -11.237614     5A    -11.232411     6A    -11.231230
       7A    -11.225858     8A    -11.224645     9A    -11.223489
      10A    -11.214300    11A     -1.226440    12A     -1.131089
      13A     -1.054503    14A     -1.012806    15A     -0.946228
      16A     -0.923924    17A     -0.892261    18A     -0.796470
      19A     -0.781636    20A     -0.694657    21A     -0.660335
      22A     -0.633002    23A     -0.613599    24A     -0.596292
      25A     -0.577631    26A     -0.574881    27A     -0.568615
      28A     -0.550940    29A     -0.544970    30A     -0.529858
      31A     -0.508548    32A     -0.483770    33A     -0.480943
      34A     -0.463415    35A     -0.402343    36A     -0.317227
      37A     -0.303074

  @DF-RHF Final Energy:  -402.93741791105970

   => Energetics <=

    Nuclear Repulsion Energy =            521.1296171100730135
    One-Electron Energy =               -1578.2929943736621681
    Two-Electron Energy =                 654.2259593525294576
    Total Energy =                       -402.9374179110596970
  Basis Set: (AUG-CC-PVTZ AUX)
    Blend: AUG-CC-PVTZ-RI
    Molecular point group: c1

    Geometry (in Angstrom), charge = 0, multiplicity = 1:

       Center              X                  Y                   Z               Mass
    ------------   -----------------  -----------------  -----------------  -----------------
         N            1.667660861586     0.624706027659    -0.446775995698    14.003074004430
         C            0.343926861586     0.164323027659    -0.184073995698    12.000000000000
         C           -0.729778138414     1.071846027659    -0.061643995698    12.000000000000
         C            0.121428861586    -1.224779972341    -0.092575995698    12.000000000000
         C           -2.017088138414     0.573946027659     0.164221004302    12.000000000000
         C           -1.176777138414    -1.683167972341     0.156791004302    12.000000000000
         C           -2.244214138414    -0.796273972341     0.284678004302    12.000000000000
         C           -0.523034338414     2.550662727659    -0.324678995698    12.000000000000
         C            1.248056861586    -2.204036972341    -0.286708995698    12.000000000000
         C            2.543124861586     0.628927027659     0.732377004302    12.000000000000
         H           -2.847741138414     1.271801027659     0.257692004302     1.007825032230
         H           -1.352951138414    -2.755667972341     0.225591004302     1.007825032230
         H            1.632461861586     1.565864027659    -0.831444995698     1.007825032230
         H           -3.248776138414    -1.170414972341     0.467625004302     1.007825032230
         H            0.275943861586     2.904329027659     0.514978004302     1.007825032230
         H           -0.197198138414     2.852306027659    -1.189205995698     1.007825032230
         H           -1.418716138414     3.102570027659     0.056475004302     1.007825032230
         H            1.982397861586    -1.797891972341    -0.986859995698     1.007825032230
         H            1.767284861586    -2.426045972341     0.652683004302     1.007825032230
         H            0.864585861586    -3.150546972341    -0.678431995698     1.007825032230
         H            2.134369861586     1.199143027659     1.579725004302     1.007825032230
         H            3.508430861586     1.057599027659     0.449807004302     1.007825032230
         H            2.714284861586    -0.395862972341     1.064595004302     1.007825032230

  Basis Set: AUG-CC-PVTZ
    Blend: AUG-CC-PVTZ
  Basis Set: (AUG-CC-PVTZ AUX)
    Blend: AUG-CC-PVTZ-JKFIT
	 Reference Energy          =    -402.9374179110596970 [Eh]
	 Singles Energy            =      -0.0000000000000000 [Eh]
	 Same-Spin Energy          =      -0.4483450614696149 [Eh]
	 Opposite-Spin Energy      =      -1.4670021939251425 [Eh]
	 Correlation Energy        =      -1.9153472553947575 [Eh]
	 Total Energy              =    -404.8527651664544464 [Eh]

	 ================> DF-SCS-MP2 Energies <==================
	-----------------------------------------------------------
	 SCS Same-Spin Scale       =       0.3333333333333333 [-]
	 SCS Opposite-Spin Scale   =       1.2000000000000000 [-]
	 SCS Same-Spin Energy      =      -0.1494483538232050 [Eh]
	 SCS Opposite-Spin Energy  =      -1.7604026327101709 [Eh]
	 SCS Correlation Energy    =      -1.9098509865333759 [Eh]
	 SCS Total Energy          =    -404.8472688975930964 [Eh]
	-----------------------------------------------------------

  Dipole Moment: [D]
     X:     0.5124      Y:     1.0209      Z:     0.4499     Total:     1.2277

*** Psi4 exiting successfully. Buy a developer a beer!
