                               Psi4 1.3.2 release

  ==> Input File <==

--------------------------------------------------------------------------
#psi4
#
memory 32 gb

molecule  {
0 1
  N        1.6268380     0.6089620    -0.4693990
  C        0.3031040     0.1485790    -0.2066970
  C       -0.7706010     1.0561020    -0.0842670
  C        0.0806060    -1.2405240    -0.1151990
  C       -2.0579110     0.5582020     0.1415980
  C       -1.2176000    -1.6989120     0.1341680
  C       -2.2850370    -0.8120180     0.2620550
  C       -0.5406870     2.5426280    -0.1993030
  C        1.2072340    -2.2197810    -0.3093320
  C        2.5023020     0.6131830     0.7097540
  H       -2.8885640     1.2560570     0.2350690
  H       -1.3937740    -2.7714120     0.2029680
  H        1.5916390     1.5501200    -0.8540680
  H       -3.3138845    -1.1947139     0.2972284
  H        0.2351210     2.8885850     0.4923550
  H       -0.2380210     2.8365620    -1.2118290
  H       -1.4595390     3.0868260     0.0338520
  H        1.9415750    -1.8136360    -1.0094830
  H        1.7264620    -2.4417900     0.6300600
  H        0.8237630    -3.1662910    -0.7010550
  H        2.0935470     1.1833990     1.5571020
  H        3.4676080     1.0418550     0.4271840
  H        2.6734620    -0.4116070     1.0419720
units angstrom
no_reorient  #important for SAPT in psi4, default
symmetry c1  #important for SAPT in psi4, default
}

set PROPERTIES_ORIGIN ["COM"]
properties('MP2/aug-cc-pvtz', properties = ['dipole'])
--------------------------------------------------------------------------

    Molecular point group: c1
  Charge       = 0
  Multiplicity = 1
  Basis Set: AUG-CC-PVTZ
    Blend: AUG-CC-PVTZ
  Basis Set: (AUG-CC-PVTZ AUX)
    Blend: AUG-CC-PVTZ-JKFIT

    Orbital Energies [Eh]
    ---------------------

    Doubly Occupied:

       1A    -15.553922     2A    -11.258492     3A    -11.249741
       4A    -11.235941     5A    -11.232163     6A    -11.228435
       7A    -11.225873     8A    -11.224713     9A    -11.223391
      10A    -11.214213    11A     -1.226695    12A     -1.130905
      13A     -1.054512    14A     -1.012218    15A     -0.945456
      16A     -0.922241    17A     -0.891985    18A     -0.794133
      19A     -0.781190    20A     -0.692664    21A     -0.660495
      22A     -0.628656    23A     -0.602606    24A     -0.591618
      25A     -0.578923    26A     -0.569076    27A     -0.565269
      28A     -0.556803    29A     -0.552159    30A     -0.530880
      31A     -0.521145    32A     -0.486513    33A     -0.477243
      34A     -0.468301    35A     -0.402924    36A     -0.317194
      37A     -0.302675

  @DF-RHF Final Energy:  -402.96032189709450

   => Energetics <=

    Nuclear Repulsion Energy =            521.2692280602383335
    One-Electron Energy =               -1578.6363714461492691
    Two-Electron Energy =                 654.4068214888162629
    Total Energy =                       -402.9603218970945591
  Basis Set: (AUG-CC-PVTZ AUX)
    Blend: AUG-CC-PVTZ-RI
    Molecular point group: c1

    Geometry (in Angstrom), charge = 0, multiplicity = 1:

       Center              X                  Y                   Z               Mass
    ------------   -----------------  -----------------  -----------------  -----------------
         N            1.665784045468     0.624085104065    -0.458818928841    14.003074004430
         C            0.342050045468     0.163702104065    -0.196116928841    12.000000000000
         C           -0.731654954532     1.071225104065    -0.073686928841    12.000000000000
         C            0.119552045468    -1.225400895935    -0.104618928841    12.000000000000
         C           -2.018964954532     0.573325104065     0.152178071159    12.000000000000
         C           -1.178653954532    -1.683788895935     0.144748071159    12.000000000000
         C           -2.246090954532    -0.796894895935     0.272635071159    12.000000000000
         C           -0.501740954532     2.557751104065    -0.188722928841    12.000000000000
         C            1.246180045468    -2.204657895935    -0.298751928841    12.000000000000
         C            2.541248045468     0.628306104065     0.720334071159    12.000000000000
         H           -2.849617954532     1.271180104065     0.245649071159     1.007825032230
         H           -1.354827954532    -2.756288895935     0.213548071159     1.007825032230
         H            1.630585045468     1.565243104065    -0.843487928841     1.007825032230
         H           -3.274938454532    -1.179590795935     0.307808471159     1.007825032230
         H            0.274067045468     2.903708104065     0.502935071159     1.007825032230
         H           -0.199074954532     2.851685104065    -1.201248928841     1.007825032230
         H           -1.420592954532     3.101949104065     0.044432071159     1.007825032230
         H            1.980521045468    -1.798512895935    -0.998902928841     1.007825032230
         H            1.765408045468    -2.426666895935     0.640640071159     1.007825032230
         H            0.862709045468    -3.151167895935    -0.690474928841     1.007825032230
         H            2.132493045468     1.198522104065     1.567682071159     1.007825032230
         H            3.506554045468     1.056978104065     0.437764071159     1.007825032230
         H            2.712408045468    -0.396483895935     1.052552071159     1.007825032230

  Basis Set: AUG-CC-PVTZ
    Blend: AUG-CC-PVTZ
  Basis Set: (AUG-CC-PVTZ AUX)
    Blend: AUG-CC-PVTZ-JKFIT
	 Reference Energy          =    -402.9603218970945022 [Eh]
	 Singles Energy            =      -0.0000000000000000 [Eh]
	 Same-Spin Energy          =      -0.4480679139402331 [Eh]
	 Opposite-Spin Energy      =      -1.4661017159472249 [Eh]
	 Correlation Energy        =      -1.9141696298874580 [Eh]
	 Total Energy              =    -404.8744915269819558 [Eh]

	 ================> DF-SCS-MP2 Energies <==================
	-----------------------------------------------------------
	 SCS Same-Spin Scale       =       0.3333333333333333 [-]
	 SCS Opposite-Spin Scale   =       1.2000000000000000 [-]
	 SCS Same-Spin Energy      =      -0.1493559713134110 [Eh]
	 SCS Opposite-Spin Energy  =      -1.7593220591366698 [Eh]
	 SCS Correlation Energy    =      -1.9086780304500808 [Eh]
	 SCS Total Energy          =    -404.8689999275445643 [Eh]
	-----------------------------------------------------------

  Dipole Moment: [D]
     X:     0.5467      Y:     1.0746      Z:     0.4230     Total:     1.2777

*** Psi4 exiting successfully. Buy a developer a beer!
