                               Psi4 1.3.2 release

  ==> Input File <==

--------------------------------------------------------------------------
#psi4
#
memory 32 gb

molecule  {
0 1
  N        1.6268380     0.6089620    -0.4693990
  C        0.3031040     0.1485790    -0.2066970
  C       -0.7706010     1.0561020    -0.0842670
  C        0.0806060    -1.2405240    -0.1151990
  C       -2.0579110     0.5582020     0.1415980
  C       -1.2176000    -1.6989120     0.1341680
  C       -2.2850370    -0.8120180     0.2620550
  C       -0.5484104     2.5400582    -0.2486360
  C        1.2072340    -2.2197810    -0.3093320
  C        2.5023020     0.6131830     0.7097540
  H       -2.8885640     1.2560570     0.2350690
  H       -1.3937740    -2.7714120     0.2029680
  H        1.5916390     1.5501200    -0.8540680
  H       -3.2895990    -1.1861590     0.4450020
  H        0.2351210     2.8885850     0.4923550
  H       -0.2380210     2.8365620    -1.2118290
  H       -1.4595390     3.0868260     0.0338520
  H        1.9415750    -1.8136360    -1.0094830
  H        1.7264620    -2.4417900     0.6300600
  H        0.8237630    -3.1662910    -0.7010550
  H        2.0935470     1.1833990     1.5571020
  H        3.4676080     1.0418550     0.4271840
  H        2.6734620    -0.4116070     1.0419720
units angstrom
no_reorient  #important for SAPT in psi4, default
symmetry c1  #important for SAPT in psi4, default
}

set PROPERTIES_ORIGIN ["COM"]
properties('MP2/aug-cc-pvtz', properties = ['dipole'])
--------------------------------------------------------------------------

    Molecular point group: c1
  Charge       = 0
  Multiplicity = 1
  Basis Set: AUG-CC-PVTZ
    Blend: AUG-CC-PVTZ
  Basis Set: (AUG-CC-PVTZ AUX)
    Blend: AUG-CC-PVTZ-JKFIT

    Orbital Energies [Eh]
    ---------------------

    Doubly Occupied:

       1A    -15.553747     2A    -11.258309     3A    -11.249484
       4A    -11.236025     5A    -11.232091     6A    -11.228598
       7A    -11.225426     8A    -11.224264     9A    -11.223090
      10A    -11.214145    11A     -1.226498    12A     -1.130854
      13A     -1.054388    14A     -1.012446    15A     -0.945348
      16A     -0.922345    17A     -0.892064    18A     -0.794786
      19A     -0.781269    20A     -0.692801    21A     -0.660541
      22A     -0.629167    23A     -0.605326    24A     -0.593755
      25A     -0.576991    26A     -0.569537    27A     -0.568680
      28A     -0.553976    29A     -0.551699    30A     -0.530477
      31A     -0.518008    32A     -0.484852    33A     -0.478268
      34A     -0.469582    35A     -0.402413    36A     -0.317275
      37A     -0.302838

  @DF-RHF Final Energy:  -402.95913127975376

   => Energetics <=

    Nuclear Repulsion Energy =            521.2721021512882089
    One-Electron Energy =               -1578.6397406168275666
    Two-Electron Energy =                 654.4085071857855382
    Total Energy =                       -402.9591312797538194
  Basis Set: (AUG-CC-PVTZ AUX)
    Blend: AUG-CC-PVTZ-RI
    Molecular point group: c1

    Geometry (in Angstrom), charge = 0, multiplicity = 1:

       Center              X                  Y                   Z               Mass
    ------------   -----------------  -----------------  -----------------  -----------------
         N            1.666288877757     0.624249537585    -0.455539503767    14.003074004430
         C            0.342554877757     0.163866537585    -0.192837503767    12.000000000000
         C           -0.731150122243     1.071389537585    -0.070407503767    12.000000000000
         C            0.120056877757    -1.225236462415    -0.101339503767    12.000000000000
         C           -2.018460122243     0.573489537585     0.155457496233    12.000000000000
         C           -1.178149122243    -1.683624462415     0.148027496233    12.000000000000
         C           -2.245586122243    -0.796730462415     0.275914496233    12.000000000000
         C           -0.508959522243     2.555345737585    -0.234776503767    12.000000000000
         C            1.246684877757    -2.204493462415    -0.295472503767    12.000000000000
         C            2.541752877757     0.628470537585     0.723613496233    12.000000000000
         H           -2.849113122243     1.271344537585     0.248928496233     1.007825032230
         H           -1.354323122243    -2.756124462415     0.216827496233     1.007825032230
         H            1.631089877757     1.565407537585    -0.840208503767     1.007825032230
         H           -3.250148122243    -1.170871462415     0.458861496233     1.007825032230
         H            0.274571877757     2.903872537585     0.506214496233     1.007825032230
         H           -0.198570122243     2.851849537585    -1.197969503767     1.007825032230
         H           -1.420088122243     3.102113537585     0.047711496233     1.007825032230
         H            1.981025877757    -1.798348462415    -0.995623503767     1.007825032230
         H            1.765912877757    -2.426502462415     0.643919496233     1.007825032230
         H            0.863213877757    -3.151003462415    -0.687195503767     1.007825032230
         H            2.132997877757     1.198686537585     1.570961496233     1.007825032230
         H            3.507058877757     1.057142537585     0.441043496233     1.007825032230
         H            2.712912877757    -0.396319462415     1.055831496233     1.007825032230

  Basis Set: AUG-CC-PVTZ
    Blend: AUG-CC-PVTZ
  Basis Set: (AUG-CC-PVTZ AUX)
    Blend: AUG-CC-PVTZ-JKFIT
	 Reference Energy          =    -402.9591312797537626 [Eh]
	 Singles Energy            =      -0.0000000000000000 [Eh]
	 Same-Spin Energy          =      -0.4480396339009352 [Eh]
	 Opposite-Spin Energy      =      -1.4660565928900471 [Eh]
	 Correlation Energy        =      -1.9140962267909822 [Eh]
	 Total Energy              =    -404.8732275065447652 [Eh]

	 ================> DF-SCS-MP2 Energies <==================
	-----------------------------------------------------------
	 SCS Same-Spin Scale       =       0.3333333333333333 [-]
	 SCS Opposite-Spin Scale   =       1.2000000000000000 [-]
	 SCS Same-Spin Energy      =      -0.1493465446336451 [Eh]
	 SCS Opposite-Spin Energy  =      -1.7592679114680565 [Eh]
	 SCS Correlation Energy    =      -1.9086144561017016 [Eh]
	 SCS Total Energy          =    -404.8677457358554648 [Eh]
	-----------------------------------------------------------

  Dipole Moment: [D]
     X:     0.5339      Y:     1.0639      Z:     0.4936     Total:     1.2887

*** Psi4 exiting successfully. Buy a developer a beer!
