                               Psi4 1.3.2 release

  ==> Input File <==

--------------------------------------------------------------------------
#psi4
#
memory 32 gb

molecule  {
0 1
  N        1.6268380     0.6089620    -0.4693990
  C        0.3031040     0.1485790    -0.2066970
  C       -0.7706010     1.0561020    -0.0842670
  C        0.0806060    -1.2405240    -0.1151990
  C       -2.0579110     0.5582020     0.1415980
  C       -1.2176000    -1.6989120     0.1341680
  C       -2.2850370    -0.8120180     0.2620550
  C       -0.5406870     2.5426280    -0.1993030
  C        1.2072340    -2.2197810    -0.3093320
  C        2.5023020     0.6131830     0.7097540
  H       -2.8885640     1.2560570     0.2350690
  H       -1.3937740    -2.7714120     0.2029680
  H        1.5916390     1.5501200    -0.8540680
  H       -3.3219797    -1.1975656     0.2479706
  H        0.2351210     2.8885850     0.4923550
  H       -0.2380210     2.8365620    -1.2118290
  H       -1.4595390     3.0868260     0.0338520
  H        1.9415750    -1.8136360    -1.0094830
  H        1.7264620    -2.4417900     0.6300600
  H        0.8237630    -3.1662910    -0.7010550
  H        2.0935470     1.1833990     1.5571020
  H        3.4676080     1.0418550     0.4271840
  H        2.6734620    -0.4116070     1.0419720
units angstrom
no_reorient  #important for SAPT in psi4, default
symmetry c1  #important for SAPT in psi4, default
}

set PROPERTIES_ORIGIN ["COM"]
properties('MP2/aug-cc-pvtz', properties = ['dipole'])
--------------------------------------------------------------------------

    Molecular point group: c1
  Charge       = 0
  Multiplicity = 1
  Basis Set: AUG-CC-PVTZ
    Blend: AUG-CC-PVTZ
  Basis Set: (AUG-CC-PVTZ AUX)
    Blend: AUG-CC-PVTZ-JKFIT

    Orbital Energies [Eh]
    ---------------------

    Doubly Occupied:

       1A    -15.554030     2A    -11.258692     3A    -11.249825
       4A    -11.235992     5A    -11.232240     6A    -11.228484
       7A    -11.226371     8A    -11.224998     9A    -11.223616
      10A    -11.214273    11A     -1.226808    12A     -1.130955
      13A     -1.054593    14A     -1.012078    15A     -0.945527
      16A     -0.922312    17A     -0.891936    18A     -0.793784
      19A     -0.781124    20A     -0.692739    21A     -0.660338
      22A     -0.627908    23A     -0.602173    24A     -0.591695
      25A     -0.578997    26A     -0.569185    27A     -0.565245
      28A     -0.556845    29A     -0.552160    30A     -0.530859
      31A     -0.521206    32A     -0.486983    33A     -0.477537
      34A     -0.466887    35A     -0.403080    36A     -0.317272
      37A     -0.302643

  @DF-RHF Final Energy:  -402.95914577874800

   => Energetics <=

    Nuclear Repulsion Energy =            521.2376706335204517
    One-Electron Energy =               -1578.5708502522616072
    Two-Electron Energy =                 654.3740338399932170
    Total Energy =                       -402.9591457787480522
  Basis Set: (AUG-CC-PVTZ AUX)
    Blend: AUG-CC-PVTZ-RI
    Molecular point group: c1

    Geometry (in Angstrom), charge = 0, multiplicity = 1:

       Center              X                  Y                   Z               Mass
    ------------   -----------------  -----------------  -----------------  -----------------
         N            1.665844432259     0.624106376549    -0.458451486351    14.003074004430
         C            0.342110432259     0.163723376549    -0.195749486351    12.000000000000
         C           -0.731594567741     1.071246376549    -0.073319486351    12.000000000000
         C            0.119612432259    -1.225379623451    -0.104251486351    12.000000000000
         C           -2.018904567741     0.573346376549     0.152545513649    12.000000000000
         C           -1.178593567741    -1.683767623451     0.145115513649    12.000000000000
         C           -2.246030567741    -0.796873623451     0.273002513649    12.000000000000
         C           -0.501680567741     2.557772376549    -0.188355486351    12.000000000000
         C            1.246240432259    -2.204636623451    -0.298384486351    12.000000000000
         C            2.541308432259     0.628327376549     0.720701513649    12.000000000000
         H           -2.849557567741     1.271201376549     0.246016513649     1.007825032230
         H           -1.354767567741    -2.756267623451     0.213915513649     1.007825032230
         H            1.630645432259     1.565264376549    -0.843120486351     1.007825032230
         H           -3.282973267741    -1.182421223451     0.258918113649     1.007825032230
         H            0.274127432259     2.903729376549     0.503302513649     1.007825032230
         H           -0.199014567741     2.851706376549    -1.200881486351     1.007825032230
         H           -1.420532567741     3.101970376549     0.044799513649     1.007825032230
         H            1.980581432259    -1.798491623451    -0.998535486351     1.007825032230
         H            1.765468432259    -2.426645623451     0.641007513649     1.007825032230
         H            0.862769432259    -3.151146623451    -0.690107486351     1.007825032230
         H            2.132553432259     1.198543376549     1.568049513649     1.007825032230
         H            3.506614432259     1.056999376549     0.438131513649     1.007825032230
         H            2.712468432259    -0.396462623451     1.052919513649     1.007825032230

  Basis Set: AUG-CC-PVTZ
    Blend: AUG-CC-PVTZ
  Basis Set: (AUG-CC-PVTZ AUX)
    Blend: AUG-CC-PVTZ-JKFIT
	 Reference Energy          =    -402.9591457787479953 [Eh]
	 Singles Energy            =      -0.0000000000000000 [Eh]
	 Same-Spin Energy          =      -0.4481273810170726 [Eh]
	 Opposite-Spin Energy      =      -1.4662571016598769 [Eh]
	 Correlation Energy        =      -1.9143844826769496 [Eh]
	 Total Energy              =    -404.8735302614249463 [Eh]

	 ================> DF-SCS-MP2 Energies <==================
	-----------------------------------------------------------
	 SCS Same-Spin Scale       =       0.3333333333333333 [-]
	 SCS Opposite-Spin Scale   =       1.2000000000000000 [-]
	 SCS Same-Spin Energy      =      -0.1493757936723575 [Eh]
	 SCS Opposite-Spin Energy  =      -1.7595085219918523 [Eh]
	 SCS Correlation Energy    =      -1.9088843156642099 [Eh]
	 SCS Total Energy          =    -404.8680300944122337 [Eh]
	-----------------------------------------------------------

  Dipole Moment: [D]
     X:     0.5589      Y:     1.0789      Z:     0.3896     Total:     1.2760

*** Psi4 exiting successfully. Buy a developer a beer!
