                               Psi4 1.3.2 release

  ==> Input File <==

--------------------------------------------------------------------------
#psi4
#
memory 32 gb

molecule  {
0 1
  N        1.6268380     0.6089620    -0.4693990
  C        0.3031040     0.1485790    -0.2066970
  C       -0.7706010     1.0561020    -0.0842670
  C        0.0973336    -1.2356504    -0.0167285
  C       -2.0579110     0.5582020     0.1415980
  C       -1.2176000    -1.6989120     0.1341680
  C       -2.2850370    -0.8120180     0.2620550
  C       -0.5406870     2.5426280    -0.1993030
  C        1.2072340    -2.2197810    -0.3093320
  C        2.5023020     0.6131830     0.7097540
  H       -2.8885640     1.2560570     0.2350690
  H       -1.3937740    -2.7714120     0.2029680
  H        1.5916390     1.5501200    -0.8540680
  H       -3.2895990    -1.1861590     0.4450020
  H        0.2351210     2.8885850     0.4923550
  H       -0.2380210     2.8365620    -1.2118290
  H       -1.4595390     3.0868260     0.0338520
  H        1.9415750    -1.8136360    -1.0094830
  H        1.7264620    -2.4417900     0.6300600
  H        0.8237630    -3.1662910    -0.7010550
  H        2.0935470     1.1833990     1.5571020
  H        3.4676080     1.0418550     0.4271840
  H        2.6734620    -0.4116070     1.0419720
units angstrom
no_reorient  #important for SAPT in psi4, default
symmetry c1  #important for SAPT in psi4, default
}

set PROPERTIES_ORIGIN ["COM"]
properties('MP2/aug-cc-pvtz', properties = ['dipole'])
--------------------------------------------------------------------------

    Molecular point group: c1
  Charge       = 0
  Multiplicity = 1
  Basis Set: AUG-CC-PVTZ
    Blend: AUG-CC-PVTZ
  Basis Set: (AUG-CC-PVTZ AUX)
    Blend: AUG-CC-PVTZ-JKFIT

    Orbital Energies [Eh]
    ---------------------

    Doubly Occupied:

       1A    -15.554504     2A    -11.259658     3A    -11.250044
       4A    -11.235397     5A    -11.232614     6A    -11.228277
       7A    -11.225655     8A    -11.224659     9A    -11.223161
      10A    -11.214485    11A     -1.227041    12A     -1.130503
      13A     -1.053688    14A     -1.011913    15A     -0.944976
      16A     -0.921818    17A     -0.892366    18A     -0.794442
      19A     -0.781210    20A     -0.692703    21A     -0.660481
      22A     -0.627829    23A     -0.603964    24A     -0.591996
      25A     -0.579244    26A     -0.568913    27A     -0.563995
      28A     -0.555798    29A     -0.553061    30A     -0.531111
      31A     -0.521065    32A     -0.483072    33A     -0.476764
      34A     -0.471463    35A     -0.403897    36A     -0.316904
      37A     -0.301269

  @DF-RHF Final Energy:  -402.95817753337991

   => Energetics <=

    Nuclear Repulsion Energy =            521.2747553866968246
    One-Electron Energy =               -1578.6459891276706458
    Two-Electron Energy =                 654.4130562075938542
    Total Energy =                       -402.9581775333799669
  Basis Set: (AUG-CC-PVTZ AUX)
    Blend: AUG-CC-PVTZ-RI
    Molecular point group: c1

    Geometry (in Angstrom), charge = 0, multiplicity = 1:

       Center              X                  Y                   Z               Mass
    ------------   -----------------  -----------------  -----------------  -----------------
         N            1.664117141437     0.623588415253    -0.468667401574    14.003074004430
         C            0.340383141437     0.163205415253    -0.205965401574    12.000000000000
         C           -0.733321858563     1.070728415253    -0.083535401574    12.000000000000
         C            0.134612741437    -1.221023984747    -0.015996901574    12.000000000000
         C           -2.020631858563     0.572828415253     0.142329598426    12.000000000000
         C           -1.180320858563    -1.684285584747     0.134899598426    12.000000000000
         C           -2.247757858563    -0.797391584747     0.262786598426    12.000000000000
         C           -0.503407858563     2.557254415253    -0.198571401574    12.000000000000
         C            1.244513141437    -2.205154584747    -0.308600401574    12.000000000000
         C            2.539581141437     0.627809415253     0.710485598426    12.000000000000
         H           -2.851284858563     1.270683415253     0.235800598426     1.007825032230
         H           -1.356494858563    -2.756785584747     0.203699598426     1.007825032230
         H            1.628918141437     1.564746415253    -0.853336401574     1.007825032230
         H           -3.252319858563    -1.171532584747     0.445733598426     1.007825032230
         H            0.272400141437     2.903211415253     0.493086598426     1.007825032230
         H           -0.200741858563     2.851188415253    -1.211097401574     1.007825032230
         H           -1.422259858563     3.101452415253     0.034583598426     1.007825032230
         H            1.978854141437    -1.799009584747    -1.008751401574     1.007825032230
         H            1.763741141437    -2.427163584747     0.630791598426     1.007825032230
         H            0.861042141437    -3.151664584747    -0.700323401574     1.007825032230
         H            2.130826141437     1.198025415253     1.557833598426     1.007825032230
         H            3.504887141437     1.056481415253     0.427915598426     1.007825032230
         H            2.710741141437    -0.396980584747     1.042703598426     1.007825032230

  Basis Set: AUG-CC-PVTZ
    Blend: AUG-CC-PVTZ
  Basis Set: (AUG-CC-PVTZ AUX)
    Blend: AUG-CC-PVTZ-JKFIT
	 Reference Energy          =    -402.9581775333799101 [Eh]
	 Singles Energy            =      -0.0000000000000000 [Eh]
	 Same-Spin Energy          =      -0.4482180184299849 [Eh]
	 Opposite-Spin Energy      =      -1.4664757113331852 [Eh]
	 Correlation Energy        =      -1.9146937297631701 [Eh]
	 Total Energy              =    -404.8728712631430540 [Eh]

	 ================> DF-SCS-MP2 Energies <==================
	-----------------------------------------------------------
	 SCS Same-Spin Scale       =       0.3333333333333333 [-]
	 SCS Opposite-Spin Scale   =       1.2000000000000000 [-]
	 SCS Same-Spin Energy      =      -0.1494060061433283 [Eh]
	 SCS Opposite-Spin Energy  =      -1.7597708535998222 [Eh]
	 SCS Correlation Energy    =      -1.9091768597431504 [Eh]
	 SCS Total Energy          =    -404.8673543931230370 [Eh]
	-----------------------------------------------------------

  Dipole Moment: [D]
     X:     0.5494      Y:     1.0883      Z:     0.4747     Total:     1.3083

*** Psi4 exiting successfully. Buy a developer a beer!
