                               Psi4 1.3.2 release

  ==> Input File <==

--------------------------------------------------------------------------
#psi4
#
memory 32 gb

molecule  {
0 1
  N        1.6268380     0.6089620    -0.4693990
  C        0.3031040     0.1485790    -0.2066970
  C       -0.7706010     1.0561020    -0.0842670
  C        0.0889698    -1.2380872    -0.0659638
  C       -2.0579110     0.5582020     0.1415980
  C       -1.2176000    -1.6989120     0.1341680
  C       -2.2850370    -0.8120180     0.2620550
  C       -0.5406870     2.5426280    -0.1993030
  C        1.2072340    -2.2197810    -0.3093320
  C        2.5023020     0.6131830     0.7097540
  H       -2.8885640     1.2560570     0.2350690
  H       -1.3937740    -2.7714120     0.2029680
  H        1.5916390     1.5501200    -0.8540680
  H       -3.2895990    -1.1861590     0.4450020
  H        0.2351210     2.8885850     0.4923550
  H       -0.2380210     2.8365620    -1.2118290
  H       -1.4595390     3.0868260     0.0338520
  H        1.9415750    -1.8136360    -1.0094830
  H        1.7264620    -2.4417900     0.6300600
  H        0.8237630    -3.1662910    -0.7010550
  H        2.0935470     1.1833990     1.5571020
  H        3.4676080     1.0418550     0.4271840
  H        2.6734620    -0.4116070     1.0419720
units angstrom
no_reorient  #important for SAPT in psi4, default
symmetry c1  #important for SAPT in psi4, default
}

set PROPERTIES_ORIGIN ["COM"]
properties('MP2/aug-cc-pvtz', properties = ['dipole'])
--------------------------------------------------------------------------

    Molecular point group: c1
  Charge       = 0
  Multiplicity = 1
  Basis Set: AUG-CC-PVTZ
    Blend: AUG-CC-PVTZ
  Basis Set: (AUG-CC-PVTZ AUX)
    Blend: AUG-CC-PVTZ-JKFIT

    Orbital Energies [Eh]
    ---------------------

    Doubly Occupied:

       1A    -15.554109     2A    -11.258717     3A    -11.249818
       4A    -11.235665     5A    -11.232165     6A    -11.228320
       7A    -11.225395     8A    -11.224225     9A    -11.223114
      10A    -11.214313    11A     -1.226788    12A     -1.130726
      13A     -1.054158    14A     -1.012206    15A     -0.945235
      16A     -0.922032    17A     -0.892261    18A     -0.794684
      19A     -0.781247    20A     -0.692617    21A     -0.660631
      22A     -0.628709    23A     -0.603732    24A     -0.591784
      25A     -0.578864    26A     -0.568929    27A     -0.564696
      28A     -0.556543    29A     -0.552727    30A     -0.530932
      31A     -0.521087    32A     -0.484057    33A     -0.477036
      34A     -0.471590    35A     -0.403217    36A     -0.317019
      37A     -0.302028

  @DF-RHF Final Energy:  -402.96090409769397

   => Energetics <=

    Nuclear Repulsion Energy =            521.3268681219713017
    One-Electron Energy =               -1578.7527935444766172
    Two-Electron Energy =                 654.4650213248113459
    Total Energy =                       -402.9609040976939696
  Basis Set: (AUG-CC-PVTZ AUX)
    Blend: AUG-CC-PVTZ-RI
    Molecular point group: c1

    Geometry (in Angstrom), charge = 0, multiplicity = 1:

       Center              X                  Y                   Z               Mass
    ------------   -----------------  -----------------  -----------------  -----------------
         N            1.664860013640     0.623804851680    -0.464294325247    14.003074004430
         C            0.341126013640     0.163421851680    -0.201592325247    12.000000000000
         C           -0.732578986360     1.070944851680    -0.079162325247    12.000000000000
         C            0.126991813640    -1.223244348320    -0.060859125247    12.000000000000
         C           -2.019888986360     0.573044851680     0.146702674753    12.000000000000
         C           -1.179577986360    -1.684069148320     0.139272674753    12.000000000000
         C           -2.247014986360    -0.797175148320     0.267159674753    12.000000000000
         C           -0.502664986360     2.557470851680    -0.194198325247    12.000000000000
         C            1.245256013640    -2.204938148320    -0.304227325247    12.000000000000
         C            2.540324013640     0.628025851680     0.714858674753    12.000000000000
         H           -2.850541986360     1.270899851680     0.240173674753     1.007825032230
         H           -1.355751986360    -2.756569148320     0.208072674753     1.007825032230
         H            1.629661013640     1.564962851680    -0.848963325247     1.007825032230
         H           -3.251576986360    -1.171316148320     0.450106674753     1.007825032230
         H            0.273143013640     2.903427851680     0.497459674753     1.007825032230
         H           -0.199998986360     2.851404851680    -1.206724325247     1.007825032230
         H           -1.421516986360     3.101668851680     0.038956674753     1.007825032230
         H            1.979597013640    -1.798793148320    -1.004378325247     1.007825032230
         H            1.764484013640    -2.426947148320     0.635164674753     1.007825032230
         H            0.861785013640    -3.151448148320    -0.695950325247     1.007825032230
         H            2.131569013640     1.198241851680     1.562206674753     1.007825032230
         H            3.505630013640     1.056697851680     0.432288674753     1.007825032230
         H            2.711484013640    -0.396764148320     1.047076674753     1.007825032230

  Basis Set: AUG-CC-PVTZ
    Blend: AUG-CC-PVTZ
  Basis Set: (AUG-CC-PVTZ AUX)
    Blend: AUG-CC-PVTZ-JKFIT
	 Reference Energy          =    -402.9609040976939696 [Eh]
	 Singles Energy            =      -0.0000000000000000 [Eh]
	 Same-Spin Energy          =      -0.4480631577243671 [Eh]
	 Opposite-Spin Energy      =      -1.4660811231907287 [Eh]
	 Correlation Energy        =      -1.9141442809150959 [Eh]
	 Total Energy              =    -404.8750483786090513 [Eh]

	 ================> DF-SCS-MP2 Energies <==================
	-----------------------------------------------------------
	 SCS Same-Spin Scale       =       0.3333333333333333 [-]
	 SCS Opposite-Spin Scale   =       1.2000000000000000 [-]
	 SCS Same-Spin Energy      =      -0.1493543859081224 [Eh]
	 SCS Opposite-Spin Energy  =      -1.7592973478288745 [Eh]
	 SCS Correlation Energy    =      -1.9086517337369968 [Eh]
	 SCS Total Energy          =    -404.8695558314309437 [Eh]
	-----------------------------------------------------------

  Dipole Moment: [D]
     X:     0.5476      Y:     1.0757      Z:     0.4974     Total:     1.3055

*** Psi4 exiting successfully. Buy a developer a beer!
