                               Psi4 1.3.2 release

  ==> Input File <==

--------------------------------------------------------------------------
#psi4
#
memory 32 gb

molecule  {
0 1
  N        1.6268380     0.6089620    -0.4693990
  C        0.3031040     0.1485790    -0.2066970
  C       -0.7706010     1.0561020    -0.0842670
  C        0.0806060    -1.2405240    -0.1151990
  C       -2.0579110     0.5582020     0.1415980
  C       -1.2176000    -1.6989120     0.1341680
  C       -2.2850370    -0.8120180     0.2620550
  C       -0.5561338     2.5374884    -0.2979690
  C        1.2072340    -2.2197810    -0.3093320
  C        2.5023020     0.6131830     0.7097540
  H       -2.8885640     1.2560570     0.2350690
  H       -1.3937740    -2.7714120     0.2029680
  H        1.5916390     1.5501200    -0.8540680
  H       -3.2895990    -1.1861590     0.4450020
  H        0.2351210     2.8885850     0.4923550
  H       -0.2380210     2.8365620    -1.2118290
  H       -1.4595390     3.0868260     0.0338520
  H        1.9415750    -1.8136360    -1.0094830
  H        1.7264620    -2.4417900     0.6300600
  H        0.8237630    -3.1662910    -0.7010550
  H        2.0935470     1.1833990     1.5571020
  H        3.4676080     1.0418550     0.4271840
  H        2.6734620    -0.4116070     1.0419720
units angstrom
no_reorient  #important for SAPT in psi4, default
symmetry c1  #important for SAPT in psi4, default
}

set PROPERTIES_ORIGIN ["COM"]
properties('MP2/aug-cc-pvtz', properties = ['dipole'])
--------------------------------------------------------------------------

    Molecular point group: c1
  Charge       = 0
  Multiplicity = 1
  Basis Set: AUG-CC-PVTZ
    Blend: AUG-CC-PVTZ
  Basis Set: (AUG-CC-PVTZ AUX)
    Blend: AUG-CC-PVTZ-JKFIT

    Orbital Energies [Eh]
    ---------------------

    Doubly Occupied:

       1A    -15.553690     2A    -11.258473     3A    -11.249333
       4A    -11.236599     5A    -11.232216     6A    -11.229550
       7A    -11.225583     8A    -11.224407     9A    -11.223248
      10A    -11.214203    11A     -1.226460    12A     -1.130938
      13A     -1.054419    14A     -1.012574    15A     -0.945611
      16A     -0.922935    17A     -0.892130    18A     -0.795376
      19A     -0.781388    20A     -0.693481    21A     -0.660410
      22A     -0.630043    23A     -0.609139    24A     -0.595500
      25A     -0.575985    26A     -0.574202    27A     -0.568683
      28A     -0.551706    29A     -0.548556    30A     -0.530195
      31A     -0.513603    32A     -0.484252    33A     -0.479878
      34A     -0.466988    35A     -0.402370    36A     -0.317322
      37A     -0.302947

  @DF-RHF Final Energy:  -402.95114305171802

   => Energetics <=

    Nuclear Repulsion Energy =            521.2104192388787851
    One-Electron Energy =               -1578.4943356076501004
    Two-Electron Energy =                 654.3327733170532383
    Total Energy =                       -402.9511430517180770
  Basis Set: (AUG-CC-PVTZ AUX)
    Blend: AUG-CC-PVTZ-RI
    Molecular point group: c1

    Geometry (in Angstrom), charge = 0, multiplicity = 1:

       Center              X                  Y                   Z               Mass
    ------------   -----------------  -----------------  -----------------  -----------------
         N            1.666974869672     0.624477787063    -0.451157749732    14.003074004430
         C            0.343240869672     0.164094787063    -0.188455749732    12.000000000000
         C           -0.730464130328     1.071617787063    -0.066025749732    12.000000000000
         C            0.120742869672    -1.225008212937    -0.096957749732    12.000000000000
         C           -2.017774130328     0.573717787063     0.159839250268    12.000000000000
         C           -1.177463130328    -1.683396212937     0.152409250268    12.000000000000
         C           -2.244900130328    -0.796502212937     0.280296250268    12.000000000000
         C           -0.515996930328     2.553004187063    -0.279727749732    12.000000000000
         C            1.247370869672    -2.204265212937    -0.291090749732    12.000000000000
         C            2.542438869672     0.628698787063     0.727995250268    12.000000000000
         H           -2.848427130328     1.271572787063     0.253310250268     1.007825032230
         H           -1.353637130328    -2.755896212937     0.221209250268     1.007825032230
         H            1.631775869672     1.565635787063    -0.835826749732     1.007825032230
         H           -3.249462130328    -1.170643212937     0.463243250268     1.007825032230
         H            0.275257869672     2.904100787063     0.510596250268     1.007825032230
         H           -0.197884130328     2.852077787063    -1.193587749732     1.007825032230
         H           -1.419402130328     3.102341787063     0.052093250268     1.007825032230
         H            1.981711869672    -1.798120212937    -0.991241749732     1.007825032230
         H            1.766598869672    -2.426274212937     0.648301250268     1.007825032230
         H            0.863899869672    -3.150775212937    -0.682813749732     1.007825032230
         H            2.133683869672     1.198914787063     1.575343250268     1.007825032230
         H            3.507744869672     1.057370787063     0.445425250268     1.007825032230
         H            2.713598869672    -0.396091212937     1.060213250268     1.007825032230

  Basis Set: AUG-CC-PVTZ
    Blend: AUG-CC-PVTZ
  Basis Set: (AUG-CC-PVTZ AUX)
    Blend: AUG-CC-PVTZ-JKFIT
	 Reference Energy          =    -402.9511430517180202 [Eh]
	 Singles Energy            =      -0.0000000000000000 [Eh]
	 Same-Spin Energy          =      -0.4481567334379581 [Eh]
	 Opposite-Spin Energy      =      -1.4664117385597208 [Eh]
	 Correlation Energy        =      -1.9145684719976790 [Eh]
	 Total Energy              =    -404.8657115237156745 [Eh]

	 ================> DF-SCS-MP2 Energies <==================
	-----------------------------------------------------------
	 SCS Same-Spin Scale       =       0.3333333333333333 [-]
	 SCS Opposite-Spin Scale   =       1.2000000000000000 [-]
	 SCS Same-Spin Energy      =      -0.1493855778126527 [Eh]
	 SCS Opposite-Spin Energy  =      -1.7596940862716650 [Eh]
	 SCS Correlation Energy    =      -1.9090796640843177 [Eh]
	 SCS Total Energy          =    -404.8602227158023652 [Eh]
	-----------------------------------------------------------

  Dipole Moment: [D]
     X:     0.5249      Y:     1.0467      Z:     0.4699     Total:     1.2617

*** Psi4 exiting successfully. Buy a developer a beer!
