                               Psi4 1.3.2 release

  ==> Input File <==

--------------------------------------------------------------------------
#psi4
#
memory 32 gb

molecule  {
0 1
  N        1.6268380     0.6089620    -0.4693990
  C        0.3031040     0.1485790    -0.2066970
  C       -0.7706010     1.0561020    -0.0842670
  C        0.0806060    -1.2405240    -0.1151990
  C       -2.0579110     0.5582020     0.1415980
  C       -1.2176000    -1.6989120     0.1341680
  C       -2.2850370    -0.8120180     0.2620550
  C       -0.5406870     2.5426280    -0.1993030
  C        1.2072340    -2.2197810    -0.3093320
  C        2.5023020     0.6131830     0.7097540
  H       -2.9116909     1.2473773     0.0871170
  H       -1.3937740    -2.7714120     0.2029680
  H        1.5916390     1.5501200    -0.8540680
  H       -3.2895990    -1.1861590     0.4450020
  H        0.2351210     2.8885850     0.4923550
  H       -0.2380210     2.8365620    -1.2118290
  H       -1.4595390     3.0868260     0.0338520
  H        1.9415750    -1.8136360    -1.0094830
  H        1.7264620    -2.4417900     0.6300600
  H        0.8237630    -3.1662910    -0.7010550
  H        2.0935470     1.1833990     1.5571020
  H        3.4676080     1.0418550     0.4271840
  H        2.6734620    -0.4116070     1.0419720
units angstrom
no_reorient  #important for SAPT in psi4, default
symmetry c1  #important for SAPT in psi4, default
}

set PROPERTIES_ORIGIN ["COM"]
properties('MP2/aug-cc-pvtz', properties = ['dipole'])
--------------------------------------------------------------------------

    Molecular point group: c1
  Charge       = 0
  Multiplicity = 1
  Basis Set: AUG-CC-PVTZ
    Blend: AUG-CC-PVTZ
  Basis Set: (AUG-CC-PVTZ AUX)
    Blend: AUG-CC-PVTZ-JKFIT

    Orbital Energies [Eh]
    ---------------------

    Doubly Occupied:

       1A    -15.553778     2A    -11.258250     3A    -11.249622
       4A    -11.235938     5A    -11.232327     6A    -11.228289
       7A    -11.226079     8A    -11.224603     9A    -11.223192
      10A    -11.214262    11A     -1.226565    12A     -1.130876
      13A     -1.054377    14A     -1.012456    15A     -0.945366
      16A     -0.921929    17A     -0.892071    18A     -0.794717
      19A     -0.780706    20A     -0.692222    21A     -0.660205
      22A     -0.629648    23A     -0.604120    24A     -0.591288
      25A     -0.577653    26A     -0.568570    27A     -0.565528
      28A     -0.556581    29A     -0.552030    30A     -0.530753
      31A     -0.521109    32A     -0.484683    33A     -0.477020
      34A     -0.471927    35A     -0.401290    36A     -0.316961
      37A     -0.303169

  @DF-RHF Final Energy:  -402.96037394336616

   => Energetics <=

    Nuclear Repulsion Energy =            521.2693987732800451
    One-Electron Energy =               -1578.6392301484158907
    Two-Electron Energy =                 654.4094574317696242
    Total Energy =                       -402.9603739433662213
  Basis Set: (AUG-CC-PVTZ AUX)
    Blend: AUG-CC-PVTZ-RI
    Molecular point group: c1

    Geometry (in Angstrom), charge = 0, multiplicity = 1:

       Center              X                  Y                   Z               Mass
    ------------   -----------------  -----------------  -----------------  -----------------
         N            1.665775402799     0.624086035021    -0.458817598052    14.003074004430
         C            0.342041402799     0.163703035021    -0.196115598052    12.000000000000
         C           -0.731663597201     1.071226035021    -0.073685598052    12.000000000000
         C            0.119543402799    -1.225399964979    -0.104617598052    12.000000000000
         C           -2.018973597201     0.573326035021     0.152179401948    12.000000000000
         C           -1.178662597201    -1.683787964979     0.144749401948    12.000000000000
         C           -2.246099597201    -0.796893964979     0.272636401948    12.000000000000
         C           -0.501749597201     2.557752035021    -0.188721598052    12.000000000000
         C            1.246171402799    -2.204656964979    -0.298750598052    12.000000000000
         C            2.541239402799     0.628307035021     0.720335401948    12.000000000000
         H           -2.872753497201     1.262501335021     0.097698401948     1.007825032230
         H           -1.354836597201    -2.756287964979     0.213549401948     1.007825032230
         H            1.630576402799     1.565244035021    -0.843486598052     1.007825032230
         H           -3.250661597201    -1.171034964979     0.455583401948     1.007825032230
         H            0.274058402799     2.903709035021     0.502936401948     1.007825032230
         H           -0.199083597201     2.851686035021    -1.201247598052     1.007825032230
         H           -1.420601597201     3.101950035021     0.044433401948     1.007825032230
         H            1.980512402799    -1.798511964979    -0.998901598052     1.007825032230
         H            1.765399402799    -2.426665964979     0.640641401948     1.007825032230
         H            0.862700402799    -3.151166964979    -0.690473598052     1.007825032230
         H            2.132484402799     1.198523035021     1.567683401948     1.007825032230
         H            3.506545402799     1.056979035021     0.437765401948     1.007825032230
         H            2.712399402799    -0.396482964979     1.052553401948     1.007825032230

  Basis Set: AUG-CC-PVTZ
    Blend: AUG-CC-PVTZ
  Basis Set: (AUG-CC-PVTZ AUX)
    Blend: AUG-CC-PVTZ-JKFIT
	 Reference Energy          =    -402.9603739433661644 [Eh]
	 Singles Energy            =      -0.0000000000000000 [Eh]
	 Same-Spin Energy          =      -0.4480720840109137 [Eh]
	 Opposite-Spin Energy      =      -1.4660710962653516 [Eh]
	 Correlation Energy        =      -1.9141431802762652 [Eh]
	 Total Energy              =    -404.8745171236424198 [Eh]

	 ================> DF-SCS-MP2 Energies <==================
	-----------------------------------------------------------
	 SCS Same-Spin Scale       =       0.3333333333333333 [-]
	 SCS Opposite-Spin Scale   =       1.2000000000000000 [-]
	 SCS Same-Spin Energy      =      -0.1493573613369712 [Eh]
	 SCS Opposite-Spin Energy  =      -1.7592853155184218 [Eh]
	 SCS Correlation Energy    =      -1.9086426768553930 [Eh]
	 SCS Total Energy          =    -404.8690166202215437 [Eh]
	-----------------------------------------------------------

  Dipole Moment: [D]
     X:     0.5369      Y:     1.0495      Z:     0.4327     Total:     1.2558

*** Psi4 exiting successfully. Buy a developer a beer!
