                               Psi4 1.3.2 release

  ==> Input File <==

--------------------------------------------------------------------------
#psi4
#
memory 32 gb

molecule  {
0 1
  N        1.6268380     0.6089620    -0.4693990
  C        0.3031040     0.1485790    -0.2066970
  C       -0.7706010     1.0561020    -0.0842670
  C        0.0806060    -1.2405240    -0.1151990
  C       -2.0579110     0.5582020     0.1415980
  C       -1.2176000    -1.6989120     0.1341680
  C       -2.2850370    -0.8120180     0.2620550
  C       -0.5406870     2.5426280    -0.1993030
  C        1.2072340    -2.2197810    -0.3093320
  C        2.5023020     0.6131830     0.7097540
  H       -2.9271089     1.2415908    -0.0115177
  H       -1.3937740    -2.7714120     0.2029680
  H        1.5916390     1.5501200    -0.8540680
  H       -3.2895990    -1.1861590     0.4450020
  H        0.2351210     2.8885850     0.4923550
  H       -0.2380210     2.8365620    -1.2118290
  H       -1.4595390     3.0868260     0.0338520
  H        1.9415750    -1.8136360    -1.0094830
  H        1.7264620    -2.4417900     0.6300600
  H        0.8237630    -3.1662910    -0.7010550
  H        2.0935470     1.1833990     1.5571020
  H        3.4676080     1.0418550     0.4271840
  H        2.6734620    -0.4116070     1.0419720
units angstrom
no_reorient  #important for SAPT in psi4, default
symmetry c1  #important for SAPT in psi4, default
}

set PROPERTIES_ORIGIN ["COM"]
properties('MP2/aug-cc-pvtz', properties = ['dipole'])
--------------------------------------------------------------------------

    Molecular point group: c1
  Charge       = 0
  Multiplicity = 1
  Basis Set: AUG-CC-PVTZ
    Blend: AUG-CC-PVTZ
  Basis Set: (AUG-CC-PVTZ AUX)
    Blend: AUG-CC-PVTZ-JKFIT

    Orbital Energies [Eh]
    ---------------------

    Doubly Occupied:

       1A    -15.553833     2A    -11.258361     3A    -11.249670
       4A    -11.236196     5A    -11.232789     6A    -11.228206
       7A    -11.227484     8A    -11.225100     9A    -11.223427
      10A    -11.214495    11A     -1.226658    12A     -1.130963
      13A     -1.054372    14A     -1.012537    15A     -0.945424
      16A     -0.921571    17A     -0.892126    18A     -0.794859
      19A     -0.779767    20A     -0.691749    21A     -0.659290
      22A     -0.629831    23A     -0.604401    24A     -0.591230
      25A     -0.576770    26A     -0.568387    27A     -0.565708
      28A     -0.556481    29A     -0.550826    30A     -0.530857
      31A     -0.521197    32A     -0.484683    33A     -0.477308
      34A     -0.471500    35A     -0.400497    36A     -0.316834
      37A     -0.303519

  @DF-RHF Final Energy:  -402.95768083653411

   => Energetics <=

    Nuclear Repulsion Energy =            521.1965002205701012
    One-Electron Energy =               -1578.4905461654329883
    Two-Electron Energy =                 654.3363651083286641
    Total Energy =                       -402.9576808365341094
  Basis Set: (AUG-CC-PVTZ AUX)
    Blend: AUG-CC-PVTZ-RI
    Molecular point group: c1

    Geometry (in Angstrom), charge = 0, multiplicity = 1:

       Center              X                  Y                   Z               Mass
    ------------   -----------------  -----------------  -----------------  -----------------
         N            1.665890414600     0.624129199879    -0.458081824637    14.003074004430
         C            0.342156414600     0.163746199879    -0.195379824637    12.000000000000
         C           -0.731548585400     1.071269199879    -0.072949824637    12.000000000000
         C            0.119658414600    -1.225356800121    -0.103881824637    12.000000000000
         C           -2.018858585400     0.573369199879     0.152915175363    12.000000000000
         C           -1.178547585400    -1.683744800121     0.145485175363    12.000000000000
         C           -2.245984585400    -0.796850800121     0.273372175363    12.000000000000
         C           -0.501634585400     2.557795199879    -0.187985824637    12.000000000000
         C            1.246286414600    -2.204613800121    -0.298014824637    12.000000000000
         C            2.541354414600     0.628350199879     0.721071175363    12.000000000000
         H           -2.888056485400     1.256757999879    -0.000200524637     1.007825032230
         H           -1.354721585400    -2.756244800121     0.214285175363     1.007825032230
         H            1.630691414600     1.565287199879    -0.842750824637     1.007825032230
         H           -3.250546585400    -1.170991800121     0.456319175363     1.007825032230
         H            0.274173414600     2.903752199879     0.503672175363     1.007825032230
         H           -0.198968585400     2.851729199879    -1.200511824637     1.007825032230
         H           -1.420486585400     3.101993199879     0.045169175363     1.007825032230
         H            1.980627414600    -1.798468800121    -0.998165824637     1.007825032230
         H            1.765514414600    -2.426622800121     0.641377175363     1.007825032230
         H            0.862815414600    -3.151123800121    -0.689737824637     1.007825032230
         H            2.132599414600     1.198566199879     1.568419175363     1.007825032230
         H            3.506660414600     1.057022199879     0.438501175363     1.007825032230
         H            2.712514414600    -0.396439800121     1.053289175363     1.007825032230

  Basis Set: AUG-CC-PVTZ
    Blend: AUG-CC-PVTZ
  Basis Set: (AUG-CC-PVTZ AUX)
    Blend: AUG-CC-PVTZ-JKFIT
	 Reference Energy          =    -402.9576808365341094 [Eh]
	 Singles Energy            =      -0.0000000000000000 [Eh]
	 Same-Spin Energy          =      -0.4482165862556098 [Eh]
	 Opposite-Spin Energy      =      -1.4663868819589614 [Eh]
	 Correlation Energy        =      -1.9146034682145712 [Eh]
	 Total Energy              =    -404.8722843047486890 [Eh]

	 ================> DF-SCS-MP2 Energies <==================
	-----------------------------------------------------------
	 SCS Same-Spin Scale       =       0.3333333333333333 [-]
	 SCS Opposite-Spin Scale   =       1.2000000000000000 [-]
	 SCS Same-Spin Energy      =      -0.1494055287518699 [Eh]
	 SCS Opposite-Spin Energy  =      -1.7596642583507536 [Eh]
	 SCS Correlation Energy    =      -1.9090697871026234 [Eh]
	 SCS Total Energy          =    -404.8667506236367331 [Eh]
	-----------------------------------------------------------

  Dipole Moment: [D]
     X:     0.5545      Y:     1.0199      Z:     0.3745     Total:     1.2198

*** Psi4 exiting successfully. Buy a developer a beer!
