                               Psi4 1.4a3.dev225

  ==> Input File <==

--------------------------------------------------------------------------
#psi4
#
memory 32 gb

molecule  {
-1 1
  O        1.1351350    -0.6918790     0.0330860
  O        0.1531200     1.3913640    -0.1728610
  O        2.4463690    -0.1041220     0.2385550
  C       -1.1465760    -0.6228910    -0.4018730
  C       -2.2980290    -0.0223870     0.3984860
  C        0.1501230     0.1562480    -0.1588130
  H       -1.4206374    -0.5502042    -1.6686489
  H       -0.9935530    -1.6784970    -0.1594820
  H       -3.2561770    -0.4998690     0.1615910
  H       -2.3644390     1.0456200     0.1820980
  H       -2.1175180    -0.1345730     1.4722280
units angstrom
no_reorient  #important for SAPT in psi4, default
symmetry c1  #important for SAPT in psi4, default
}

set PROPERTIES_ORIGIN ["COM"]
properties('MP2/aug-cc-pvtz', properties = ['dipole'])
--------------------------------------------------------------------------

    Molecular point group: c1
  Charge       = -1
  Multiplicity = 1
  Basis Set: AUG-CC-PVTZ
    Blend: AUG-CC-PVTZ
  Basis Set: (AUG-CC-PVTZ AUX)
    Blend: AUG-CC-PVTZ-JKFIT

    Orbital Energies [Eh]
    ---------------------

    Doubly Occupied:

       1A    -20.414177     2A    -20.348729     3A    -20.302442
       4A    -11.189762     5A    -11.116698     6A    -11.097986
       7A     -1.258622     8A     -1.160936     9A     -0.939130
      10A     -0.889995    11A     -0.725840    12A     -0.565573
      13A     -0.508006    14A     -0.478640    15A     -0.455594
      16A     -0.437236    17A     -0.413473    18A     -0.376762
      19A     -0.346558    20A     -0.310962    21A     -0.289918
      22A     -0.253549    23A     -0.192126    24A     -0.167240

  @DF-RHF Final Energy:  -341.12002127755602

   => Energetics <=

    Nuclear Repulsion Energy =            230.6378647645401259
    One-Electron Energy =                -935.0358637486996258
    Two-Electron Energy =                 363.2779777066034512
    Total Energy =                       -341.1200212775560203
  Basis Set: (AUG-CC-PVTZ AUX)
    Blend: AUG-CC-PVTZ-RI
    Molecular point group: c1

    Geometry (in Angstrom), charge = -1, multiplicity = 1:

       Center              X                  Y                   Z               Mass
    ------------   -----------------  -----------------  -----------------  -----------------
         O            1.023148838757    -0.712353003153     0.037340272615    15.994914619570
         O            0.041133838757     1.370889996847    -0.168606727385    15.994914619570
         O            2.334382838757    -0.124596003153     0.242809272615    15.994914619570
         C           -1.258562161243    -0.643365003153    -0.397618727385    12.000000000000
         C           -2.410015161243    -0.042861003153     0.402740272615    12.000000000000
         C            0.038136838757     0.135773996847    -0.154558727385    12.000000000000
         H           -1.532623561243    -0.570678203153    -1.664394627385     1.007825032230
         H           -1.105539161243    -1.698971003153    -0.155227727385     1.007825032230
         H           -3.368163161243    -0.520343003153     0.165845272615     1.007825032230
         H           -2.476425161243     1.025145996847     0.186352272615     1.007825032230
         H           -2.229504161243    -0.155047003153     1.476482272615     1.007825032230

  Basis Set: AUG-CC-PVTZ
    Blend: AUG-CC-PVTZ
  Basis Set: (AUG-CC-PVTZ AUX)
    Blend: AUG-CC-PVTZ-JKFIT
	 Reference Energy          =    -341.1200212775560203 [Eh]
	 Singles Energy            =      -0.0000000000000000 [Eh]
	 Same-Spin Energy          =      -0.3294559782772684 [Eh]
	 Opposite-Spin Energy      =      -1.0199624108879641 [Eh]
	 Correlation Energy        =      -1.3494183891652325 [Eh]
	 Total Energy              =    -342.4694396667212573 [Eh]

	 ================> DF-SCS-MP2 Energies <==================
	-----------------------------------------------------------
	 SCS Same-Spin Scale       =       0.3333333333333333 [-]
	 SCS Opposite-Spin Scale   =       1.2000000000000000 [-]
	 SCS Same-Spin Energy      =      -0.1098186594257561 [Eh]
	 SCS Opposite-Spin Energy  =      -1.2239548930655568 [Eh]
	 SCS Correlation Energy    =      -1.3337735524913130 [Eh]
	 SCS Total Energy          =    -342.4537948300473431 [Eh]
	-----------------------------------------------------------

  Dipole Moment: [D]
     X:    -7.7193      Y:    -1.7779      Z:    -0.5202     Total:     7.9384

*** Psi4 exiting successfully. Buy a developer a beer!
