                               Psi4 1.4a3.dev225

  ==> Input File <==

--------------------------------------------------------------------------
#psi4
#
memory 32 gb

molecule  {
-1 1
  O        1.1351350    -0.6918790     0.0330860
  O        0.1531200     1.3913640    -0.1728610
  O        2.4463690    -0.1041220     0.2385550
  C       -1.1465760    -0.6228910    -0.4018730
  C       -2.2980290    -0.0223870     0.3984860
  C        0.3193854     0.2579516    -0.1270856
  H       -1.3784130    -0.5614030    -1.4734780
  H       -0.9935530    -1.6784970    -0.1594820
  H       -3.2561770    -0.4998690     0.1615910
  H       -2.3644390     1.0456200     0.1820980
  H       -2.1175180    -0.1345730     1.4722280
units angstrom
no_reorient  #important for SAPT in psi4, default
symmetry c1  #important for SAPT in psi4, default
}

set PROPERTIES_ORIGIN ["COM"]
properties('MP2/aug-cc-pvtz', properties = ['dipole'])
--------------------------------------------------------------------------

    Molecular point group: c1
  Charge       = -1
  Multiplicity = 1
  Basis Set: AUG-CC-PVTZ
    Blend: AUG-CC-PVTZ
  Basis Set: (AUG-CC-PVTZ AUX)
    Blend: AUG-CC-PVTZ-JKFIT

    Orbital Energies [Eh]
    ---------------------

    Doubly Occupied:

       1A    -20.427220     2A    -20.367444     3A    -20.307052
       4A    -11.194107     5A    -11.080177     6A    -11.065442
       7A     -1.300450     8A     -1.231558     9A     -0.941826
      10A     -0.869745    11A     -0.693234    12A     -0.577069
      13A     -0.511384    14A     -0.488845    15A     -0.479278
      16A     -0.451841    17A     -0.413141    18A     -0.365346
      19A     -0.351427    20A     -0.328738    21A     -0.323617
      22A     -0.210395    23A     -0.196137    24A     -0.180434

  @DF-RHF Final Energy:  -341.10679164175696

   => Energetics <=

    Nuclear Repulsion Energy =            232.3588810979619552
    One-Electron Energy =                -938.2195333716189225
    Two-Electron Energy =                 364.7538606319000678
    Total Energy =                       -341.1067916417569563
  Basis Set: (AUG-CC-PVTZ AUX)
    Blend: AUG-CC-PVTZ-RI
    Molecular point group: c1

    Geometry (in Angstrom), charge = -1, multiplicity = 1:

       Center              X                  Y                   Z               Mass
    ------------   -----------------  -----------------  -----------------  -----------------
         O            0.999855045417    -0.725935391588     0.030854069252    15.994914619570
         O            0.017840045417     1.357307608412    -0.175092930748    15.994914619570
         O            2.311089045417    -0.138178391588     0.236323069252    15.994914619570
         C           -1.281855954583    -0.656947391588    -0.404104930748    12.000000000000
         C           -2.433308954583    -0.056443391588     0.396254069252    12.000000000000
         C            0.184105445417     0.223895208412    -0.129317530748    12.000000000000
         H           -1.513692954583    -0.595459391588    -1.475709930748     1.007825032230
         H           -1.128832954583    -1.712553391588    -0.161713930748     1.007825032230
         H           -3.391456954583    -0.533925391588     0.159359069252     1.007825032230
         H           -2.499718954583     1.011563608412     0.179866069252     1.007825032230
         H           -2.252797954583    -0.168629391588     1.469996069252     1.007825032230

  Basis Set: AUG-CC-PVTZ
    Blend: AUG-CC-PVTZ
  Basis Set: (AUG-CC-PVTZ AUX)
    Blend: AUG-CC-PVTZ-JKFIT
	 Reference Energy          =    -341.1067916417569563 [Eh]
	 Singles Energy            =      -0.0000000000000000 [Eh]
	 Same-Spin Energy          =      -0.3285793582283421 [Eh]
	 Opposite-Spin Energy      =      -1.0164116178307547 [Eh]
	 Correlation Energy        =      -1.3449909760590968 [Eh]
	 Total Energy              =    -342.4517826178160362 [Eh]

	 ================> DF-SCS-MP2 Energies <==================
	-----------------------------------------------------------
	 SCS Same-Spin Scale       =       0.3333333333333333 [-]
	 SCS Opposite-Spin Scale   =       1.2000000000000000 [-]
	 SCS Same-Spin Energy      =      -0.1095264527427807 [Eh]
	 SCS Opposite-Spin Energy  =      -1.2196939413969057 [Eh]
	 SCS Correlation Energy    =      -1.3292203941396863 [Eh]
	 SCS Total Energy          =    -342.4360120358966242 [Eh]
	-----------------------------------------------------------

  Dipole Moment: [D]
     X:    -6.6611      Y:    -0.9585      Z:    -0.5690     Total:     6.7537

*** Psi4 exiting successfully. Buy a developer a beer!
