                               Psi4 1.4a3.dev225

  ==> Input File <==

--------------------------------------------------------------------------
#psi4
#
memory 32 gb

molecule  {
-1 1
  O        1.1351350    -0.6918790     0.0330860
  O        0.1531200     1.3913640    -0.1728610
  O        2.4463690    -0.1041220     0.2385550
  C       -1.1465760    -0.6228910    -0.4018730
  C       -2.2980290    -0.0223870     0.3984860
  C        0.1331968     0.1460776    -0.1619857
  H       -1.3784130    -0.5614030    -1.4734780
  H       -0.9935530    -1.6784970    -0.1594820
  H       -3.2561770    -0.4998690     0.1615910
  H       -2.3644390     1.0456200     0.1820980
  H       -2.1175180    -0.1345730     1.4722280
units angstrom
no_reorient  #important for SAPT in psi4, default
symmetry c1  #important for SAPT in psi4, default
}

set PROPERTIES_ORIGIN ["COM"]
properties('MP2/aug-cc-pvtz', properties = ['dipole'])
--------------------------------------------------------------------------

    Molecular point group: c1
  Charge       = -1
  Multiplicity = 1
  Basis Set: AUG-CC-PVTZ
    Blend: AUG-CC-PVTZ
  Basis Set: (AUG-CC-PVTZ AUX)
    Blend: AUG-CC-PVTZ-JKFIT

    Orbital Energies [Eh]
    ---------------------

    Doubly Occupied:

       1A    -20.411251     2A    -20.346286     3A    -20.300472
       4A    -11.187547     5A    -11.096420     6A    -11.093839
       7A     -1.252773     8A     -1.152821     9A     -0.940110
      10A     -0.893531    11A     -0.736648    12A     -0.569101
      13A     -0.505754    14A     -0.493918    15A     -0.451564
      16A     -0.433715    17A     -0.411240    18A     -0.376545
      19A     -0.363978    20A     -0.310892    21A     -0.287218
      22A     -0.253262    23A     -0.189412    24A     -0.164689

  @DF-RHF Final Energy:  -341.13779930042830

   => Energetics <=

    Nuclear Repulsion Energy =            231.3934724105619125
    One-Electron Energy =                -936.6165736530790582
    Two-Electron Energy =                 364.0853019420888472
    Total Energy =                       -341.1377993004282985
  Basis Set: (AUG-CC-PVTZ AUX)
    Blend: AUG-CC-PVTZ-RI
    Molecular point group: c1

    Geometry (in Angstrom), charge = -1, multiplicity = 1:

       Center              X                  Y                   Z               Mass
    ------------   -----------------  -----------------  -----------------  -----------------
         O            1.024952395426    -0.710855301105     0.035558439042    15.994914619570
         O            0.042937395426     1.372387698895    -0.170388560958    15.994914619570
         O            2.336186395426    -0.123098301105     0.241027439042    15.994914619570
         C           -1.256758604574    -0.641867301105    -0.399400560958    12.000000000000
         C           -2.408211604574    -0.041363301105     0.400958439042    12.000000000000
         C            0.023014195426     0.127101298895    -0.159513260958    12.000000000000
         H           -1.488595604574    -0.580379301105    -1.471005560958     1.007825032230
         H           -1.103735604574    -1.697473301105    -0.157009560958     1.007825032230
         H           -3.366359604574    -0.518845301105     0.164063439042     1.007825032230
         H           -2.474621604574     1.026643698895     0.184570439042     1.007825032230
         H           -2.227700604574    -0.153549301105     1.474700439042     1.007825032230

  Basis Set: AUG-CC-PVTZ
    Blend: AUG-CC-PVTZ
  Basis Set: (AUG-CC-PVTZ AUX)
    Blend: AUG-CC-PVTZ-JKFIT
	 Reference Energy          =    -341.1377993004282985 [Eh]
	 Singles Energy            =      -0.0000000000000000 [Eh]
	 Same-Spin Energy          =      -0.3298924773776371 [Eh]
	 Opposite-Spin Energy      =      -1.0192221910909247 [Eh]
	 Correlation Energy        =      -1.3491146684685618 [Eh]
	 Total Energy              =    -342.4869139688968858 [Eh]

	 ================> DF-SCS-MP2 Energies <==================
	-----------------------------------------------------------
	 SCS Same-Spin Scale       =       0.3333333333333333 [-]
	 SCS Opposite-Spin Scale   =       1.2000000000000000 [-]
	 SCS Same-Spin Energy      =      -0.1099641591258790 [Eh]
	 SCS Opposite-Spin Energy  =      -1.2230666293091097 [Eh]
	 SCS Correlation Energy    =      -1.3330307884349888 [Eh]
	 SCS Total Energy          =    -342.4708300888632948 [Eh]
	-----------------------------------------------------------

  Dipole Moment: [D]
     X:    -7.8827      Y:    -1.8800      Z:    -0.7311     Total:     8.1367

*** Psi4 exiting successfully. Buy a developer a beer!
