                               Psi4 1.4a3.dev225

  ==> Input File <==

--------------------------------------------------------------------------
#psi4
#
memory 32 gb

molecule  {
-1 1
  O        1.1351350    -0.6918790     0.0330860
  O        0.1531200     1.3913640    -0.1728610
  O        2.4463690    -0.1041220     0.2385550
  C       -1.2545228    -0.7198811    -0.4684744
  C       -2.2980290    -0.0223870     0.3984860
  C        0.1501230     0.1562480    -0.1588130
  H       -1.3784130    -0.5614030    -1.4734780
  H       -0.9935530    -1.6784970    -0.1594820
  H       -3.2561770    -0.4998690     0.1615910
  H       -2.3644390     1.0456200     0.1820980
  H       -2.1175180    -0.1345730     1.4722280
units angstrom
no_reorient  #important for SAPT in psi4, default
symmetry c1  #important for SAPT in psi4, default
}

set PROPERTIES_ORIGIN ["COM"]
properties('MP2/aug-cc-pvtz', properties = ['dipole'])
--------------------------------------------------------------------------

    Molecular point group: c1
  Charge       = -1
  Multiplicity = 1
  Basis Set: AUG-CC-PVTZ
    Blend: AUG-CC-PVTZ
  Basis Set: (AUG-CC-PVTZ AUX)
    Blend: AUG-CC-PVTZ-JKFIT

    Orbital Energies [Eh]
    ---------------------

    Doubly Occupied:

       1A    -20.413210     2A    -20.350838     3A    -20.300991
       4A    -11.192379     5A    -11.094444     6A    -11.088186
       7A     -1.254898     8A     -1.159303     9A     -0.932832
      10A     -0.892632    11A     -0.727984    12A     -0.562956
      13A     -0.507354    14A     -0.492723    15A     -0.452584
      16A     -0.431988    17A     -0.403641    18A     -0.390685
      19A     -0.381020    20A     -0.307100    21A     -0.293105
      22A     -0.231286    23A     -0.190572    24A     -0.166477

  @DF-RHF Final Energy:  -341.11877453578182

   => Energetics <=

    Nuclear Repulsion Energy =            229.3466302097333482
    One-Electron Energy =                -932.4924351667868905
    Two-Electron Energy =                 362.0270304212717178
    Total Energy =                       -341.1187745357818244
  Basis Set: (AUG-CC-PVTZ AUX)
    Blend: AUG-CC-PVTZ-RI
    Molecular point group: c1

    Geometry (in Angstrom), charge = -1, multiplicity = 1:

       Center              X                  Y                   Z               Mass
    ------------   -----------------  -----------------  -----------------  -----------------
         O            1.037221545397    -0.699152412751     0.044108330306    15.994914619570
         O            0.055206545397     1.384090587249    -0.161838669694    15.994914619570
         O            2.348455545397    -0.111395412751     0.249577330306    15.994914619570
         C           -1.352436254603    -0.727154512751    -0.457452069694    12.000000000000
         C           -2.395942454603    -0.029660412751     0.409508330306    12.000000000000
         C            0.052209545397     0.148974587249    -0.147790669694    12.000000000000
         H           -1.476326454603    -0.568676412751    -1.462455669694     1.007825032230
         H           -1.091466454603    -1.685770412751    -0.148459669694     1.007825032230
         H           -3.354090454603    -0.507142412751     0.172613330306     1.007825032230
         H           -2.462352454603     1.038346587249     0.193120330306     1.007825032230
         H           -2.215431454603    -0.141846412751     1.483250330306     1.007825032230

  Basis Set: AUG-CC-PVTZ
    Blend: AUG-CC-PVTZ
  Basis Set: (AUG-CC-PVTZ AUX)
    Blend: AUG-CC-PVTZ-JKFIT
	 Reference Energy          =    -341.1187745357818244 [Eh]
	 Singles Energy            =      -0.0000000000000000 [Eh]
	 Same-Spin Energy          =      -0.3300775190615919 [Eh]
	 Opposite-Spin Energy      =      -1.0198049151310917 [Eh]
	 Correlation Energy        =      -1.3498824341926836 [Eh]
	 Total Energy              =    -342.4686569699745178 [Eh]

	 ================> DF-SCS-MP2 Energies <==================
	-----------------------------------------------------------
	 SCS Same-Spin Scale       =       0.3333333333333333 [-]
	 SCS Opposite-Spin Scale   =       1.2000000000000000 [-]
	 SCS Same-Spin Energy      =      -0.1100258396871973 [Eh]
	 SCS Opposite-Spin Energy  =      -1.2237658981573101 [Eh]
	 SCS Correlation Energy    =      -1.3337917378445074 [Eh]
	 SCS Total Energy          =    -342.4525662736263598 [Eh]
	-----------------------------------------------------------

  Dipole Moment: [D]
     X:    -7.6817      Y:    -1.7392      Z:    -0.7556     Total:     7.9123

*** Psi4 exiting successfully. Buy a developer a beer!
