                               Psi4 1.4a3.dev225

  ==> Input File <==

--------------------------------------------------------------------------
#psi4
#
memory 32 gb

molecule  {
-1 1
  O        1.1351350    -0.6918790     0.0330860
  O        0.1531200     1.3913640    -0.1728610
  O        2.4463690    -0.1041220     0.2385550
  C       -1.1465760    -0.6228910    -0.4018730
  C       -2.2980290    -0.0223870     0.3984860
  C        0.1501230     0.1562480    -0.1588130
  H       -1.3995252    -0.5558036    -1.5710635
  H       -0.9935530    -1.6784970    -0.1594820
  H       -3.2561770    -0.4998690     0.1615910
  H       -2.3644390     1.0456200     0.1820980
  H       -2.1175180    -0.1345730     1.4722280
units angstrom
no_reorient  #important for SAPT in psi4, default
symmetry c1  #important for SAPT in psi4, default
}

set PROPERTIES_ORIGIN ["COM"]
properties('MP2/aug-cc-pvtz', properties = ['dipole'])
--------------------------------------------------------------------------

    Molecular point group: c1
  Charge       = -1
  Multiplicity = 1
  Basis Set: AUG-CC-PVTZ
    Blend: AUG-CC-PVTZ
  Basis Set: (AUG-CC-PVTZ AUX)
    Blend: AUG-CC-PVTZ-JKFIT

    Orbital Energies [Eh]
    ---------------------

    Doubly Occupied:

       1A    -20.413095     2A    -20.347963     3A    -20.301480
       4A    -11.188241     5A    -11.104898     6A    -11.096353
       7A     -1.257651     8A     -1.160151     9A     -0.938773
      10A     -0.890486    11A     -0.728228    12A     -0.566347
      13A     -0.506641    14A     -0.484754    15A     -0.454631
      16A     -0.436279    17A     -0.412486    18A     -0.375634
      19A     -0.355706    20A     -0.311221    21A     -0.290459
      22A     -0.252451    23A     -0.191189    24A     -0.166469

  @DF-RHF Final Energy:  -341.13309663564780

   => Energetics <=

    Nuclear Repulsion Energy =            231.0382225640224760
    One-Electron Energy =                -935.8794726843258331
    Two-Electron Energy =                 363.7081534846555542
    Total Energy =                       -341.1330966356478029
  Basis Set: (AUG-CC-PVTZ AUX)
    Blend: AUG-CC-PVTZ-RI
    Molecular point group: c1

    Geometry (in Angstrom), charge = -1, multiplicity = 1:

       Center              X                  Y                   Z               Mass
    ------------   -----------------  -----------------  -----------------  -----------------
         O            1.022909830905    -0.712289613238     0.036235523855    15.994914619570
         O            0.040894830905     1.370953386762    -0.169711476145    15.994914619570
         O            2.334143830905    -0.124532613238     0.241704523855    15.994914619570
         C           -1.258801169095    -0.643301613238    -0.398723476145    12.000000000000
         C           -2.410254169095    -0.042797613238     0.401635523855    12.000000000000
         C            0.037897830905     0.135837386762    -0.155663476145    12.000000000000
         H           -1.511750369095    -0.576214213238    -1.567913976145     1.007825032230
         H           -1.105778169095    -1.698907613238    -0.156332476145     1.007825032230
         H           -3.368402169095    -0.520279613238     0.164740523855     1.007825032230
         H           -2.476664169095     1.025209386762     0.185247523855     1.007825032230
         H           -2.229743169095    -0.154983613238     1.475377523855     1.007825032230

  Basis Set: AUG-CC-PVTZ
    Blend: AUG-CC-PVTZ
  Basis Set: (AUG-CC-PVTZ AUX)
    Blend: AUG-CC-PVTZ-JKFIT
	 Reference Energy          =    -341.1330966356478029 [Eh]
	 Singles Energy            =      -0.0000000000000000 [Eh]
	 Same-Spin Energy          =      -0.3294834207494099 [Eh]
	 Opposite-Spin Energy      =      -1.0191566010250033 [Eh]
	 Correlation Energy        =      -1.3486400217744132 [Eh]
	 Total Energy              =    -342.4817366574222319 [Eh]

	 ================> DF-SCS-MP2 Energies <==================
	-----------------------------------------------------------
	 SCS Same-Spin Scale       =       0.3333333333333333 [-]
	 SCS Opposite-Spin Scale   =       1.2000000000000000 [-]
	 SCS Same-Spin Energy      =      -0.1098278069164700 [Eh]
	 SCS Opposite-Spin Energy  =      -1.2229879212300039 [Eh]
	 SCS Correlation Energy    =      -1.3328157281464739 [Eh]
	 SCS Total Energy          =    -342.4659123637943026 [Eh]
	-----------------------------------------------------------

  Dipole Moment: [D]
     X:    -7.7665      Y:    -1.7962      Z:    -0.6329     Total:     7.9966

*** Psi4 exiting successfully. Buy a developer a beer!
