                               Psi4 1.4a3.dev225

  ==> Input File <==

--------------------------------------------------------------------------
#psi4
#
memory 32 gb

molecule  {
-1 1
  O        1.1351350    -0.6918790     0.0330860
  O        0.1531200     1.3913640    -0.1728610
  O        2.4463690    -0.1041220     0.2385550
  C       -1.2172091    -0.6883493    -0.4472954
  C       -2.2980290    -0.0223870     0.3984860
  C        0.1501230     0.1562480    -0.1588130
  H       -1.3784130    -0.5614030    -1.4734780
  H       -0.9935530    -1.6784970    -0.1594820
  H       -3.2561770    -0.4998690     0.1615910
  H       -2.3644390     1.0456200     0.1820980
  H       -2.1175180    -0.1345730     1.4722280
units angstrom
no_reorient  #important for SAPT in psi4, default
symmetry c1  #important for SAPT in psi4, default
}

set PROPERTIES_ORIGIN ["COM"]
properties('MP2/aug-cc-pvtz', properties = ['dipole'])
--------------------------------------------------------------------------

    Molecular point group: c1
  Charge       = -1
  Multiplicity = 1
  Basis Set: AUG-CC-PVTZ
    Blend: AUG-CC-PVTZ
  Basis Set: (AUG-CC-PVTZ AUX)
    Blend: AUG-CC-PVTZ-JKFIT

    Orbital Energies [Eh]
    ---------------------

    Doubly Occupied:

       1A    -20.412777     2A    -20.349568     3A    -20.300805
       4A    -11.190775     5A    -11.094337     6A    -11.088868
       7A     -1.255347     8A     -1.159194     9A     -0.934554
      10A     -0.892280    11A     -0.728614    12A     -0.564621
      13A     -0.502741    14A     -0.496062    15A     -0.452584
      16A     -0.432855    17A     -0.405492    18A     -0.386756
      19A     -0.376235    20A     -0.308415    21A     -0.292392
      22A     -0.239283    23A     -0.190477    24A     -0.166195

  @DF-RHF Final Energy:  -341.12992267770517

   => Energetics <=

    Nuclear Repulsion Energy =            230.0450656526306830
    One-Electron Energy =                -933.9075252921227275
    Two-Electron Energy =                 362.7325369617868773
    Total Energy =                       -341.1299226777051672
  Basis Set: (AUG-CC-PVTZ AUX)
    Blend: AUG-CC-PVTZ-RI
    Molecular point group: c1

    Geometry (in Angstrom), charge = -1, multiplicity = 1:

       Center              X                  Y                   Z               Mass
    ------------   -----------------  -----------------  -----------------  -----------------
         O            1.032191833648    -0.703402751499     0.041253500441    15.994914619570
         O            0.050176833648     1.379840248501    -0.164693499559    15.994914619570
         O            2.343425833648    -0.115645751499     0.246722500441    15.994914619570
         C           -1.320152266352    -0.699873051499    -0.439127899559    12.000000000000
         C           -2.400972166352    -0.033910751499     0.406653500441    12.000000000000
         C            0.047179833648     0.144724248501    -0.150645499559    12.000000000000
         H           -1.481356166352    -0.572926751499    -1.465310499559     1.007825032230
         H           -1.096496166352    -1.690020751499    -0.151314499559     1.007825032230
         H           -3.359120166352    -0.511392751499     0.169758500441     1.007825032230
         H           -2.467382166352     1.034096248501     0.190265500441     1.007825032230
         H           -2.220461166352    -0.146096751499     1.480395500441     1.007825032230

  Basis Set: AUG-CC-PVTZ
    Blend: AUG-CC-PVTZ
  Basis Set: (AUG-CC-PVTZ AUX)
    Blend: AUG-CC-PVTZ-JKFIT
	 Reference Energy          =    -341.1299226777051672 [Eh]
	 Singles Energy            =      -0.0000000000000000 [Eh]
	 Same-Spin Energy          =      -0.3296638641122542 [Eh]
	 Opposite-Spin Energy      =      -1.0189317449968129 [Eh]
	 Correlation Energy        =      -1.3485956091090672 [Eh]
	 Total Energy              =    -342.4785182868142215 [Eh]

	 ================> DF-SCS-MP2 Energies <==================
	-----------------------------------------------------------
	 SCS Same-Spin Scale       =       0.3333333333333333 [-]
	 SCS Opposite-Spin Scale   =       1.2000000000000000 [-]
	 SCS Same-Spin Energy      =      -0.1098879547040847 [Eh]
	 SCS Opposite-Spin Energy  =      -1.2227180939961755 [Eh]
	 SCS Correlation Energy    =      -1.3326060487002602 [Eh]
	 SCS Total Energy          =    -342.4625287264054236 [Eh]
	-----------------------------------------------------------

  Dipole Moment: [D]
     X:    -7.7346      Y:    -1.7746      Z:    -0.7516     Total:     7.9710

*** Psi4 exiting successfully. Buy a developer a beer!
