                               Psi4 1.4a3.dev225

  ==> Input File <==

--------------------------------------------------------------------------
#psi4
#
memory 32 gb

molecule  {
-1 1
  O        1.1351350    -0.6918790     0.0330860
  O        0.1531200     1.3913640    -0.1728610
  O        2.4463690    -0.1041220     0.2385550
  C       -1.1297814    -0.6060565    -0.3898991
  C       -2.2980290    -0.0223870     0.3984860
  C        0.1501230     0.1562480    -0.1588130
  H       -1.3784130    -0.5614030    -1.4734780
  H       -0.9935530    -1.6784970    -0.1594820
  H       -3.2561770    -0.4998690     0.1615910
  H       -2.3644390     1.0456200     0.1820980
  H       -2.1175180    -0.1345730     1.4722280
units angstrom
no_reorient  #important for SAPT in psi4, default
symmetry c1  #important for SAPT in psi4, default
}

set PROPERTIES_ORIGIN ["COM"]
properties('MP2/aug-cc-pvtz', properties = ['dipole'])
--------------------------------------------------------------------------

    Molecular point group: c1
  Charge       = -1
  Multiplicity = 1
  Basis Set: AUG-CC-PVTZ
    Blend: AUG-CC-PVTZ
  Basis Set: (AUG-CC-PVTZ AUX)
    Blend: AUG-CC-PVTZ-JKFIT

    Orbital Energies [Eh]
    ---------------------

    Doubly Occupied:

       1A    -20.412198     2A    -20.347007     3A    -20.300754
       4A    -11.185925     5A    -11.095511     6A    -11.093616
       7A     -1.257452     8A     -1.159839     9A     -0.940554
      10A     -0.892202    11A     -0.734117    12A     -0.569315
      13A     -0.507570    14A     -0.490632    15A     -0.454630
      16A     -0.436474    17A     -0.413541    18A     -0.373138
      19A     -0.359499    20A     -0.311684    21A     -0.290166
      22A     -0.253834    23A     -0.190487    24A     -0.165820

  @DF-RHF Final Energy:  -341.13860880315792

   => Energetics <=

    Nuclear Repulsion Energy =            231.8502032561126214
    One-Electron Energy =                -937.5056940781103094
    Two-Electron Energy =                 364.5168820188397376
    Total Energy =                       -341.1386088031579220
  Basis Set: (AUG-CC-PVTZ AUX)
    Blend: AUG-CC-PVTZ-RI
    Molecular point group: c1

    Geometry (in Angstrom), charge = -1, multiplicity = 1:

       Center              X                  Y                   Z               Mass
    ------------   -----------------  -----------------  -----------------  -----------------
         O            1.020406989745    -0.714495434965     0.033516748404    15.994914619570
         O            0.038391989745     1.368747565035    -0.172430251596    15.994914619570
         O            2.331640989745    -0.126738434965     0.238985748404    15.994914619570
         C           -1.244509410255    -0.628672934965    -0.389468351596    12.000000000000
         C           -2.412757010255    -0.045003434965     0.398916748404    12.000000000000
         C            0.035394989745     0.133631565035    -0.158382251596    12.000000000000
         H           -1.493141010255    -0.584019434965    -1.473047251596     1.007825032230
         H           -1.108281010255    -1.701113434965    -0.159051251596     1.007825032230
         H           -3.370905010255    -0.522485434965     0.162021748404     1.007825032230
         H           -2.479167010255     1.023003565035     0.182528748404     1.007825032230
         H           -2.232246010255    -0.157189434965     1.472658748404     1.007825032230

  Basis Set: AUG-CC-PVTZ
    Blend: AUG-CC-PVTZ
  Basis Set: (AUG-CC-PVTZ AUX)
    Blend: AUG-CC-PVTZ-JKFIT
	 Reference Energy          =    -341.1386088031579220 [Eh]
	 Singles Energy            =      -0.0000000000000000 [Eh]
	 Same-Spin Energy          =      -0.3296170868254997 [Eh]
	 Opposite-Spin Energy      =      -1.0186786680461275 [Eh]
	 Correlation Energy        =      -1.3482957548716272 [Eh]
	 Total Energy              =    -342.4869045580295506 [Eh]

	 ================> DF-SCS-MP2 Energies <==================
	-----------------------------------------------------------
	 SCS Same-Spin Scale       =       0.3333333333333333 [-]
	 SCS Opposite-Spin Scale   =       1.2000000000000000 [-]
	 SCS Same-Spin Energy      =      -0.1098723622751666 [Eh]
	 SCS Opposite-Spin Energy  =      -1.2224144016553529 [Eh]
	 SCS Correlation Energy    =      -1.3322867639305194 [Eh]
	 SCS Total Energy          =    -342.4708955670884620 [Eh]
	-----------------------------------------------------------

  Dipole Moment: [D]
     X:    -7.8141      Y:    -1.8146      Z:    -0.7090     Total:     8.0533

*** Psi4 exiting successfully. Buy a developer a beer!
