                               Psi4 1.4a3.dev225

  ==> Input File <==

--------------------------------------------------------------------------
#psi4
#
memory 32 gb

molecule  {
-1 1
  O        1.1351350    -0.6918790     0.0330860
  O        0.1531200     1.3913640    -0.1728610
  O        2.4463690    -0.1041220     0.2385550
  C       -1.1006520    -0.6487139    -0.3093463
  C       -2.2980290    -0.0223870     0.3984860
  C        0.1501230     0.1562480    -0.1588130
  H       -1.3784130    -0.5614030    -1.4734780
  H       -0.9935530    -1.6784970    -0.1594820
  H       -3.2561770    -0.4998690     0.1615910
  H       -2.3644390     1.0456200     0.1820980
  H       -2.1175180    -0.1345730     1.4722280
units angstrom
no_reorient  #important for SAPT in psi4, default
symmetry c1  #important for SAPT in psi4, default
}

set PROPERTIES_ORIGIN ["COM"]
properties('MP2/aug-cc-pvtz', properties = ['dipole'])
--------------------------------------------------------------------------

    Molecular point group: c1
  Charge       = -1
  Multiplicity = 1
  Basis Set: AUG-CC-PVTZ
    Blend: AUG-CC-PVTZ
  Basis Set: (AUG-CC-PVTZ AUX)
    Blend: AUG-CC-PVTZ-JKFIT

    Orbital Energies [Eh]
    ---------------------

    Doubly Occupied:

       1A    -20.411643     2A    -20.348246     3A    -20.300002
       4A    -11.186791     5A    -11.097108     6A    -11.096316
       7A     -1.258290     8A     -1.160190     9A     -0.943156
      10A     -0.891983    11A     -0.735264    12A     -0.573504
      13A     -0.512664    14A     -0.485237    15A     -0.457589
      16A     -0.433759    17A     -0.416561    18A     -0.385811
      19A     -0.342736    20A     -0.310449    21A     -0.288659
      22A     -0.256358    23A     -0.189938    24A     -0.165194

  @DF-RHF Final Energy:  -341.12804614918616

   => Energetics <=

    Nuclear Repulsion Energy =            232.1276890833602806
    One-Electron Energy =                -938.0165804102695120
    Two-Electron Energy =                 364.7608451777231267
    Total Energy =                       -341.1280461491861615
  Basis Set: (AUG-CC-PVTZ AUX)
    Blend: AUG-CC-PVTZ-RI
    Molecular point group: c1

    Geometry (in Angstrom), charge = -1, multiplicity = 1:

       Center              X                  Y                   Z               Mass
    ------------   -----------------  -----------------  -----------------  -----------------
         O            1.016480483249    -0.708745417519     0.022658608776    15.994914619570
         O            0.034465483249     1.374497582481    -0.183288391224    15.994914619570
         O            2.327714483249    -0.120988417519     0.228127608776    15.994914619570
         C           -1.219306516751    -0.665580317519    -0.319773691224    12.000000000000
         C           -2.416683516751    -0.039253417519     0.388058608776    12.000000000000
         C            0.031468483249     0.139381582481    -0.169240391224    12.000000000000
         H           -1.497067516751    -0.578269417519    -1.483905391224     1.007825032230
         H           -1.112207516751    -1.695363417519    -0.169909391224     1.007825032230
         H           -3.374831516751    -0.516735417519     0.151163608776     1.007825032230
         H           -2.483093516751     1.028753582481     0.171670608776     1.007825032230
         H           -2.236172516751    -0.151439417519     1.461800608776     1.007825032230

  Basis Set: AUG-CC-PVTZ
    Blend: AUG-CC-PVTZ
  Basis Set: (AUG-CC-PVTZ AUX)
    Blend: AUG-CC-PVTZ-JKFIT
	 Reference Energy          =    -341.1280461491861615 [Eh]
	 Singles Energy            =      -0.0000000000000000 [Eh]
	 Same-Spin Energy          =      -0.3300533499332967 [Eh]
	 Opposite-Spin Energy      =      -1.0195056131935654 [Eh]
	 Correlation Energy        =      -1.3495589631268621 [Eh]
	 Total Energy              =    -342.4776051123130287 [Eh]

	 ================> DF-SCS-MP2 Energies <==================
	-----------------------------------------------------------
	 SCS Same-Spin Scale       =       0.3333333333333333 [-]
	 SCS Opposite-Spin Scale   =       1.2000000000000000 [-]
	 SCS Same-Spin Energy      =      -0.1100177833110989 [Eh]
	 SCS Opposite-Spin Energy  =      -1.2234067358322784 [Eh]
	 SCS Correlation Energy    =      -1.3334245191433773 [Eh]
	 SCS Total Energy          =    -342.4614706683295253 [Eh]
	-----------------------------------------------------------

  Dipole Moment: [D]
     X:    -7.8190      Y:    -1.8795      Z:    -0.5763     Total:     8.0624

*** Psi4 exiting successfully. Buy a developer a beer!
