                               Psi4 1.4a3.dev225

  ==> Input File <==

--------------------------------------------------------------------------
#psi4
#
memory 32 gb

molecule  {
-1 1
  O        1.1351350    -0.6918790     0.0330860
  O        0.1531200     1.3913640    -0.1728610
  O        2.4463690    -0.1041220     0.2385550
  C       -1.1465760    -0.6228910    -0.4018730
  C       -2.2980290    -0.0223870     0.3984860
  C        0.1351295     0.1691578    -0.1617340
  H       -1.3784130    -0.5614030    -1.4734780
  H       -0.9935530    -1.6784970    -0.1594820
  H       -3.2561770    -0.4998690     0.1615910
  H       -2.3644390     1.0456200     0.1820980
  H       -2.1175180    -0.1345730     1.4722280
units angstrom
no_reorient  #important for SAPT in psi4, default
symmetry c1  #important for SAPT in psi4, default
}

set PROPERTIES_ORIGIN ["COM"]
properties('MP2/aug-cc-pvtz', properties = ['dipole'])
--------------------------------------------------------------------------

    Molecular point group: c1
  Charge       = -1
  Multiplicity = 1
  Basis Set: AUG-CC-PVTZ
    Blend: AUG-CC-PVTZ
  Basis Set: (AUG-CC-PVTZ AUX)
    Blend: AUG-CC-PVTZ-JKFIT

    Orbital Energies [Eh]
    ---------------------

    Doubly Occupied:

       1A    -20.407726     2A    -20.351608     3A    -20.297272
       4A    -11.186978     5A    -11.096045     6A    -11.093063
       7A     -1.251254     8A     -1.165537     9A     -0.935930
      10A     -0.890621    11A     -0.733683    12A     -0.568562
      13A     -0.505541    14A     -0.492965    15A     -0.455485
      16A     -0.434086    17A     -0.410383    18A     -0.377109
      19A     -0.363800    20A     -0.309971    21A     -0.295032
      22A     -0.254547    23A     -0.186176    24A     -0.161701

  @DF-RHF Final Energy:  -341.13869237637863

   => Energetics <=

    Nuclear Repulsion Energy =            231.4410763495687320
    One-Electron Energy =                -936.7093856544499886
    Two-Electron Energy =                 364.1296169285026849
    Total Energy =                       -341.1386923763786285
  Basis Set: (AUG-CC-PVTZ AUX)
    Blend: AUG-CC-PVTZ-RI
    Molecular point group: c1

    Geometry (in Angstrom), charge = -1, multiplicity = 1:

       Center              X                  Y                   Z               Mass
    ------------   -----------------  -----------------  -----------------  -----------------
         O            1.024691876531    -0.713966403813     0.035524511063    15.994914619570
         O            0.042676876531     1.369276596187    -0.170422488937    15.994914619570
         O            2.335925876531    -0.126209403813     0.240993511063    15.994914619570
         C           -1.257019123469    -0.644978403813    -0.399434488937    12.000000000000
         C           -2.408472123469    -0.044474403813     0.400924511063    12.000000000000
         C            0.024686376531     0.147070396187    -0.159295488937    12.000000000000
         H           -1.488856123469    -0.583490403813    -1.471039488937     1.007825032230
         H           -1.103996123469    -1.700584403813    -0.157043488937     1.007825032230
         H           -3.366620123469    -0.521956403813     0.164029511063     1.007825032230
         H           -2.474882123469     1.023532596187     0.184536511063     1.007825032230
         H           -2.227961123469    -0.156660403813     1.474666511063     1.007825032230

  Basis Set: AUG-CC-PVTZ
    Blend: AUG-CC-PVTZ
  Basis Set: (AUG-CC-PVTZ AUX)
    Blend: AUG-CC-PVTZ-JKFIT
	 Reference Energy          =    -341.1386923763786285 [Eh]
	 Singles Energy            =      -0.0000000000000000 [Eh]
	 Same-Spin Energy          =      -0.3297173590556189 [Eh]
	 Opposite-Spin Energy      =      -1.0189307362532680 [Eh]
	 Correlation Energy        =      -1.3486480953088869 [Eh]
	 Total Energy              =    -342.4873404716875029 [Eh]

	 ================> DF-SCS-MP2 Energies <==================
	-----------------------------------------------------------
	 SCS Same-Spin Scale       =       0.3333333333333333 [-]
	 SCS Opposite-Spin Scale   =       1.2000000000000000 [-]
	 SCS Same-Spin Energy      =      -0.1099057863518730 [Eh]
	 SCS Opposite-Spin Energy  =      -1.2227168835039215 [Eh]
	 SCS Correlation Energy    =      -1.3326226698557944 [Eh]
	 SCS Total Energy          =    -342.4713150462343947 [Eh]
	-----------------------------------------------------------

  Dipole Moment: [D]
     X:    -7.9624      Y:    -1.6958      Z:    -0.7495     Total:     8.1754

*** Psi4 exiting successfully. Buy a developer a beer!
