                               Psi4 1.4a3.dev225

  ==> Input File <==

--------------------------------------------------------------------------
#psi4
#
memory 32 gb

molecule  {
-1 1
  O        1.1351350    -0.6918790     0.0330860
  O        0.1108038     1.3906206    -0.1810854
  O        2.4463690    -0.1041220     0.2385550
  C       -1.1465760    -0.6228910    -0.4018730
  C       -2.2980290    -0.0223870     0.3984860
  C        0.1501230     0.1562480    -0.1588130
  H       -1.3784130    -0.5614030    -1.4734780
  H       -0.9935530    -1.6784970    -0.1594820
  H       -3.2561770    -0.4998690     0.1615910
  H       -2.3644390     1.0456200     0.1820980
  H       -2.1175180    -0.1345730     1.4722280
units angstrom
no_reorient  #important for SAPT in psi4, default
symmetry c1  #important for SAPT in psi4, default
}

set PROPERTIES_ORIGIN ["COM"]
properties('MP2/aug-cc-pvtz', properties = ['dipole'])
--------------------------------------------------------------------------

    Molecular point group: c1
  Charge       = -1
  Multiplicity = 1
  Basis Set: AUG-CC-PVTZ
    Blend: AUG-CC-PVTZ
  Basis Set: (AUG-CC-PVTZ AUX)
    Blend: AUG-CC-PVTZ-JKFIT

    Orbital Energies [Eh]
    ---------------------

    Doubly Occupied:

       1A    -20.414823     2A    -20.348712     3A    -20.302251
       4A    -11.188125     5A    -11.093586     6A    -11.090169
       7A     -1.257713     8A     -1.162796     9A     -0.939613
      10A     -0.891364    11A     -0.731131    12A     -0.568888
      13A     -0.506081    14A     -0.491158    15A     -0.455121
      16A     -0.436112    17A     -0.411358    18A     -0.374869
      19A     -0.362044    20A     -0.312811    21A     -0.292623
      22A     -0.251182    23A     -0.192027    24A     -0.167622

  @DF-RHF Final Energy:  -341.13885842455056

   => Energetics <=

    Nuclear Repulsion Energy =            231.4903118005643989
    One-Electron Energy =                -936.7739832736981498
    Two-Electron Energy =                 364.1448130485831598
    Total Energy =                       -341.1388584245505626
  Basis Set: (AUG-CC-PVTZ AUX)
    Blend: AUG-CC-PVTZ-RI
    Molecular point group: c1

    Geometry (in Angstrom), charge = -1, multiplicity = 1:

       Center              X                  Y                   Z               Mass
    ------------   -----------------  -----------------  -----------------  -----------------
         O            1.030273772841    -0.712092656678     0.036608451548    15.994914619570
         O            0.005942572841     1.370406943322    -0.177562948452    15.994914619570
         O            2.341507772841    -0.124335656678     0.242077451548    15.994914619570
         C           -1.251437227159    -0.643104656678    -0.398350548452    12.000000000000
         C           -2.402890227159    -0.042600656678     0.402008451548    12.000000000000
         C            0.045261772841     0.136034343322    -0.155290548452    12.000000000000
         H           -1.483274227159    -0.581616656678    -1.469955548452     1.007825032230
         H           -1.098414227159    -1.698710656678    -0.155959548452     1.007825032230
         H           -3.361038227159    -0.520082656678     0.165113451548     1.007825032230
         H           -2.469300227159     1.025406343322     0.185620451548     1.007825032230
         H           -2.222379227159    -0.154786656678     1.475750451548     1.007825032230

  Basis Set: AUG-CC-PVTZ
    Blend: AUG-CC-PVTZ
  Basis Set: (AUG-CC-PVTZ AUX)
    Blend: AUG-CC-PVTZ-JKFIT
	 Reference Energy          =    -341.1388584245505626 [Eh]
	 Singles Energy            =      -0.0000000000000000 [Eh]
	 Same-Spin Energy          =      -0.3295138856652829 [Eh]
	 Opposite-Spin Energy      =      -1.0185654844294181 [Eh]
	 Correlation Energy        =      -1.3480793700947009 [Eh]
	 Total Energy              =    -342.4869377946452573 [Eh]

	 ================> DF-SCS-MP2 Energies <==================
	-----------------------------------------------------------
	 SCS Same-Spin Scale       =       0.3333333333333333 [-]
	 SCS Opposite-Spin Scale   =       1.2000000000000000 [-]
	 SCS Same-Spin Energy      =      -0.1098379618884276 [Eh]
	 SCS Opposite-Spin Energy  =      -1.2222785813153016 [Eh]
	 SCS Correlation Energy    =      -1.3321165432037292 [Eh]
	 SCS Total Energy          =    -342.4709749677542732 [Eh]
	-----------------------------------------------------------

  Dipole Moment: [D]
     X:    -7.7086      Y:    -1.7949      Z:    -0.7102     Total:     7.9466

*** Psi4 exiting successfully. Buy a developer a beer!
