                               Psi4 1.4a3.dev225

  ==> Input File <==

--------------------------------------------------------------------------
#psi4
#
memory 32 gb

molecule  {
-1 1
  O        1.1351350    -0.6918790     0.0330860
  O        0.1531200     1.3913640    -0.1728610
  O        2.4463690    -0.1041220     0.2385550
  C       -1.1465760    -0.6228910    -0.4018730
  C       -2.2980290    -0.0223870     0.3984860
  C        0.1651165     0.1433382    -0.1558920
  H       -1.3784130    -0.5614030    -1.4734780
  H       -0.9935530    -1.6784970    -0.1594820
  H       -3.2561770    -0.4998690     0.1615910
  H       -2.3644390     1.0456200     0.1820980
  H       -2.1175180    -0.1345730     1.4722280
units angstrom
no_reorient  #important for SAPT in psi4, default
symmetry c1  #important for SAPT in psi4, default
}

set PROPERTIES_ORIGIN ["COM"]
properties('MP2/aug-cc-pvtz', properties = ['dipole'])
--------------------------------------------------------------------------

    Molecular point group: c1
  Charge       = -1
  Multiplicity = 1
  Basis Set: AUG-CC-PVTZ
    Blend: AUG-CC-PVTZ
  Basis Set: (AUG-CC-PVTZ AUX)
    Blend: AUG-CC-PVTZ-JKFIT

    Orbital Energies [Eh]
    ---------------------

    Doubly Occupied:

       1A    -20.416789     2A    -20.343288     3A    -20.304256
       4A    -11.186965     5A    -11.094129     6A    -11.091648
       7A     -1.264618     8A     -1.152199     9A     -0.943211
      10A     -0.892871    11A     -0.731102    12A     -0.568857
      13A     -0.506345    14A     -0.491442    15A     -0.452786
      16A     -0.437332    17A     -0.413538    18A     -0.375235
      19A     -0.362201    20A     -0.311833    21A     -0.286206
      22A     -0.248249    23A     -0.194719    24A     -0.170087

  @DF-RHF Final Energy:  -341.13917718714475

   => Energetics <=

    Nuclear Repulsion Energy =            231.5318290794884888
    One-Electron Energy =                -936.8622022456376044
    Two-Electron Energy =                 364.1911959790043625
    Total Energy =                       -341.1391771871447531
  Basis Set: (AUG-CC-PVTZ AUX)
    Blend: AUG-CC-PVTZ-RI
    Molecular point group: c1

    Geometry (in Angstrom), charge = -1, multiplicity = 1:

       Center              X                  Y                   Z               Mass
    ------------   -----------------  -----------------  -----------------  -----------------
         O            1.020649769577    -0.710486042834     0.034737036863    15.994914619570
         O            0.038634769577     1.372756957166    -0.171209963137    15.994914619570
         O            2.331883769577    -0.122729042834     0.240206036863    15.994914619570
         C           -1.261061230423    -0.641498042834    -0.400221963137    12.000000000000
         C           -2.412514230423    -0.040994042834     0.400137036863    12.000000000000
         C            0.050631269577     0.124731157166    -0.154240963137    12.000000000000
         H           -1.492898230423    -0.580010042834    -1.471826963137     1.007825032230
         H           -1.108038230423    -1.697104042834    -0.157830963137     1.007825032230
         H           -3.370662230423    -0.518476042834     0.163242036863     1.007825032230
         H           -2.478924230423     1.027012957166     0.183749036863     1.007825032230
         H           -2.232003230423    -0.153180042834     1.473879036863     1.007825032230

  Basis Set: AUG-CC-PVTZ
    Blend: AUG-CC-PVTZ
  Basis Set: (AUG-CC-PVTZ AUX)
    Blend: AUG-CC-PVTZ-JKFIT
	 Reference Energy          =    -341.1391771871447531 [Eh]
	 Singles Energy            =      -0.0000000000000000 [Eh]
	 Same-Spin Energy          =      -0.3293028270475100 [Eh]
	 Opposite-Spin Energy      =      -1.0180828507874571 [Eh]
	 Correlation Energy        =      -1.3473856778349671 [Eh]
	 Total Energy              =    -342.4865628649797031 [Eh]

	 ================> DF-SCS-MP2 Energies <==================
	-----------------------------------------------------------
	 SCS Same-Spin Scale       =       0.3333333333333333 [-]
	 SCS Opposite-Spin Scale   =       1.2000000000000000 [-]
	 SCS Same-Spin Energy      =      -0.1097676090158367 [Eh]
	 SCS Opposite-Spin Energy  =      -1.2216994209449485 [Eh]
	 SCS Correlation Energy    =      -1.3314670299607851 [Eh]
	 SCS Total Energy          =    -342.4706442171055301 [Eh]
	-----------------------------------------------------------

  Dipole Moment: [D]
     X:    -7.6442      Y:    -1.9276      Z:    -0.6925     Total:     7.9138

*** Psi4 exiting successfully. Buy a developer a beer!
