                               Psi4 1.4a3.dev225

  ==> Input File <==

--------------------------------------------------------------------------
#psi4
#
memory 32 gb

molecule  {
-1 1
  O        1.1351350    -0.6918790     0.0330860
  O        0.1531200     1.3913640    -0.1728610
  O        2.4463690    -0.1041220     0.2385550
  C       -1.0512447    -0.5193216    -0.3265027
  C       -2.2980290    -0.0223870     0.3984860
  C        0.1501230     0.1562480    -0.1588130
  H       -1.3784130    -0.5614030    -1.4734780
  H       -0.9935530    -1.6784970    -0.1594820
  H       -3.2561770    -0.4998690     0.1615910
  H       -2.3644390     1.0456200     0.1820980
  H       -2.1175180    -0.1345730     1.4722280
units angstrom
no_reorient  #important for SAPT in psi4, default
symmetry c1  #important for SAPT in psi4, default
}

set PROPERTIES_ORIGIN ["COM"]
properties('MP2/aug-cc-pvtz', properties = ['dipole'])
--------------------------------------------------------------------------

    Molecular point group: c1
  Charge       = -1
  Multiplicity = 1
  Basis Set: AUG-CC-PVTZ
    Blend: AUG-CC-PVTZ
  Basis Set: (AUG-CC-PVTZ AUX)
    Blend: AUG-CC-PVTZ-JKFIT

    Orbital Energies [Eh]
    ---------------------

    Doubly Occupied:

       1A    -20.411956     2A    -20.345031     3A    -20.301024
       4A    -11.179372     5A    -11.102117     6A    -11.098896
       7A     -1.260784     8A     -1.161810     9A     -0.949236
      10A     -0.893378    11A     -0.748455    12A     -0.571425
      13A     -0.515011    14A     -0.486803    15A     -0.461887
      16A     -0.440689    17A     -0.421036    18A     -0.358060
      19A     -0.343220    20A     -0.310441    21A     -0.284536
      22A     -0.260581    23A     -0.190693    24A     -0.165531

  @DF-RHF Final Energy:  -341.11077703319427

   => Energetics <=

    Nuclear Repulsion Energy =            233.7544514204350037
    One-Electron Energy =                -941.2065124132841447
    Two-Electron Energy =                 366.3412839596549020
    Total Energy =                       -341.1107770331942675
  Basis Set: (AUG-CC-PVTZ AUX)
    Blend: AUG-CC-PVTZ-RI
    Molecular point group: c1

    Geometry (in Angstrom), charge = -1, multiplicity = 1:

       Center              X                  Y                   Z               Mass
    ------------   -----------------  -----------------  -----------------  -----------------
         O            1.009820610941    -0.726186892677     0.024971211028    15.994914619570
         O            0.027805610941     1.357056107323    -0.180975788972    15.994914619570
         O            2.321054610941    -0.138429892677     0.230440211028    15.994914619570
         C           -1.176559089059    -0.553629492677    -0.334617488972    12.000000000000
         C           -2.423343389059    -0.056694892677     0.390371211028    12.000000000000
         C            0.024808610941     0.121940107323    -0.166927788972    12.000000000000
         H           -1.503727389059    -0.595710892677    -1.481592788972     1.007825032230
         H           -1.118867389059    -1.712804892677    -0.167596788972     1.007825032230
         H           -3.381491389059    -0.534176892677     0.153476211028     1.007825032230
         H           -2.489753389059     1.011312107323     0.173983211028     1.007825032230
         H           -2.242832389059    -0.168880892677     1.464113211028     1.007825032230

  Basis Set: AUG-CC-PVTZ
    Blend: AUG-CC-PVTZ
  Basis Set: (AUG-CC-PVTZ AUX)
    Blend: AUG-CC-PVTZ-JKFIT
	 Reference Energy          =    -341.1107770331942675 [Eh]
	 Singles Energy            =      -0.0000000000000000 [Eh]
	 Same-Spin Energy          =      -0.3311123489373429 [Eh]
	 Opposite-Spin Energy      =      -1.0212794402592893 [Eh]
	 Correlation Energy        =      -1.3523917891966322 [Eh]
	 Total Energy              =    -342.4631688223909123 [Eh]

	 ================> DF-SCS-MP2 Energies <==================
	-----------------------------------------------------------
	 SCS Same-Spin Scale       =       0.3333333333333333 [-]
	 SCS Opposite-Spin Scale   =       1.2000000000000000 [-]
	 SCS Same-Spin Energy      =      -0.1103707829791143 [Eh]
	 SCS Opposite-Spin Energy  =      -1.2255353283111472 [Eh]
	 SCS Correlation Energy    =      -1.3359061112902615 [Eh]
	 SCS Total Energy          =    -342.4466831444845525 [Eh]
	-----------------------------------------------------------

  Dipole Moment: [D]
     X:    -7.8463      Y:    -1.7927      Z:    -0.6263     Total:     8.0728

*** Psi4 exiting successfully. Buy a developer a beer!
