                               Psi4 1.4a3.dev225

  ==> Input File <==

--------------------------------------------------------------------------
#psi4
#
memory 32 gb

molecule  {
-1 1
  O        1.1351350    -0.6918790     0.0330860
  O        0.1531200     1.3913640    -0.1728610
  O        2.4463690    -0.1041220     0.2385550
  C       -1.1465760    -0.6228910    -0.4018730
  C       -2.2644043     0.0141790     0.4176544
  C        0.1501230     0.1562480    -0.1588130
  H       -1.3784130    -0.5614030    -1.4734780
  H       -0.9935530    -1.6784970    -0.1594820
  H       -3.2561770    -0.4998690     0.1615910
  H       -2.3644390     1.0456200     0.1820980
  H       -2.1175180    -0.1345730     1.4722280
units angstrom
no_reorient  #important for SAPT in psi4, default
symmetry c1  #important for SAPT in psi4, default
}

set PROPERTIES_ORIGIN ["COM"]
properties('MP2/aug-cc-pvtz', properties = ['dipole'])
--------------------------------------------------------------------------

    Molecular point group: c1
  Charge       = -1
  Multiplicity = 1
  Basis Set: AUG-CC-PVTZ
    Blend: AUG-CC-PVTZ
  Basis Set: (AUG-CC-PVTZ AUX)
    Blend: AUG-CC-PVTZ-JKFIT

    Orbital Energies [Eh]
    ---------------------

    Doubly Occupied:

       1A    -20.412057     2A    -20.347339     3A    -20.300456
       4A    -11.186317     5A    -11.095792     6A    -11.092641
       7A     -1.256791     8A     -1.159662     9A     -0.939257
      10A     -0.892317    11A     -0.732653    12A     -0.568518
      13A     -0.505699    14A     -0.494797    15A     -0.455315
      16A     -0.437060    17A     -0.398650    18A     -0.381629
      19A     -0.369415    20A     -0.309290    21A     -0.290612
      22A     -0.250886    23A     -0.190202    24A     -0.165689

  @DF-RHF Final Energy:  -341.13663607642462

   => Energetics <=

    Nuclear Repulsion Energy =            231.7811666404590767
    One-Electron Energy =                -937.3695174788466602
    Two-Electron Energy =                 364.4517147619629327
    Total Energy =                       -341.1366360764246224
  Basis Set: (AUG-CC-PVTZ AUX)
    Blend: AUG-CC-PVTZ-RI
    Molecular point group: c1

    Geometry (in Angstrom), charge = -1, multiplicity = 1:

       Center              X                  Y                   Z               Mass
    ------------   -----------------  -----------------  -----------------  -----------------
         O            1.018138371202    -0.717155148620     0.032546963548    15.994914619570
         O            0.036123371202     1.366087851380    -0.173400036452    15.994914619570
         O            2.329372371202    -0.129398148620     0.238015963548    15.994914619570
         C           -1.263572628798    -0.648167148620    -0.402412036452    12.000000000000
         C           -2.381400928798    -0.011097148620     0.417115363548    12.000000000000
         C            0.033126371202     0.130971851380    -0.159352036452    12.000000000000
         H           -1.495409628798    -0.586679148620    -1.474017036452     1.007825032230
         H           -1.110549628798    -1.703773148620    -0.160021036452     1.007825032230
         H           -3.373173628798    -0.525145148620     0.161051963548     1.007825032230
         H           -2.481435628798     1.020343851380     0.181558963548     1.007825032230
         H           -2.234514628798    -0.159849148620     1.471688963548     1.007825032230

  Basis Set: AUG-CC-PVTZ
    Blend: AUG-CC-PVTZ
  Basis Set: (AUG-CC-PVTZ AUX)
    Blend: AUG-CC-PVTZ-JKFIT
	 Reference Energy          =    -341.1366360764246224 [Eh]
	 Singles Energy            =      -0.0000000000000000 [Eh]
	 Same-Spin Energy          =      -0.3295309401449770 [Eh]
	 Opposite-Spin Energy      =      -1.0186109369513163 [Eh]
	 Correlation Energy        =      -1.3481418770962934 [Eh]
	 Total Energy              =    -342.4847779535209042 [Eh]

	 ================> DF-SCS-MP2 Energies <==================
	-----------------------------------------------------------
	 SCS Same-Spin Scale       =       0.3333333333333333 [-]
	 SCS Opposite-Spin Scale   =       1.2000000000000000 [-]
	 SCS Same-Spin Energy      =      -0.1098436467149923 [Eh]
	 SCS Opposite-Spin Energy  =      -1.2223331243415796 [Eh]
	 SCS Correlation Energy    =      -1.3321767710565720 [Eh]
	 SCS Total Energy          =    -342.4688128474812174 [Eh]
	-----------------------------------------------------------

  Dipole Moment: [D]
     X:    -7.7569      Y:    -1.7728      Z:    -0.6999     Total:     7.9877

*** Psi4 exiting successfully. Buy a developer a beer!
