                               Psi4 1.4a3.dev225

  ==> Input File <==

--------------------------------------------------------------------------
#psi4
#
memory 32 gb

molecule  {
-1 1
  O        1.1351350    -0.6918790     0.0330860
  O        0.1531200     1.3913640    -0.1728610
  O        2.4463690    -0.1041220     0.2385550
  C       -1.0798647    -0.6604884    -0.2617609
  C       -2.2980290    -0.0223870     0.3984860
  C        0.1501230     0.1562480    -0.1588130
  H       -1.3784130    -0.5614030    -1.4734780
  H       -0.9935530    -1.6784970    -0.1594820
  H       -3.2561770    -0.4998690     0.1615910
  H       -2.3644390     1.0456200     0.1820980
  H       -2.1175180    -0.1345730     1.4722280
units angstrom
no_reorient  #important for SAPT in psi4, default
symmetry c1  #important for SAPT in psi4, default
}

set PROPERTIES_ORIGIN ["COM"]
properties('MP2/aug-cc-pvtz', properties = ['dipole'])
--------------------------------------------------------------------------

    Molecular point group: c1
  Charge       = -1
  Multiplicity = 1
  Basis Set: AUG-CC-PVTZ
    Blend: AUG-CC-PVTZ
  Basis Set: (AUG-CC-PVTZ AUX)
    Blend: AUG-CC-PVTZ-JKFIT

    Orbital Energies [Eh]
    ---------------------

    Doubly Occupied:

       1A    -20.411450     2A    -20.348751     3A    -20.299822
       4A    -11.187254     5A    -11.100414     6A    -11.097608
       7A     -1.259156     8A     -1.160602     9A     -0.945399
      10A     -0.892359    11A     -0.737172    12A     -0.577914
      13A     -0.515646    14A     -0.482249    15A     -0.459786
      16A     -0.432457    17A     -0.419185    18A     -0.391568
      19A     -0.332515    20A     -0.309388    21A     -0.286124
      22A     -0.257996    23A     -0.189843    24A     -0.164924

  @DF-RHF Final Energy:  -341.11567505601602

   => Energetics <=

    Nuclear Repulsion Energy =            232.4091265822114281
    One-Electron Energy =                -938.5304336246393859
    Two-Electron Energy =                 365.0056319864119132
    Total Energy =                       -341.1156750560160162
  Basis Set: (AUG-CC-PVTZ AUX)
    Blend: AUG-CC-PVTZ-RI
    Molecular point group: c1

    Geometry (in Angstrom), charge = -1, multiplicity = 1:

       Center              X                  Y                   Z               Mass
    ------------   -----------------  -----------------  -----------------  -----------------
         O            1.013678452707    -0.707158270144     0.016244320043    15.994914619570
         O            0.031663452707     1.376084729856    -0.189702679957    15.994914619570
         O            2.324912452707    -0.119401270144     0.221713320043    15.994914619570
         C           -1.201321247293    -0.675767670144    -0.278602579957    12.000000000000
         C           -2.419485547293    -0.037666270144     0.381644320043    12.000000000000
         C            0.028666452707     0.140968729856    -0.175654679957    12.000000000000
         H           -1.499869547293    -0.576682270144    -1.490319679957     1.007825032230
         H           -1.115009547293    -1.693776270144    -0.176323679957     1.007825032230
         H           -3.377633547293    -0.515148270144     0.144749320043     1.007825032230
         H           -2.485895547293     1.030340729856     0.165256320043     1.007825032230
         H           -2.238974547293    -0.149852270144     1.455386320043     1.007825032230

  Basis Set: AUG-CC-PVTZ
    Blend: AUG-CC-PVTZ
  Basis Set: (AUG-CC-PVTZ AUX)
    Blend: AUG-CC-PVTZ-JKFIT
	 Reference Energy          =    -341.1156750560160162 [Eh]
	 Singles Energy            =      -0.0000000000000000 [Eh]
	 Same-Spin Energy          =      -0.3304668751500230 [Eh]
	 Opposite-Spin Energy      =      -1.0203840765392898 [Eh]
	 Correlation Energy        =      -1.3508509516893128 [Eh]
	 Total Energy              =    -342.4665260077053404 [Eh]

	 ================> DF-SCS-MP2 Energies <==================
	-----------------------------------------------------------
	 SCS Same-Spin Scale       =       0.3333333333333333 [-]
	 SCS Opposite-Spin Scale   =       1.2000000000000000 [-]
	 SCS Same-Spin Energy      =      -0.1101556250500077 [Eh]
	 SCS Opposite-Spin Energy  =      -1.2244608918471476 [Eh]
	 SCS Correlation Energy    =      -1.3346165168971553 [Eh]
	 SCS Total Energy          =    -342.4502915729131587 [Eh]
	-----------------------------------------------------------

  Dipole Moment: [D]
     X:    -7.8177      Y:    -1.9027      Z:    -0.4880     Total:     8.0607

*** Psi4 exiting successfully. Buy a developer a beer!
