                               Psi4 1.4a3.dev225

  ==> Input File <==

--------------------------------------------------------------------------
#psi4
#
memory 32 gb

molecule  {
-1 1
  O        1.1351350    -0.6918790     0.0330860
  O        0.1531200     1.3913640    -0.1728610
  O        2.4463690    -0.1041220     0.2385550
  C       -1.1465760    -0.6228910    -0.4018730
  C       -2.2980290    -0.0223870     0.3984860
  C        0.0654918     0.1053962    -0.1746767
  H       -1.3784130    -0.5614030    -1.4734780
  H       -0.9935530    -1.6784970    -0.1594820
  H       -3.2561770    -0.4998690     0.1615910
  H       -2.3644390     1.0456200     0.1820980
  H       -2.1175180    -0.1345730     1.4722280
units angstrom
no_reorient  #important for SAPT in psi4, default
symmetry c1  #important for SAPT in psi4, default
}

set PROPERTIES_ORIGIN ["COM"]
properties('MP2/aug-cc-pvtz', properties = ['dipole'])
--------------------------------------------------------------------------

    Molecular point group: c1
  Charge       = -1
  Multiplicity = 1
  Basis Set: AUG-CC-PVTZ
    Blend: AUG-CC-PVTZ
  Basis Set: (AUG-CC-PVTZ AUX)
    Blend: AUG-CC-PVTZ-JKFIT

    Orbital Energies [Eh]
    ---------------------

    Doubly Occupied:

       1A    -20.407536     2A    -20.342227     3A    -20.299717
       4A    -11.190804     5A    -11.101751     6A    -11.098166
       7A     -1.236289     8A     -1.126761     9A     -0.947821
      10A     -0.896497    11A     -0.754200    12A     -0.574217
      13A     -0.506757    14A     -0.499445    15A     -0.446641
      16A     -0.425512    17A     -0.409546    18A     -0.375776
      19A     -0.365126    20A     -0.312425    21A     -0.273414
      22A     -0.253691    23A     -0.185179    24A     -0.160099

  @DF-RHF Final Energy:  -341.12020367945877

   => Energetics <=

    Nuclear Repulsion Energy =            231.0684911616990291
    One-Electron Energy =                -935.9981976289028580
    Two-Electron Energy =                 363.8095027877450320
    Total Energy =                       -341.1202036794587684
  Basis Set: (AUG-CC-PVTZ AUX)
    Blend: AUG-CC-PVTZ-RI
    Molecular point group: c1

    Geometry (in Angstrom), charge = -1, multiplicity = 1:

       Center              X                  Y                   Z               Mass
    ------------   -----------------  -----------------  -----------------  -----------------
         O            1.034078711873    -0.705371639191     0.037269126318    15.994914619570
         O            0.052063711873     1.377871360809    -0.168677873682    15.994914619570
         O            2.345312711873    -0.117614639191     0.242738126318    15.994914619570
         C           -1.247632288127    -0.636383639191    -0.397689873682    12.000000000000
         C           -2.399085288127    -0.035879639191     0.402669126318    12.000000000000
         C           -0.035564488127     0.091903560809    -0.170493573682    12.000000000000
         H           -1.479469288127    -0.574895639191    -1.469294873682     1.007825032230
         H           -1.094609288127    -1.691989639191    -0.155298873682     1.007825032230
         H           -3.357233288127    -0.513361639191     0.165774126318     1.007825032230
         H           -2.465495288127     1.032127360809     0.186281126318     1.007825032230
         H           -2.218574288127    -0.148065639191     1.476411126318     1.007825032230

  Basis Set: AUG-CC-PVTZ
    Blend: AUG-CC-PVTZ
  Basis Set: (AUG-CC-PVTZ AUX)
    Blend: AUG-CC-PVTZ-JKFIT
	 Reference Energy          =    -341.1202036794587684 [Eh]
	 Singles Energy            =      -0.0000000000000000 [Eh]
	 Same-Spin Energy          =      -0.3319816877407391 [Eh]
	 Opposite-Spin Energy      =      -1.0230679559518563 [Eh]
	 Correlation Energy        =      -1.3550496436925954 [Eh]
	 Total Energy              =    -342.4752533231513780 [Eh]

	 ================> DF-SCS-MP2 Energies <==================
	-----------------------------------------------------------
	 SCS Same-Spin Scale       =       0.3333333333333333 [-]
	 SCS Opposite-Spin Scale   =       1.2000000000000000 [-]
	 SCS Same-Spin Energy      =      -0.1106605625802464 [Eh]
	 SCS Opposite-Spin Energy  =      -1.2276815471422275 [Eh]
	 SCS Correlation Energy    =      -1.3383421097224739 [Eh]
	 SCS Total Energy          =    -342.4585457891812439 [Eh]
	-----------------------------------------------------------

  Dipole Moment: [D]
     X:    -8.1610      Y:    -2.1319      Z:    -0.7654     Total:     8.4695

*** Psi4 exiting successfully. Buy a developer a beer!
