                               Psi4 1.4a3.dev225

  ==> Input File <==

--------------------------------------------------------------------------
#psi4
#
memory 32 gb

molecule  {
-1 1
  O        1.1351350    -0.6918790     0.0330860
  O        0.1531200     1.3913640    -0.1728610
  O        2.4463690    -0.1041220     0.2385550
  C       -1.1465760    -0.6228910    -0.4018730
  C       -2.2980290    -0.0223870     0.3984860
  C       -0.0191394     0.0545444    -0.1905404
  H       -1.3784130    -0.5614030    -1.4734780
  H       -0.9935530    -1.6784970    -0.1594820
  H       -3.2561770    -0.4998690     0.1615910
  H       -2.3644390     1.0456200     0.1820980
  H       -2.1175180    -0.1345730     1.4722280
units angstrom
no_reorient  #important for SAPT in psi4, default
symmetry c1  #important for SAPT in psi4, default
}

set PROPERTIES_ORIGIN ["COM"]
properties('MP2/aug-cc-pvtz', properties = ['dipole'])
--------------------------------------------------------------------------

    Molecular point group: c1
  Charge       = -1
  Multiplicity = 1
  Basis Set: AUG-CC-PVTZ
    Blend: AUG-CC-PVTZ
  Basis Set: (AUG-CC-PVTZ AUX)
    Blend: AUG-CC-PVTZ-JKFIT

    Orbital Energies [Eh]
    ---------------------

    Doubly Occupied:

       1A    -20.403060     2A    -20.337539     3A    -20.298924
       4A    -11.195687     5A    -11.108939     6A    -11.100613
       7A     -1.216054     8A     -1.097574     9A     -0.966234
      10A     -0.894155    11A     -0.776589    12A     -0.584409
      13A     -0.517522    14A     -0.496796    15A     -0.448494
      16A     -0.418051    17A     -0.411796    18A     -0.366482
      19A     -0.359955    20A     -0.315643    21A     -0.256488
      22A     -0.245208    23A     -0.179283    24A     -0.154347

  @DF-RHF Final Energy:  -341.07057698017076

   => Energetics <=

    Nuclear Repulsion Energy =            230.7658704082864460
    One-Electron Energy =                -935.3732127976433048
    Two-Electron Energy =                 363.5367654091861027
    Total Energy =                       -341.0705769801707561
  Basis Set: (AUG-CC-PVTZ AUX)
    Blend: AUG-CC-PVTZ-RI
    Molecular point group: c1

    Geometry (in Angstrom), charge = -1, multiplicity = 1:

       Center              X                  Y                   Z               Mass
    ------------   -----------------  -----------------  -----------------  -----------------
         O            1.045486600692    -0.698517055058     0.039407478674    15.994914619570
         O            0.063471600692     1.384725944942    -0.166539521326    15.994914619570
         O            2.356720600692    -0.110760055058     0.244876478674    15.994914619570
         C           -1.236224399308    -0.629529055058    -0.395551521326    12.000000000000
         C           -2.387677399308    -0.029025055058     0.404807478674    12.000000000000
         C           -0.108787799308     0.047906344942    -0.184218921326    12.000000000000
         H           -1.468061399308    -0.568041055058    -1.467156521326     1.007825032230
         H           -1.083201399308    -1.685135055058    -0.153160521326     1.007825032230
         H           -3.345825399308    -0.506507055058     0.167912478674     1.007825032230
         H           -2.454087399308     1.038981944942     0.188419478674     1.007825032230
         H           -2.207166399308    -0.141211055058     1.478549478674     1.007825032230

  Basis Set: AUG-CC-PVTZ
    Blend: AUG-CC-PVTZ
  Basis Set: (AUG-CC-PVTZ AUX)
    Blend: AUG-CC-PVTZ-JKFIT
	 Reference Energy          =    -341.0705769801707561 [Eh]
	 Singles Energy            =      -0.0000000000000000 [Eh]
	 Same-Spin Energy          =      -0.3357974495843520 [Eh]
	 Opposite-Spin Energy      =      -1.0299665214982348 [Eh]
	 Correlation Energy        =      -1.3657639710825868 [Eh]
	 Total Energy              =    -342.4363409512533281 [Eh]

	 ================> DF-SCS-MP2 Energies <==================
	-----------------------------------------------------------
	 SCS Same-Spin Scale       =       0.3333333333333333 [-]
	 SCS Opposite-Spin Scale   =       1.2000000000000000 [-]
	 SCS Same-Spin Energy      =      -0.1119324831947840 [Eh]
	 SCS Opposite-Spin Energy  =      -1.2359598257978817 [Eh]
	 SCS Correlation Energy    =      -1.3478923089926658 [Eh]
	 SCS Total Energy          =    -342.4184692891633972 [Eh]
	-----------------------------------------------------------

  Dipole Moment: [D]
     X:    -8.4455      Y:    -2.4138      Z:    -0.7969     Total:     8.8197

*** Psi4 exiting successfully. Buy a developer a beer!
