                               Psi4 1.4a3.dev225

  ==> Input File <==

--------------------------------------------------------------------------
#psi4
#
memory 32 gb

molecule  {
-1 1
  O        1.1351350    -0.6918790     0.0330860
  O        0.1531200     1.3913640    -0.1728610
  O        2.4463690    -0.1041220     0.2385550
  C       -1.1465760    -0.6228910    -0.4018730
  C       -2.2813895    -0.0040097     0.4081936
  C        0.1501230     0.1562480    -0.1588130
  H       -1.3784130    -0.5614030    -1.4734780
  H       -0.9935530    -1.6784970    -0.1594820
  H       -3.2561770    -0.4998690     0.1615910
  H       -2.3644390     1.0456200     0.1820980
  H       -2.1175180    -0.1345730     1.4722280
units angstrom
no_reorient  #important for SAPT in psi4, default
symmetry c1  #important for SAPT in psi4, default
}

set PROPERTIES_ORIGIN ["COM"]
properties('MP2/aug-cc-pvtz', properties = ['dipole'])
--------------------------------------------------------------------------

    Molecular point group: c1
  Charge       = -1
  Multiplicity = 1
  Basis Set: AUG-CC-PVTZ
    Blend: AUG-CC-PVTZ
  Basis Set: (AUG-CC-PVTZ AUX)
    Blend: AUG-CC-PVTZ-JKFIT

    Orbital Energies [Eh]
    ---------------------

    Doubly Occupied:

       1A    -20.412141     2A    -20.347373     3A    -20.300573
       4A    -11.186633     5A    -11.095310     6A    -11.092433
       7A     -1.256833     8A     -1.159604     9A     -0.939169
      10A     -0.892160    11A     -0.732398    12A     -0.568466
      13A     -0.505442    14A     -0.493523    15A     -0.454540
      16A     -0.436096    17A     -0.405404    18A     -0.378918
      19A     -0.366547    20A     -0.310270    21A     -0.290667
      22A     -0.251224    23A     -0.190313    24A     -0.165761

  @DF-RHF Final Energy:  -341.13875955885180

   => Energetics <=

    Nuclear Repulsion Energy =            231.6294220934395867
    One-Electron Energy =                -937.0727655117369750
    Two-Electron Energy =                 364.3045838594456427
    Total Energy =                       -341.1387595588518025
  Basis Set: (AUG-CC-PVTZ AUX)
    Blend: AUG-CC-PVTZ-RI
    Molecular point group: c1

    Geometry (in Angstrom), charge = -1, multiplicity = 1:

       Center              X                  Y                   Z               Mass
    ------------   -----------------  -----------------  -----------------  -----------------
         O            1.020427896498    -0.714703397169     0.033822235014    15.994914619570
         O            0.038412896498     1.368539602831    -0.172124764986    15.994914619570
         O            2.331661896498    -0.126946397169     0.239291235014    15.994914619570
         C           -1.261283103502    -0.645715397169    -0.401136764986    12.000000000000
         C           -2.396096603502    -0.026834097169     0.408929835014    12.000000000000
         C            0.035415896498     0.133423602831    -0.158076764986    12.000000000000
         H           -1.493120103502    -0.584227397169    -1.472741764986     1.007825032230
         H           -1.108260103502    -1.701321397169    -0.158745764986     1.007825032230
         H           -3.370884103502    -0.522693397169     0.162327235014     1.007825032230
         H           -2.479146103502     1.022795602831     0.182834235014     1.007825032230
         H           -2.232225103502    -0.157397397169     1.472964235014     1.007825032230

  Basis Set: AUG-CC-PVTZ
    Blend: AUG-CC-PVTZ
  Basis Set: (AUG-CC-PVTZ AUX)
    Blend: AUG-CC-PVTZ-JKFIT
	 Reference Energy          =    -341.1387595588518025 [Eh]
	 Singles Energy            =      -0.0000000000000000 [Eh]
	 Same-Spin Energy          =      -0.3295091867507897 [Eh]
	 Opposite-Spin Energy      =      -1.0185252774728903 [Eh]
	 Correlation Energy        =      -1.3480344642236801 [Eh]
	 Total Energy              =    -342.4867940230755039 [Eh]

	 ================> DF-SCS-MP2 Energies <==================
	-----------------------------------------------------------
	 SCS Same-Spin Scale       =       0.3333333333333333 [-]
	 SCS Opposite-Spin Scale   =       1.2000000000000000 [-]
	 SCS Same-Spin Energy      =      -0.1098363955835965 [Eh]
	 SCS Opposite-Spin Energy  =      -1.2222303329674684 [Eh]
	 SCS Correlation Energy    =      -1.3320667285510650 [Eh]
	 SCS Total Energy          =    -342.4708262874028719 [Eh]
	-----------------------------------------------------------

  Dipole Moment: [D]
     X:    -7.7827      Y:    -1.7925      Z:    -0.7101     Total:     8.0179

*** Psi4 exiting successfully. Buy a developer a beer!
