                               Psi4 1.4a3.dev225

  ==> Input File <==

--------------------------------------------------------------------------
#psi4
#
memory 32 gb

molecule  {
-1 1
  O        1.1351350    -0.6918790     0.0330860
  O        0.1531200     1.3913640    -0.1728610
  O        2.4463690    -0.1041220     0.2385550
  C       -1.1465760    -0.6228910    -0.4018730
  C       -2.2980290    -0.0223870     0.3984860
  C        0.0986843     0.2444437    -0.1906355
  H       -1.3784130    -0.5614030    -1.4734780
  H       -0.9935530    -1.6784970    -0.1594820
  H       -3.2561770    -0.4998690     0.1615910
  H       -2.3644390     1.0456200     0.1820980
  H       -2.1175180    -0.1345730     1.4722280
units angstrom
no_reorient  #important for SAPT in psi4, default
symmetry c1  #important for SAPT in psi4, default
}

set PROPERTIES_ORIGIN ["COM"]
properties('MP2/aug-cc-pvtz', properties = ['dipole'])
--------------------------------------------------------------------------

    Molecular point group: c1
  Charge       = -1
  Multiplicity = 1
  Basis Set: AUG-CC-PVTZ
    Blend: AUG-CC-PVTZ
  Basis Set: (AUG-CC-PVTZ AUX)
    Blend: AUG-CC-PVTZ-JKFIT

    Orbital Energies [Eh]
    ---------------------

    Doubly Occupied:

       1A    -20.388241     2A    -20.371813     3A    -20.282588
       4A    -11.184502     5A    -11.098306     6A    -11.094162
       7A     -1.272415     8A     -1.170463     9A     -0.926065
      10A     -0.875375    11A     -0.732754    12A     -0.571757
      13A     -0.511182    14A     -0.496021    15A     -0.466722
      16A     -0.435722    17A     -0.409741    18A     -0.382058
      19A     -0.364064    20A     -0.313390    21A     -0.302442
      22A     -0.257513    23A     -0.167651    24A     -0.144896

  @DF-RHF Final Energy:  -341.12360932103013

   => Energetics <=

    Nuclear Repulsion Energy =            231.4951951186820622
    One-Electron Energy =                -936.7979253620648024
    Two-Electron Energy =                 364.1791209223525811
    Total Energy =                       -341.1236093210301306
  Basis Set: (AUG-CC-PVTZ AUX)
    Blend: AUG-CC-PVTZ-RI
    Molecular point group: c1

    Geometry (in Angstrom), charge = -1, multiplicity = 1:

       Center              X                  Y                   Z               Mass
    ------------   -----------------  -----------------  -----------------  -----------------
         O            1.029604518554    -0.724114590024     0.039420297708    15.994914619570
         O            0.047589518554     1.359128409976    -0.166526702292    15.994914619570
         O            2.340838518554    -0.136357590024     0.244889297708    15.994914619570
         C           -1.252106481446    -0.655126590024    -0.395538702292    12.000000000000
         C           -2.403559481446    -0.054622590024     0.404820297708    12.000000000000
         C           -0.006846181446     0.212208109976    -0.184301202292    12.000000000000
         H           -1.483943481446    -0.593638590024    -1.467143702292     1.007825032230
         H           -1.099083481446    -1.710732590024    -0.153147702292     1.007825032230
         H           -3.361707481446    -0.532104590024     0.167925297708     1.007825032230
         H           -2.469969481446     1.013384409976     0.188432297708     1.007825032230
         H           -2.223048481446    -0.166808590024     1.478562297708     1.007825032230

  Basis Set: AUG-CC-PVTZ
    Blend: AUG-CC-PVTZ
  Basis Set: (AUG-CC-PVTZ AUX)
    Blend: AUG-CC-PVTZ-JKFIT
	 Reference Energy          =    -341.1236093210301306 [Eh]
	 Singles Energy            =      -0.0000000000000000 [Eh]
	 Same-Spin Energy          =      -0.3300236816706197 [Eh]
	 Opposite-Spin Energy      =      -1.0196766762904506 [Eh]
	 Correlation Energy        =      -1.3497003579610702 [Eh]
	 Total Energy              =    -342.4733096789911997 [Eh]

	 ================> DF-SCS-MP2 Energies <==================
	-----------------------------------------------------------
	 SCS Same-Spin Scale       =       0.3333333333333333 [-]
	 SCS Opposite-Spin Scale   =       1.2000000000000000 [-]
	 SCS Same-Spin Energy      =      -0.1100078938902066 [Eh]
	 SCS Opposite-Spin Energy  =      -1.2236120115485407 [Eh]
	 SCS Correlation Energy    =      -1.3336199054387472 [Eh]
	 SCS Total Energy          =    -342.4572292264688826 [Eh]
	-----------------------------------------------------------

  Dipole Moment: [D]
     X:    -8.5708      Y:    -1.0361      Z:    -0.8942     Total:     8.6794

*** Psi4 exiting successfully. Buy a developer a beer!
