                               Psi4 1.4a3.dev225

  ==> Input File <==

--------------------------------------------------------------------------
#psi4
#
memory 32 gb

molecule  {
-1 1
  O        1.1351350    -0.6918790     0.0330860
  O        0.1531200     1.3913640    -0.1728610
  O        2.4463690    -0.1041220     0.2385550
  C       -1.1465760    -0.6228910    -0.4018730
  C       -2.2980290    -0.0223870     0.3984860
  C        0.1501230     0.1562480    -0.1588130
  H       -1.3784130    -0.5614030    -1.4734780
  H       -0.9935530    -1.6784970    -0.1594820
  H       -3.3435651    -0.5434178     0.1399849
  H       -2.3644390     1.0456200     0.1820980
  H       -2.1175180    -0.1345730     1.4722280
units angstrom
no_reorient  #important for SAPT in psi4, default
symmetry c1  #important for SAPT in psi4, default
}

set PROPERTIES_ORIGIN ["COM"]
properties('MP2/aug-cc-pvtz', properties = ['dipole'])
--------------------------------------------------------------------------

    Molecular point group: c1
  Charge       = -1
  Multiplicity = 1
  Basis Set: AUG-CC-PVTZ
    Blend: AUG-CC-PVTZ
  Basis Set: (AUG-CC-PVTZ AUX)
    Blend: AUG-CC-PVTZ-JKFIT

    Orbital Energies [Eh]
    ---------------------

    Doubly Occupied:

       1A    -20.413343     2A    -20.348794     3A    -20.301640
       4A    -11.188449     5A    -11.108217     6A    -11.093930
       7A     -1.258049     8A     -1.160879     9A     -0.939757
      10A     -0.890131    11A     -0.726763    12A     -0.569548
      13A     -0.504360    14A     -0.492435    15A     -0.455259
      16A     -0.435403    17A     -0.399252    18A     -0.376791
      19A     -0.364710    20A     -0.311466    21A     -0.291827
      22A     -0.252545    23A     -0.191378    24A     -0.166798

  @DF-RHF Final Energy:  -341.13323929959250

   => Energetics <=

    Nuclear Repulsion Energy =            231.0760549131897506
    One-Electron Energy =                -935.9351395049061466
    Two-Electron Energy =                 363.7258452921238927
    Total Energy =                       -341.1332392995925034
  Basis Set: (AUG-CC-PVTZ AUX)
    Blend: AUG-CC-PVTZ-RI
    Molecular point group: c1

    Geometry (in Angstrom), charge = -1, multiplicity = 1:

       Center              X                  Y                   Z               Mass
    ------------   -----------------  -----------------  -----------------  -----------------
         O            1.023660129806    -0.711733214300     0.035375373177    15.994914619570
         O            0.041645129806     1.371509785700    -0.170571626823    15.994914619570
         O            2.334894129806    -0.123976214300     0.240844373177    15.994914619570
         C           -1.258050870194    -0.642745214300    -0.399583626823    12.000000000000
         C           -2.409503870194    -0.042241214300     0.400775373177    12.000000000000
         C            0.038648129806     0.136393785700    -0.156523626823    12.000000000000
         H           -1.489887870194    -0.581257214300    -1.471188626823     1.007825032230
         H           -1.105027870194    -1.698351214300    -0.157192626823     1.007825032230
         H           -3.455039970194    -0.563272014300     0.142274273177     1.007825032230
         H           -2.475913870194     1.025765785700     0.184387373177     1.007825032230
         H           -2.228992870194    -0.154427214300     1.474517373177     1.007825032230

  Basis Set: AUG-CC-PVTZ
    Blend: AUG-CC-PVTZ
  Basis Set: (AUG-CC-PVTZ AUX)
    Blend: AUG-CC-PVTZ-JKFIT
	 Reference Energy          =    -341.1332392995925034 [Eh]
	 Singles Energy            =      -0.0000000000000000 [Eh]
	 Same-Spin Energy          =      -0.3293901211403001 [Eh]
	 Opposite-Spin Energy      =      -1.0190896645810534 [Eh]
	 Correlation Energy        =      -1.3484797857213535 [Eh]
	 Total Energy              =    -342.4817190853138413 [Eh]

	 ================> DF-SCS-MP2 Energies <==================
	-----------------------------------------------------------
	 SCS Same-Spin Scale       =       0.3333333333333333 [-]
	 SCS Opposite-Spin Scale   =       1.2000000000000000 [-]
	 SCS Same-Spin Energy      =      -0.1097967070467667 [Eh]
	 SCS Opposite-Spin Energy  =      -1.2229075974972641 [Eh]
	 SCS Correlation Energy    =      -1.3327043045440308 [Eh]
	 SCS Total Energy          =    -342.4659436041365552 [Eh]
	-----------------------------------------------------------

  Dipole Moment: [D]
     X:    -7.6697      Y:    -1.7751      Z:    -0.7137     Total:     7.9048

*** Psi4 exiting successfully. Buy a developer a beer!
