                               Psi4 1.4a3.dev225

  ==> Input File <==

--------------------------------------------------------------------------
#psi4
#
memory 32 gb

molecule  {
-1 1
  O        1.1351350    -0.6918790     0.0330860
  O        0.1531200     1.3913640    -0.1728610
  O        2.4463690    -0.1041220     0.2385550
  C       -1.1465760    -0.6228910    -0.4018730
  C       -2.2980290    -0.0223870     0.3984860
  C        0.2153660     0.0169765    -0.1133465
  H       -1.3784130    -0.5614030    -1.4734780
  H       -0.9935530    -1.6784970    -0.1594820
  H       -3.2561770    -0.4998690     0.1615910
  H       -2.3644390     1.0456200     0.1820980
  H       -2.1175180    -0.1345730     1.4722280
units angstrom
no_reorient  #important for SAPT in psi4, default
symmetry c1  #important for SAPT in psi4, default
}

set PROPERTIES_ORIGIN ["COM"]
properties('MP2/aug-cc-pvtz', properties = ['dipole'])
--------------------------------------------------------------------------

    Molecular point group: c1
  Charge       = -1
  Multiplicity = 1
  Basis Set: AUG-CC-PVTZ
    Blend: AUG-CC-PVTZ
  Basis Set: (AUG-CC-PVTZ AUX)
    Blend: AUG-CC-PVTZ-JKFIT

    Orbital Energies [Eh]
    ---------------------

    Doubly Occupied:

       1A    -20.444875     2A    -20.330113     3A    -20.308617
       4A    -11.182544     5A    -11.092026     6A    -11.090674
       7A     -1.335538     8A     -1.068648     9A     -0.981216
      10A     -0.895661    11A     -0.733412    12A     -0.584468
      13A     -0.518993    14A     -0.493193    15A     -0.470384
      16A     -0.443720    17A     -0.413550    18A     -0.376138
      19A     -0.357086    20A     -0.292810    21A     -0.246556
      22A     -0.228522    23A     -0.212773    24A     -0.193297

  @DF-RHF Final Energy:  -341.10080896471607

   => Energetics <=

    Nuclear Repulsion Energy =            231.9614472187174385
    One-Electron Energy =                -937.5348852243376996
    Two-Electron Energy =                 364.4726290409041667
    Total Energy =                       -341.1008089647160659
  Basis Set: (AUG-CC-PVTZ AUX)
    Blend: AUG-CC-PVTZ-RI
    Molecular point group: c1

    Geometry (in Angstrom), charge = -1, multiplicity = 1:

       Center              X                  Y                   Z               Mass
    ------------   -----------------  -----------------  -----------------  -----------------
         O            1.013876372660    -0.693453078341     0.029002103012    15.994914619570
         O            0.031861372660     1.389789921659    -0.176944896988    15.994914619570
         O            2.325110372660    -0.105696078341     0.234471103012    15.994914619570
         C           -1.267834627340    -0.624465078341    -0.405956896988    12.000000000000
         C           -2.419287627340    -0.023961078341     0.394402103012    12.000000000000
         C            0.094107372660     0.015402421659    -0.117430396988    12.000000000000
         H           -1.499671627340    -0.562977078341    -1.477561896988     1.007825032230
         H           -1.114811627340    -1.680071078341    -0.163565896988     1.007825032230
         H           -3.377435627340    -0.501443078341     0.157507103012     1.007825032230
         H           -2.485697627340     1.044045921659     0.178014103012     1.007825032230
         H           -2.238776627340    -0.136147078341     1.468144103012     1.007825032230

  Basis Set: AUG-CC-PVTZ
    Blend: AUG-CC-PVTZ
  Basis Set: (AUG-CC-PVTZ AUX)
    Blend: AUG-CC-PVTZ-JKFIT
	 Reference Energy          =    -341.1008089647160659 [Eh]
	 Singles Energy            =      -0.0000000000000000 [Eh]
	 Same-Spin Energy          =      -0.3284330956825802 [Eh]
	 Opposite-Spin Energy      =      -1.0163563905917892 [Eh]
	 Correlation Energy        =      -1.3447894862743692 [Eh]
	 Total Energy              =    -342.4455984509904169 [Eh]

	 ================> DF-SCS-MP2 Energies <==================
	-----------------------------------------------------------
	 SCS Same-Spin Scale       =       0.3333333333333333 [-]
	 SCS Opposite-Spin Scale   =       1.2000000000000000 [-]
	 SCS Same-Spin Energy      =      -0.1094776985608601 [Eh]
	 SCS Opposite-Spin Energy  =      -1.2196276687101471 [Eh]
	 SCS Correlation Energy    =      -1.3291053672710071 [Eh]
	 SCS Total Energy          =    -342.4299143319870495 [Eh]
	-----------------------------------------------------------

  Dipole Moment: [D]
     X:    -6.7716      Y:    -2.9873      Z:    -0.4950     Total:     7.4178

*** Psi4 exiting successfully. Buy a developer a beer!
