                               Psi4 1.4a3.dev225

  ==> Input File <==

--------------------------------------------------------------------------
#psi4
#
memory 32 gb

molecule  {
-1 1
  O        1.1351350    -0.6918790     0.0330860
  O        0.1531200     1.3913640    -0.1728610
  O        2.4463690    -0.1041220     0.2385550
  C       -1.1133426    -0.5890442    -0.3776850
  C       -2.2980290    -0.0223870     0.3984860
  C        0.1501230     0.1562480    -0.1588130
  H       -1.3784130    -0.5614030    -1.4734780
  H       -0.9935530    -1.6784970    -0.1594820
  H       -3.2561770    -0.4998690     0.1615910
  H       -2.3644390     1.0456200     0.1820980
  H       -2.1175180    -0.1345730     1.4722280
units angstrom
no_reorient  #important for SAPT in psi4, default
symmetry c1  #important for SAPT in psi4, default
}

set PROPERTIES_ORIGIN ["COM"]
properties('MP2/aug-cc-pvtz', properties = ['dipole'])
--------------------------------------------------------------------------

    Molecular point group: c1
  Charge       = -1
  Multiplicity = 1
  Basis Set: AUG-CC-PVTZ
    Blend: AUG-CC-PVTZ
  Basis Set: (AUG-CC-PVTZ AUX)
    Blend: AUG-CC-PVTZ-JKFIT

    Orbital Energies [Eh]
    ---------------------

    Doubly Occupied:

       1A    -20.412134     2A    -20.346567     3A    -20.300790
       4A    -11.184756     5A    -11.096059     6A    -11.095004
       7A     -1.258022     8A     -1.160117     9A     -0.942066
      10A     -0.892339    11A     -0.736197    12A     -0.570083
      13A     -0.509257    14A     -0.489342    15A     -0.455573
      16A     -0.437353    17A     -0.415193    18A     -0.370173
      19A     -0.355795    20A     -0.311995    21A     -0.289473
      22A     -0.255769    23A     -0.190517    24A     -0.165768

  @DF-RHF Final Energy:  -341.13628096753138

   => Energetics <=

    Nuclear Repulsion Energy =            232.2228906716137260
    One-Electron Energy =                -938.2376577183117661
    Two-Electron Energy =                 364.8784860791666347
    Total Energy =                       -341.1362809675313770
  Basis Set: (AUG-CC-PVTZ AUX)
    Blend: AUG-CC-PVTZ-RI
    Molecular point group: c1

    Geometry (in Angstrom), charge = -1, multiplicity = 1:

       Center              X                  Y                   Z               Mass
    ------------   -----------------  -----------------  -----------------  -----------------
         O            1.018191116607    -0.716788613214     0.031870345011    15.994914619570
         O            0.036176116607     1.366454386786    -0.174076654989    15.994914619570
         O            2.329425116607    -0.129031613214     0.237339345011    15.994914619570
         C           -1.230286483393    -0.613953813214    -0.378900654989    12.000000000000
         C           -2.414972883393    -0.047296613214     0.397270345011    12.000000000000
         C            0.033179116607     0.131338386786    -0.160028654989    12.000000000000
         H           -1.495356883393    -0.586312613214    -1.474693654989     1.007825032230
         H           -1.110496883393    -1.703406613214    -0.160697654989     1.007825032230
         H           -3.373120883393    -0.524778613214     0.160375345011     1.007825032230
         H           -2.481382883393     1.020710386786     0.180882345011     1.007825032230
         H           -2.234461883393    -0.159482613214     1.471012345011     1.007825032230

  Basis Set: AUG-CC-PVTZ
    Blend: AUG-CC-PVTZ
  Basis Set: (AUG-CC-PVTZ AUX)
    Blend: AUG-CC-PVTZ-JKFIT
	 Reference Energy          =    -341.1362809675313770 [Eh]
	 Singles Energy            =      -0.0000000000000000 [Eh]
	 Same-Spin Energy          =      -0.3297872493294750 [Eh]
	 Opposite-Spin Energy      =      -1.0189659819725680 [Eh]
	 Correlation Energy        =      -1.3487532313020432 [Eh]
	 Total Energy              =    -342.4850341988334321 [Eh]

	 ================> DF-SCS-MP2 Energies <==================
	-----------------------------------------------------------
	 SCS Same-Spin Scale       =       0.3333333333333333 [-]
	 SCS Opposite-Spin Scale   =       1.2000000000000000 [-]
	 SCS Same-Spin Energy      =      -0.1099290831098250 [Eh]
	 SCS Opposite-Spin Energy  =      -1.2227591783670817 [Eh]
	 SCS Correlation Energy    =      -1.3326882614769067 [Eh]
	 SCS Total Energy          =    -342.4689692290082803 [Eh]
	-----------------------------------------------------------

  Dipole Moment: [D]
     X:    -7.8238      Y:    -1.8153      Z:    -0.6956     Total:     8.0617

*** Psi4 exiting successfully. Buy a developer a beer!
