                               Psi4 1.4a3.dev225

  ==> Input File <==

--------------------------------------------------------------------------
#psi4
#
memory 32 gb

molecule  {
-1 1
  O        1.1351350    -0.6918790     0.0330860
  O        0.1531200     1.3913640    -0.1728610
  O        2.4463690    -0.1041220     0.2385550
  C       -1.1465760    -0.6228910    -0.4018730
  C       -2.2980290    -0.0223870     0.3984860
  C        0.1734878     0.1106991    -0.1433364
  H       -1.3784130    -0.5614030    -1.4734780
  H       -0.9935530    -1.6784970    -0.1594820
  H       -3.2561770    -0.4998690     0.1615910
  H       -2.3644390     1.0456200     0.1820980
  H       -2.1175180    -0.1345730     1.4722280
units angstrom
no_reorient  #important for SAPT in psi4, default
symmetry c1  #important for SAPT in psi4, default
}

set PROPERTIES_ORIGIN ["COM"]
properties('MP2/aug-cc-pvtz', properties = ['dipole'])
--------------------------------------------------------------------------

    Molecular point group: c1
  Charge       = -1
  Multiplicity = 1
  Basis Set: AUG-CC-PVTZ
    Blend: AUG-CC-PVTZ
  Basis Set: (AUG-CC-PVTZ AUX)
    Blend: AUG-CC-PVTZ-JKFIT

    Orbital Energies [Eh]
    ---------------------

    Doubly Occupied:

       1A    -20.423713     2A    -20.334612     3A    -20.310363
       4A    -11.186808     5A    -11.093620     6A    -11.091984
       7A     -1.277648     8A     -1.130657     9A     -0.951728
      10A     -0.895111    11A     -0.732537    12A     -0.570994
      13A     -0.508332    14A     -0.491986    15A     -0.451680
      16A     -0.437333    17A     -0.415773    18A     -0.375199
      19A     -0.360522    20A     -0.311378    21A     -0.274640
      22A     -0.243230    23A     -0.201059    24A     -0.176319

  @DF-RHF Final Energy:  -341.13496944917642

   => Energetics <=

    Nuclear Repulsion Energy =            231.5729761064184515
    One-Electron Energy =                -936.9214392718413364
    Two-Electron Energy =                 364.2134937162464894
    Total Energy =                       -341.1349694491764240
  Basis Set: (AUG-CC-PVTZ AUX)
    Blend: AUG-CC-PVTZ-RI
    Molecular point group: c1

    Geometry (in Angstrom), charge = -1, multiplicity = 1:

       Center              X                  Y                   Z               Mass
    ------------   -----------------  -----------------  -----------------  -----------------
         O            1.019521357601    -0.706086445239     0.033044600872    15.994914619570
         O            0.037506357601     1.377156554761    -0.172902399128    15.994914619570
         O            2.330755357601    -0.118329445239     0.238513600872    15.994914619570
         C           -1.262189642399    -0.637098445239    -0.401914399128    12.000000000000
         C           -2.413642642399    -0.036594445239     0.398444600872    12.000000000000
         C            0.057874157601     0.096491654761    -0.143377799128    12.000000000000
         H           -1.494026642399    -0.575610445239    -1.473519399128     1.007825032230
         H           -1.109166642399    -1.692704445239    -0.159523399128     1.007825032230
         H           -3.371790642399    -0.514076445239     0.161549600872     1.007825032230
         H           -2.480052642399     1.031412554761     0.182056600872     1.007825032230
         H           -2.233131642399    -0.148780445239     1.472186600872     1.007825032230

  Basis Set: AUG-CC-PVTZ
    Blend: AUG-CC-PVTZ
  Basis Set: (AUG-CC-PVTZ AUX)
    Blend: AUG-CC-PVTZ-JKFIT
	 Reference Energy          =    -341.1349694491764240 [Eh]
	 Singles Energy            =      -0.0000000000000000 [Eh]
	 Same-Spin Energy          =      -0.3292424459963632 [Eh]
	 Opposite-Spin Energy      =      -1.0179302714986140 [Eh]
	 Correlation Energy        =      -1.3471727174949772 [Eh]
	 Total Energy              =    -342.4821421666713945 [Eh]

	 ================> DF-SCS-MP2 Energies <==================
	-----------------------------------------------------------
	 SCS Same-Spin Scale       =       0.3333333333333333 [-]
	 SCS Opposite-Spin Scale   =       1.2000000000000000 [-]
	 SCS Same-Spin Energy      =      -0.1097474819987877 [Eh]
	 SCS Opposite-Spin Energy  =      -1.2215163257983368 [Eh]
	 SCS Correlation Energy    =      -1.3312638077971246 [Eh]
	 SCS Total Energy          =    -342.4662332569735668 [Eh]
	-----------------------------------------------------------

  Dipole Moment: [D]
     X:    -7.4449      Y:    -2.1978      Z:    -0.6416     Total:     7.7890

*** Psi4 exiting successfully. Buy a developer a beer!
