                               Psi4 1.4a3.dev225

  ==> Input File <==

--------------------------------------------------------------------------
#psi4
#
memory 32 gb

molecule  {
-1 1
  O        1.1351350    -0.6918790     0.0330860
  O        0.1531200     1.3913640    -0.1728610
  O        2.4463690    -0.1041220     0.2385550
  C       -1.1716567    -0.6088740    -0.4467016
  C       -2.2980290    -0.0223870     0.3984860
  C        0.1501230     0.1562480    -0.1588130
  H       -1.3784130    -0.5614030    -1.4734780
  H       -0.9935530    -1.6784970    -0.1594820
  H       -3.2561770    -0.4998690     0.1615910
  H       -2.3644390     1.0456200     0.1820980
  H       -2.1175180    -0.1345730     1.4722280
units angstrom
no_reorient  #important for SAPT in psi4, default
symmetry c1  #important for SAPT in psi4, default
}

set PROPERTIES_ORIGIN ["COM"]
properties('MP2/aug-cc-pvtz', properties = ['dipole'])
--------------------------------------------------------------------------

    Molecular point group: c1
  Charge       = -1
  Multiplicity = 1
  Basis Set: AUG-CC-PVTZ
    Blend: AUG-CC-PVTZ
  Basis Set: (AUG-CC-PVTZ AUX)
    Blend: AUG-CC-PVTZ-JKFIT

    Orbital Energies [Eh]
    ---------------------

    Doubly Occupied:

       1A    -20.412723     2A    -20.347238     3A    -20.301268
       4A    -11.187717     5A    -11.094929     6A    -11.091182
       7A     -1.256464     8A     -1.159469     9A     -0.937481
      10A     -0.892669    11A     -0.731996    12A     -0.568157
      13A     -0.504161    14A     -0.493639    15A     -0.452459
      16A     -0.436357    17A     -0.409989    18A     -0.383407
      19A     -0.360236    20A     -0.311083    21A     -0.291172
      22A     -0.248512    23A     -0.190883    24A     -0.166314

  @DF-RHF Final Energy:  -341.13662284473912

   => Energetics <=

    Nuclear Repulsion Energy =            231.1285824745126831
    One-Electron Energy =                -936.0714002588393896
    Two-Electron Energy =                 363.8061949395876127
    Total Energy =                       -341.1366228447391222
  Basis Set: (AUG-CC-PVTZ AUX)
    Blend: AUG-CC-PVTZ-RI
    Molecular point group: c1

    Geometry (in Angstrom), charge = -1, multiplicity = 1:

       Center              X                  Y                   Z               Mass
    ------------   -----------------  -----------------  -----------------  -----------------
         O            1.026051583780    -0.714115649180     0.041173458986    15.994914619570
         O            0.044036583780     1.369127350820    -0.164773541014    15.994914619570
         O            2.337285583780    -0.126358649180     0.246642458986    15.994914619570
         C           -1.280740116220    -0.631110649180    -0.438614141014    12.000000000000
         C           -2.407112416220    -0.044623649180     0.406573458986    12.000000000000
         C            0.041039583780     0.134011350820    -0.150725541014    12.000000000000
         H           -1.487496416220    -0.583639649180    -1.465390541014     1.007825032230
         H           -1.102636416220    -1.700733649180    -0.151394541014     1.007825032230
         H           -3.365260416220    -0.522105649180     0.169678458986     1.007825032230
         H           -2.473522416220     1.023383350820     0.190185458986     1.007825032230
         H           -2.226601416220    -0.156809649180     1.480315458986     1.007825032230

  Basis Set: AUG-CC-PVTZ
    Blend: AUG-CC-PVTZ
  Basis Set: (AUG-CC-PVTZ AUX)
    Blend: AUG-CC-PVTZ-JKFIT
	 Reference Energy          =    -341.1366228447391222 [Eh]
	 Singles Energy            =      -0.0000000000000000 [Eh]
	 Same-Spin Energy          =      -0.3293973803222189 [Eh]
	 Opposite-Spin Energy      =      -1.0184375322346790 [Eh]
	 Correlation Energy        =      -1.3478349125568978 [Eh]
	 Total Energy              =    -342.4844577572960134 [Eh]

	 ================> DF-SCS-MP2 Energies <==================
	-----------------------------------------------------------
	 SCS Same-Spin Scale       =       0.3333333333333333 [-]
	 SCS Opposite-Spin Scale   =       1.2000000000000000 [-]
	 SCS Same-Spin Energy      =      -0.1097991267740730 [Eh]
	 SCS Opposite-Spin Energy  =      -1.2221250386816147 [Eh]
	 SCS Correlation Energy    =      -1.3319241654556877 [Eh]
	 SCS Total Energy          =    -342.4685470101948113 [Eh]
	-----------------------------------------------------------

  Dipole Moment: [D]
     X:    -7.7859      Y:    -1.7657      Z:    -0.7755     Total:     8.0212

*** Psi4 exiting successfully. Buy a developer a beer!
