                               Psi4 1.4a3.dev225

  ==> Input File <==

--------------------------------------------------------------------------
#psi4
#
memory 32 gb

molecule  {
-1 1
  O        1.1351350    -0.6918790     0.0330860
  O        0.1531200     1.3913640    -0.1728610
  O        2.4463690    -0.1041220     0.2385550
  C       -1.1812122    -0.6560062    -0.4250859
  C       -2.2980290    -0.0223870     0.3984860
  C        0.1501230     0.1562480    -0.1588130
  H       -1.3784130    -0.5614030    -1.4734780
  H       -0.9935530    -1.6784970    -0.1594820
  H       -3.2561770    -0.4998690     0.1615910
  H       -2.3644390     1.0456200     0.1820980
  H       -2.1175180    -0.1345730     1.4722280
units angstrom
no_reorient  #important for SAPT in psi4, default
symmetry c1  #important for SAPT in psi4, default
}

set PROPERTIES_ORIGIN ["COM"]
properties('MP2/aug-cc-pvtz', properties = ['dipole'])
--------------------------------------------------------------------------

    Molecular point group: c1
  Charge       = -1
  Multiplicity = 1
  Basis Set: AUG-CC-PVTZ
    Blend: AUG-CC-PVTZ
  Basis Set: (AUG-CC-PVTZ AUX)
    Blend: AUG-CC-PVTZ-JKFIT

    Orbital Energies [Eh]
    ---------------------

    Doubly Occupied:

       1A    -20.412479     2A    -20.348460     3A    -20.300729
       4A    -11.189014     5A    -11.094536     6A    -11.090265
       7A     -1.256034     8A     -1.159304     9A     -0.936653
      10A     -0.892101    11A     -0.729979    12A     -0.566524
      13A     -0.502501    14A     -0.495557    15A     -0.452979
      16A     -0.434082    17A     -0.408481    18A     -0.381650
      19A     -0.370206    20A     -0.309868    21A     -0.291648
      22A     -0.246090    23A     -0.190445    24A     -0.166008

  @DF-RHF Final Energy:  -341.13709543047133

   => Energetics <=

    Nuclear Repulsion Energy =            230.7560901243104468
    One-Electron Energy =                -935.3351868626064061
    Two-Electron Energy =                 363.4420013078245688
    Total Energy =                       -341.1370954304713337
  Basis Set: (AUG-CC-PVTZ AUX)
    Blend: AUG-CC-PVTZ-RI
    Molecular point group: c1

    Geometry (in Angstrom), charge = -1, multiplicity = 1:

       Center              X                  Y                   Z               Mass
    ------------   -----------------  -----------------  -----------------  -----------------
         O            1.027339620362    -0.707762449682     0.038259764009    15.994914619570
         O            0.045324620362     1.375480550318    -0.167687235991    15.994914619570
         O            2.338573620362    -0.120005449682     0.243728764009    15.994914619570
         C           -1.289007579638    -0.671889649682    -0.419912135991    12.000000000000
         C           -2.405824379638    -0.038270449682     0.403659764009    12.000000000000
         C            0.042327620362     0.140364550318    -0.153639235991    12.000000000000
         H           -1.486208379638    -0.577286449682    -1.468304235991     1.007825032230
         H           -1.101348379638    -1.694380449682    -0.154308235991     1.007825032230
         H           -3.363972379638    -0.515752449682     0.166764764009     1.007825032230
         H           -2.472234379638     1.029736550318     0.187271764009     1.007825032230
         H           -2.225313379638    -0.150456449682     1.477401764009     1.007825032230

  Basis Set: AUG-CC-PVTZ
    Blend: AUG-CC-PVTZ
  Basis Set: (AUG-CC-PVTZ AUX)
    Blend: AUG-CC-PVTZ-JKFIT
	 Reference Energy          =    -341.1370954304713337 [Eh]
	 Singles Energy            =      -0.0000000000000000 [Eh]
	 Same-Spin Energy          =      -0.3294709106167377 [Eh]
	 Opposite-Spin Energy      =      -1.0184962441733920 [Eh]
	 Correlation Energy        =      -1.3479671547901297 [Eh]
	 Total Energy              =    -342.4850625852614598 [Eh]

	 ================> DF-SCS-MP2 Energies <==================
	-----------------------------------------------------------
	 SCS Same-Spin Scale       =       0.3333333333333333 [-]
	 SCS Opposite-Spin Scale   =       1.2000000000000000 [-]
	 SCS Same-Spin Energy      =      -0.1098236368722459 [Eh]
	 SCS Opposite-Spin Energy  =      -1.2221954930080703 [Eh]
	 SCS Correlation Energy    =      -1.3320191298803161 [Eh]
	 SCS Total Energy          =    -342.4691145603516702 [Eh]
	-----------------------------------------------------------

  Dipole Moment: [D]
     X:    -7.7737      Y:    -1.7982      Z:    -0.7398     Total:     8.0132

*** Psi4 exiting successfully. Buy a developer a beer!
