                               Psi4 1.4a3.dev225

  ==> Input File <==

--------------------------------------------------------------------------
#psi4
#
memory 32 gb

molecule  {
-1 1
  O        1.1351350    -0.6918790     0.0330860
  O        0.2798405     1.3845708    -0.1481254
  O        2.4463690    -0.1041220     0.2385550
  C       -1.1465760    -0.6228910    -0.4018730
  C       -2.2980290    -0.0223870     0.3984860
  C        0.1501230     0.1562480    -0.1588130
  H       -1.3784130    -0.5614030    -1.4734780
  H       -0.9935530    -1.6784970    -0.1594820
  H       -3.2561770    -0.4998690     0.1615910
  H       -2.3644390     1.0456200     0.1820980
  H       -2.1175180    -0.1345730     1.4722280
units angstrom
no_reorient  #important for SAPT in psi4, default
symmetry c1  #important for SAPT in psi4, default
}

set PROPERTIES_ORIGIN ["COM"]
properties('MP2/aug-cc-pvtz', properties = ['dipole'])
--------------------------------------------------------------------------

    Molecular point group: c1
  Charge       = -1
  Multiplicity = 1
  Basis Set: AUG-CC-PVTZ
    Blend: AUG-CC-PVTZ
  Basis Set: (AUG-CC-PVTZ AUX)
    Blend: AUG-CC-PVTZ-JKFIT

    Orbital Energies [Eh]
    ---------------------

    Doubly Occupied:

       1A    -20.404419     2A    -20.343245     3A    -20.295943
       4A    -11.183697     5A    -11.099419     6A    -11.098600
       7A     -1.255057     8A     -1.149558     9A     -0.938256
      10A     -0.893381    11A     -0.736053    12A     -0.567124
      13A     -0.505085    14A     -0.495110    15A     -0.450417
      16A     -0.434169    17A     -0.413159    18A     -0.379366
      19A     -0.366380    20A     -0.306078    21A     -0.284341
      22A     -0.250723    23A     -0.185438    24A     -0.160452

  @DF-RHF Final Energy:  -341.13694712103199

   => Energetics <=

    Nuclear Repulsion Energy =            231.6067554014418590
    One-Electron Energy =                -937.0964598400566956
    Two-Electron Energy =                 364.3527573175828138
    Total Energy =                       -341.1369471210319944
  Basis Set: (AUG-CC-PVTZ AUX)
    Blend: AUG-CC-PVTZ-RI
    Molecular point group: c1

    Geometry (in Angstrom), charge = -1, multiplicity = 1:

       Center              X                  Y                   Z               Mass
    ------------   -----------------  -----------------  -----------------  -----------------
         O            0.999902956409    -0.711005689379     0.030686529802    15.994914619570
         O            0.144608456409     1.365444110621    -0.150524870198    15.994914619570
         O            2.311136956409    -0.123248689379     0.236155529802    15.994914619570
         C           -1.281808043591    -0.642017689379    -0.404272470198    12.000000000000
         C           -2.433261043591    -0.041513689379     0.396086529802    12.000000000000
         C            0.014890956409     0.137121310621    -0.161212470198    12.000000000000
         H           -1.513645043591    -0.580529689379    -1.475877470198     1.007825032230
         H           -1.128785043591    -1.697623689379    -0.161881470198     1.007825032230
         H           -3.391409043591    -0.518995689379     0.159191529802     1.007825032230
         H           -2.499671043591     1.026493310621     0.179698529802     1.007825032230
         H           -2.252750043591    -0.153699689379     1.469828529802     1.007825032230

  Basis Set: AUG-CC-PVTZ
    Blend: AUG-CC-PVTZ
  Basis Set: (AUG-CC-PVTZ AUX)
    Blend: AUG-CC-PVTZ-JKFIT
	 Reference Energy          =    -341.1369471210319944 [Eh]
	 Singles Energy            =      -0.0000000000000000 [Eh]
	 Same-Spin Energy          =      -0.3297317899891961 [Eh]
	 Opposite-Spin Energy      =      -1.0187324562711089 [Eh]
	 Correlation Energy        =      -1.3484642462603049 [Eh]
	 Total Energy              =    -342.4854113672922722 [Eh]

	 ================> DF-SCS-MP2 Energies <==================
	-----------------------------------------------------------
	 SCS Same-Spin Scale       =       0.3333333333333333 [-]
	 SCS Opposite-Spin Scale   =       1.2000000000000000 [-]
	 SCS Same-Spin Energy      =      -0.1099105966630654 [Eh]
	 SCS Opposite-Spin Energy  =      -1.2224789475253306 [Eh]
	 SCS Correlation Energy    =      -1.3323895441883959 [Eh]
	 SCS Total Energy          =    -342.4693366652203963 [Eh]
	-----------------------------------------------------------

  Dipole Moment: [D]
     X:    -8.0750      Y:    -1.8383      Z:    -0.7538     Total:     8.3158

*** Psi4 exiting successfully. Buy a developer a beer!
