                               Psi4 1.4a3.dev225

  ==> Input File <==

--------------------------------------------------------------------------
#psi4
#
memory 32 gb

molecule  {
-1 1
  O        1.1351350    -0.6918790     0.0330860
  O        0.1531200     1.3913640    -0.1728610
  O        2.4463690    -0.1041220     0.2385550
  C       -1.1465760    -0.6228910    -0.4018730
  C       -2.2980290    -0.0223870     0.3984860
  C        0.0751557     0.2207972    -0.1734180
  H       -1.3784130    -0.5614030    -1.4734780
  H       -0.9935530    -1.6784970    -0.1594820
  H       -3.2561770    -0.4998690     0.1615910
  H       -2.3644390     1.0456200     0.1820980
  H       -2.1175180    -0.1345730     1.4722280
units angstrom
no_reorient  #important for SAPT in psi4, default
symmetry c1  #important for SAPT in psi4, default
}

set PROPERTIES_ORIGIN ["COM"]
properties('MP2/aug-cc-pvtz', properties = ['dipole'])
--------------------------------------------------------------------------

    Molecular point group: c1
  Charge       = -1
  Multiplicity = 1
  Basis Set: AUG-CC-PVTZ
    Blend: AUG-CC-PVTZ
  Basis Set: (AUG-CC-PVTZ AUX)
    Blend: AUG-CC-PVTZ-JKFIT

    Orbital Energies [Eh]
    ---------------------

    Doubly Occupied:

       1A    -20.389191     2A    -20.367736     3A    -20.284082
       4A    -11.186161     5A    -11.099913     6A    -11.096325
       7A     -1.256265     8A     -1.166141     9A     -0.931681
      10A     -0.877268    11A     -0.738443    12A     -0.573032
      13A     -0.508447    14A     -0.498042    15A     -0.461603
      16A     -0.431919    17A     -0.408407    18A     -0.382795
      19A     -0.364088    20A     -0.307511    21A     -0.301242
      22A     -0.261693    23A     -0.168694    24A     -0.145477

  @DF-RHF Final Energy:  -341.12594213235133

   => Energetics <=

    Nuclear Repulsion Energy =            231.3636596195102300
    One-Electron Energy =                -936.5668912454559631
    Two-Electron Energy =                 364.0772894935943782
    Total Energy =                       -341.1259421323513266
  Basis Set: (AUG-CC-PVTZ AUX)
    Blend: AUG-CC-PVTZ-RI
    Molecular point group: c1

    Geometry (in Angstrom), charge = -1, multiplicity = 1:

       Center              X                  Y                   Z               Mass
    ------------   -----------------  -----------------  -----------------  -----------------
         O            1.032776063479    -0.720927152732     0.037099459462    15.994914619570
         O            0.050761063479     1.362315847268    -0.168847540538    15.994914619570
         O            2.344010063479    -0.133170152732     0.242568459462    15.994914619570
         C           -1.248934936521    -0.651939152732    -0.397859540538    12.000000000000
         C           -2.400387936521    -0.051435152732     0.402499459462    12.000000000000
         C           -0.027203236521     0.191749047268    -0.169404540538    12.000000000000
         H           -1.480771936521    -0.590451152732    -1.469464540538     1.007825032230
         H           -1.095911936521    -1.707545152732    -0.155468540538     1.007825032230
         H           -3.358535936521    -0.528917152732     0.165604459462     1.007825032230
         H           -2.466797936521     1.016571847268     0.186111459462     1.007825032230
         H           -2.219876936521    -0.163621152732     1.476241459462     1.007825032230

  Basis Set: AUG-CC-PVTZ
    Blend: AUG-CC-PVTZ
  Basis Set: (AUG-CC-PVTZ AUX)
    Blend: AUG-CC-PVTZ-JKFIT
	 Reference Energy          =    -341.1259421323513266 [Eh]
	 Singles Energy            =      -0.0000000000000000 [Eh]
	 Same-Spin Energy          =      -0.3306445765520518 [Eh]
	 Opposite-Spin Energy      =      -1.0207852692863599 [Eh]
	 Correlation Energy        =      -1.3514298458384117 [Eh]
	 Total Energy              =    -342.4773719781897512 [Eh]

	 ================> DF-SCS-MP2 Energies <==================
	-----------------------------------------------------------
	 SCS Same-Spin Scale       =       0.3333333333333333 [-]
	 SCS Opposite-Spin Scale   =       1.2000000000000000 [-]
	 SCS Same-Spin Energy      =      -0.1102148588506839 [Eh]
	 SCS Opposite-Spin Energy  =      -1.2249423231436318 [Eh]
	 SCS Correlation Energy    =      -1.3351571819943158 [Eh]
	 SCS Total Energy          =    -342.4610993143456312 [Eh]
	-----------------------------------------------------------

  Dipole Moment: [D]
     X:    -8.6142      Y:    -1.2315      Z:    -0.8657     Total:     8.7448

*** Psi4 exiting successfully. Buy a developer a beer!
