                               Psi4 1.4a3.dev225

  ==> Input File <==

--------------------------------------------------------------------------
#psi4
#
memory 32 gb

molecule  {
-1 1
  O        1.1351350    -0.6918790     0.0330860
  O        0.1531200     1.3913640    -0.1728610
  O        2.4463690    -0.1041220     0.2385550
  C       -1.1465760    -0.6228910    -0.4018730
  C       -2.3302508    -0.0596846     0.3783425
  C        0.1501230     0.1562480    -0.1588130
  H       -1.3784130    -0.5614030    -1.4734780
  H       -0.9935530    -1.6784970    -0.1594820
  H       -3.2561770    -0.4998690     0.1615910
  H       -2.3644390     1.0456200     0.1820980
  H       -2.1175180    -0.1345730     1.4722280
units angstrom
no_reorient  #important for SAPT in psi4, default
symmetry c1  #important for SAPT in psi4, default
}

set PROPERTIES_ORIGIN ["COM"]
properties('MP2/aug-cc-pvtz', properties = ['dipole'])
--------------------------------------------------------------------------

    Molecular point group: c1
  Charge       = -1
  Multiplicity = 1
  Basis Set: AUG-CC-PVTZ
    Blend: AUG-CC-PVTZ
  Basis Set: (AUG-CC-PVTZ AUX)
    Blend: AUG-CC-PVTZ-JKFIT

    Orbital Energies [Eh]
    ---------------------

    Doubly Occupied:

       1A    -20.412688     2A    -20.347838     3A    -20.301165
       4A    -11.188010     5A    -11.095395     6A    -11.092540
       7A     -1.257280     8A     -1.159816     9A     -0.939308
      10A     -0.892394    11A     -0.733362    12A     -0.568465
      13A     -0.507802    14A     -0.489813    15A     -0.453370
      16A     -0.438251    17A     -0.420576    18A     -0.370416
      19A     -0.355118    20A     -0.312867    21A     -0.290949
      22A     -0.252370    23A     -0.190883    24A     -0.166227

  @DF-RHF Final Energy:  -341.13618497727782

   => Energetics <=

    Nuclear Repulsion Energy =            231.1987476231111884
    One-Electron Energy =                -936.1960603910723648
    Two-Electron Energy =                 363.8611277906833266
    Total Energy =                       -341.1361849772778214
  Basis Set: (AUG-CC-PVTZ AUX)
    Blend: AUG-CC-PVTZ-RI
    Molecular point group: c1

    Geometry (in Angstrom), charge = -1, multiplicity = 1:

       Center              X                  Y                   Z               Mass
    ------------   -----------------  -----------------  -----------------  -----------------
         O            1.027014170566    -0.707198681778     0.037846023285    15.994914619570
         O            0.044999170566     1.376044318222    -0.168100976715    15.994914619570
         O            2.338248170566    -0.119441681778     0.243315023285    15.994914619570
         C           -1.254696829434    -0.638210681778    -0.397112976715    12.000000000000
         C           -2.438371629434    -0.075004281778     0.383102523285    12.000000000000
         C            0.042002170566     0.140928318222    -0.154052976715    12.000000000000
         H           -1.486533829434    -0.576722681778    -1.468717976715     1.007825032230
         H           -1.101673829434    -1.693816681778    -0.154721976715     1.007825032230
         H           -3.364297829434    -0.515188681778     0.166351023285     1.007825032230
         H           -2.472559829434     1.030300318222     0.186858023285     1.007825032230
         H           -2.225638829434    -0.149892681778     1.476988023285     1.007825032230

  Basis Set: AUG-CC-PVTZ
    Blend: AUG-CC-PVTZ
  Basis Set: (AUG-CC-PVTZ AUX)
    Blend: AUG-CC-PVTZ-JKFIT
	 Reference Energy          =    -341.1361849772778214 [Eh]
	 Singles Energy            =      -0.0000000000000000 [Eh]
	 Same-Spin Energy          =      -0.3295729026704816 [Eh]
	 Opposite-Spin Energy      =      -1.0186725542024211 [Eh]
	 Correlation Energy        =      -1.3482454568729025 [Eh]
	 Total Energy              =    -342.4844304341507382 [Eh]

	 ================> DF-SCS-MP2 Energies <==================
	-----------------------------------------------------------
	 SCS Same-Spin Scale       =       0.3333333333333333 [-]
	 SCS Opposite-Spin Scale   =       1.2000000000000000 [-]
	 SCS Same-Spin Energy      =      -0.1098576342234938 [Eh]
	 SCS Opposite-Spin Energy  =      -1.2224070650429053 [Eh]
	 SCS Correlation Energy    =      -1.3322646992663991 [Eh]
	 SCS Total Energy          =    -342.4684496765441963 [Eh]
	-----------------------------------------------------------

  Dipole Moment: [D]
     X:    -7.8257      Y:    -1.8479      Z:    -0.7448     Total:     8.0753

*** Psi4 exiting successfully. Buy a developer a beer!
