                               Psi4 1.4a3.dev225

  ==> Input File <==

--------------------------------------------------------------------------
#psi4
#
memory 32 gb

molecule  {
-1 1
  O        1.1351350    -0.6918790     0.0330860
  O        0.1531200     1.3913640    -0.1728610
  O        2.4463690    -0.1041220     0.2385550
  C       -1.1465760    -0.6228910    -0.4018730
  C       -2.2980290    -0.0223870     0.3984860
  C        0.1952443     0.0642564    -0.1281747
  H       -1.3784130    -0.5614030    -1.4734780
  H       -0.9935530    -1.6784970    -0.1594820
  H       -3.2561770    -0.4998690     0.1615910
  H       -2.3644390     1.0456200     0.1820980
  H       -2.1175180    -0.1345730     1.4722280
units angstrom
no_reorient  #important for SAPT in psi4, default
symmetry c1  #important for SAPT in psi4, default
}

set PROPERTIES_ORIGIN ["COM"]
properties('MP2/aug-cc-pvtz', properties = ['dipole'])
--------------------------------------------------------------------------

    Molecular point group: c1
  Charge       = -1
  Multiplicity = 1
  Basis Set: AUG-CC-PVTZ
    Blend: AUG-CC-PVTZ
  Basis Set: (AUG-CC-PVTZ AUX)
    Blend: AUG-CC-PVTZ-JKFIT

    Orbital Energies [Eh]
    ---------------------

    Doubly Occupied:

       1A    -20.434642     2A    -20.321550     3A    -20.320222
       4A    -11.185314     5A    -11.092344     6A    -11.091700
       7A     -1.304963     8A     -1.099078     9A     -0.966317
      10A     -0.895954    11A     -0.732865    12A     -0.576499
      13A     -0.512900    14A     -0.491921    15A     -0.459270
      16A     -0.438265    17A     -0.416720    18A     -0.375571
      19A     -0.357787    20A     -0.305597    21A     -0.259056
      22A     -0.233360    23A     -0.210360    24A     -0.186004

  @DF-RHF Final Energy:  -341.12220325506524

   => Energetics <=

    Nuclear Repulsion Energy =            231.7331249158568482
    One-Electron Energy =                -937.1741439739954558
    Two-Electron Energy =                 364.3188158030733916
    Total Energy =                       -341.1222032550652443
  Basis Set: (AUG-CC-PVTZ AUX)
    Blend: AUG-CC-PVTZ-RI
    Molecular point group: c1

    Geometry (in Angstrom), charge = -1, multiplicity = 1:

       Center              X                  Y                   Z               Mass
    ------------   -----------------  -----------------  -----------------  -----------------
         O            1.016588683444    -0.699826187107     0.031000874824    15.994914619570
         O            0.034573683444     1.383416812893    -0.174946125176    15.994914619570
         O            2.327822683444    -0.112069187107     0.236469874824    15.994914619570
         C           -1.265122316556    -0.630838187107    -0.403958125176    12.000000000000
         C           -2.416575316556    -0.030334187107     0.396400874824    12.000000000000
         C            0.076697983444     0.056309212893    -0.130259825176    12.000000000000
         H           -1.496959316556    -0.569350187107    -1.475563125176     1.007825032230
         H           -1.112099316556    -1.686444187107    -0.161567125176     1.007825032230
         H           -3.374723316556    -0.507816187107     0.159505874824     1.007825032230
         H           -2.482985316556     1.037672812893     0.180012874824     1.007825032230
         H           -2.236064316556    -0.142520187107     1.470142874824     1.007825032230

  Basis Set: AUG-CC-PVTZ
    Blend: AUG-CC-PVTZ
  Basis Set: (AUG-CC-PVTZ AUX)
    Blend: AUG-CC-PVTZ-JKFIT
	 Reference Energy          =    -341.1222032550652443 [Eh]
	 Singles Energy            =      -0.0000000000000000 [Eh]
	 Same-Spin Energy          =      -0.3288888242714722 [Eh]
	 Opposite-Spin Energy      =      -1.0172187183470034 [Eh]
	 Correlation Energy        =      -1.3461075426184756 [Eh]
	 Total Energy              =    -342.4683107976837277 [Eh]

	 ================> DF-SCS-MP2 Energies <==================
	-----------------------------------------------------------
	 SCS Same-Spin Scale       =       0.3333333333333333 [-]
	 SCS Opposite-Spin Scale   =       1.2000000000000000 [-]
	 SCS Same-Spin Energy      =      -0.1096296080904907 [Eh]
	 SCS Opposite-Spin Energy  =      -1.2206624620164039 [Eh]
	 SCS Correlation Energy    =      -1.3302920701068948 [Eh]
	 SCS Total Energy          =    -342.4524953251721513 [Eh]
	-----------------------------------------------------------

  Dipole Moment: [D]
     X:    -7.1025      Y:    -2.5878      Z:    -0.5666     Total:     7.5804

*** Psi4 exiting successfully. Buy a developer a beer!
