                               Psi4 1.4a3.dev225

  ==> Input File <==

--------------------------------------------------------------------------
#psi4
#
memory 32 gb

molecule  {
-1 1
  O        1.1351350    -0.6918790     0.0330860
  O        0.1531200     1.3913640    -0.1728610
  O        2.4463690    -0.1041220     0.2385550
  C       -1.1465760    -0.6228910    -0.4018730
  C       -2.2980290    -0.0223870     0.3984860
  C        0.1501230     0.1562480    -0.1588130
  H       -1.3678569    -0.5642027    -1.4246853
  H       -0.9935530    -1.6784970    -0.1594820
  H       -3.2561770    -0.4998690     0.1615910
  H       -2.3644390     1.0456200     0.1820980
  H       -2.1175180    -0.1345730     1.4722280
units angstrom
no_reorient  #important for SAPT in psi4, default
symmetry c1  #important for SAPT in psi4, default
}

set PROPERTIES_ORIGIN ["COM"]
properties('MP2/aug-cc-pvtz', properties = ['dipole'])
--------------------------------------------------------------------------

    Molecular point group: c1
  Charge       = -1
  Multiplicity = 1
  Basis Set: AUG-CC-PVTZ
    Blend: AUG-CC-PVTZ
  Basis Set: (AUG-CC-PVTZ AUX)
    Blend: AUG-CC-PVTZ-JKFIT

    Orbital Energies [Eh]
    ---------------------

    Doubly Occupied:

       1A    -20.411958     2A    -20.347314     3A    -20.300433
       4A    -11.186525     5A    -11.094524     6A    -11.085899
       7A     -1.256658     8A     -1.159428     9A     -0.939706
      10A     -0.893419    11A     -0.735267    12A     -0.570085
      13A     -0.505787    14A     -0.495948    15A     -0.453626
      16A     -0.435396    17A     -0.411660    18A     -0.377307
      19A     -0.365589    20A     -0.311148    21A     -0.290845
      22A     -0.251242    23A     -0.190176    24A     -0.165641

  @DF-RHF Final Energy:  -341.13855821419543

   => Energetics <=

    Nuclear Repulsion Energy =            231.7225973069470513
    One-Electron Energy =                -937.2511521416013238
    Two-Electron Energy =                 364.3899966204588736
    Total Energy =                       -341.1385582141954274
  Basis Set: (AUG-CC-PVTZ AUX)
    Blend: AUG-CC-PVTZ-RI
    Molecular point group: c1

    Geometry (in Angstrom), charge = -1, multiplicity = 1:

       Center              X                  Y                   Z               Mass
    ------------   -----------------  -----------------  -----------------  -----------------
         O            1.022551319129    -0.712194528366     0.034578399583    15.994914619570
         O            0.040536319129     1.371048471634    -0.171368600417    15.994914619570
         O            2.333785319129    -0.124437528366     0.240047399583    15.994914619570
         C           -1.259159680871    -0.643206528366    -0.400380600417    12.000000000000
         C           -2.410612680871    -0.042702528366     0.399978399583    12.000000000000
         C            0.037539319129     0.135932471634    -0.157320600417    12.000000000000
         H           -1.480440580871    -0.584518228366    -1.423192900417     1.007825032230
         H           -1.106136680871    -1.698812528366    -0.157989600417     1.007825032230
         H           -3.368760680871    -0.520184528366     0.163083399583     1.007825032230
         H           -2.477022680871     1.025304471634     0.183590399583     1.007825032230
         H           -2.230101680871    -0.154888528366     1.473720399583     1.007825032230

  Basis Set: AUG-CC-PVTZ
    Blend: AUG-CC-PVTZ
  Basis Set: (AUG-CC-PVTZ AUX)
    Blend: AUG-CC-PVTZ-JKFIT
	 Reference Energy          =    -341.1385582141954274 [Eh]
	 Singles Energy            =      -0.0000000000000000 [Eh]
	 Same-Spin Energy          =      -0.3295280786355413 [Eh]
	 Opposite-Spin Energy      =      -1.0182635341700508 [Eh]
	 Correlation Energy        =      -1.3477916128055920 [Eh]
	 Total Energy              =    -342.4863498270009927 [Eh]

	 ================> DF-SCS-MP2 Energies <==================
	-----------------------------------------------------------
	 SCS Same-Spin Scale       =       0.3333333333333333 [-]
	 SCS Opposite-Spin Scale   =       1.2000000000000000 [-]
	 SCS Same-Spin Energy      =      -0.1098426928785138 [Eh]
	 SCS Opposite-Spin Energy  =      -1.2219162410040609 [Eh]
	 SCS Correlation Energy    =      -1.3317589338825746 [Eh]
	 SCS Total Energy          =    -342.4703171480779815 [Eh]
	-----------------------------------------------------------

  Dipole Moment: [D]
     X:    -7.8168      Y:    -1.8180      Z:    -0.7557     Total:     8.0610

*** Psi4 exiting successfully. Buy a developer a beer!
