                               Psi4 1.4a3.dev225

  ==> Input File <==

--------------------------------------------------------------------------
#psi4
#
memory 32 gb

molecule  {
-1 1
  O        1.1351350    -0.6918790     0.0330860
  O        0.1531200     1.3913640    -0.1728610
  O        2.4463690    -0.1041220     0.2385550
  C       -1.1465760    -0.6228910    -0.4018730
  C       -2.2980290    -0.0223870     0.3984860
  C        0.1501230     0.1562480    -0.1588130
  H       -1.3784130    -0.5614030    -1.4734780
  H       -0.9935530    -1.6784970    -0.1594820
  H       -3.2998710    -0.5216434     0.1507880
  H       -2.3644390     1.0456200     0.1820980
  H       -2.1175180    -0.1345730     1.4722280
units angstrom
no_reorient  #important for SAPT in psi4, default
symmetry c1  #important for SAPT in psi4, default
}

set PROPERTIES_ORIGIN ["COM"]
properties('MP2/aug-cc-pvtz', properties = ['dipole'])
--------------------------------------------------------------------------

    Molecular point group: c1
  Charge       = -1
  Multiplicity = 1
  Basis Set: AUG-CC-PVTZ
    Blend: AUG-CC-PVTZ
  Basis Set: (AUG-CC-PVTZ AUX)
    Blend: AUG-CC-PVTZ-JKFIT

    Orbital Energies [Eh]
    ---------------------

    Doubly Occupied:

       1A    -20.412780     2A    -20.348098     3A    -20.301161
       4A    -11.187694     5A    -11.101713     6A    -11.093103
       7A     -1.257459     8A     -1.160213     9A     -0.939388
      10A     -0.890918    11A     -0.729288    12A     -0.568961
      13A     -0.504860    14A     -0.492265    15A     -0.454540
      16A     -0.435267    17A     -0.405669    18A     -0.376537
      19A     -0.363920    20A     -0.311337    21A     -0.291257
      22A     -0.252039    23A     -0.190896    24A     -0.166311

  @DF-RHF Final Energy:  -341.13747269203407

   => Energetics <=

    Nuclear Repulsion Energy =            231.2726454629924433
    One-Electron Energy =                -936.3488941776844285
    Two-Electron Energy =                 363.9387760226578621
    Total Energy =                       -341.1374726920340663
  Basis Set: (AUG-CC-PVTZ AUX)
    Blend: AUG-CC-PVTZ-RI
    Molecular point group: c1

    Geometry (in Angstrom), charge = -1, multiplicity = 1:

       Center              X                  Y                   Z               Mass
    ------------   -----------------  -----------------  -----------------  -----------------
         O            1.023165475864    -0.711979718811     0.035253073004    15.994914619570
         O            0.041150475864     1.371263281189    -0.170693926996    15.994914619570
         O            2.334399475864    -0.124222718811     0.240722073004    15.994914619570
         C           -1.258545524136    -0.642991718811    -0.399705926996    12.000000000000
         C           -2.409998524136    -0.042487718811     0.400653073004    12.000000000000
         C            0.038153475864     0.136147281189    -0.156645926996    12.000000000000
         H           -1.490382524136    -0.581503718811    -1.471310926996     1.007825032230
         H           -1.105522524136    -1.698597718811    -0.157314926996     1.007825032230
         H           -3.411840524136    -0.541744118811     0.152955073004     1.007825032230
         H           -2.476408524136     1.025519281189     0.184265073004     1.007825032230
         H           -2.229487524136    -0.154673718811     1.474395073004     1.007825032230

  Basis Set: AUG-CC-PVTZ
    Blend: AUG-CC-PVTZ
  Basis Set: (AUG-CC-PVTZ AUX)
    Blend: AUG-CC-PVTZ-JKFIT
	 Reference Energy          =    -341.1374726920340663 [Eh]
	 Singles Energy            =      -0.0000000000000000 [Eh]
	 Same-Spin Energy          =      -0.3294509410052154 [Eh]
	 Opposite-Spin Energy      =      -1.0187799926126644 [Eh]
	 Correlation Energy        =      -1.3482309336178799 [Eh]
	 Total Energy              =    -342.4857036256519223 [Eh]

	 ================> DF-SCS-MP2 Energies <==================
	-----------------------------------------------------------
	 SCS Same-Spin Scale       =       0.3333333333333333 [-]
	 SCS Opposite-Spin Scale   =       1.2000000000000000 [-]
	 SCS Same-Spin Energy      =      -0.1098169803350718 [Eh]
	 SCS Opposite-Spin Energy  =      -1.2225359911351972 [Eh]
	 SCS Correlation Energy    =      -1.3323529714702689 [Eh]
	 SCS Total Energy          =    -342.4698256635043094 [Eh]
	-----------------------------------------------------------

  Dipole Moment: [D]
     X:    -7.7395      Y:    -1.7944      Z:    -0.7177     Total:     7.9772

*** Psi4 exiting successfully. Buy a developer a beer!
