                               Psi4 1.4a3.dev225

  ==> Input File <==

--------------------------------------------------------------------------
#psi4
#
memory 32 gb

molecule  {
-1 1
  O        1.1351350    -0.6918790     0.0330860
  O        0.1531200     1.3913640    -0.1728610
  O        2.4463690    -0.1041220     0.2385550
  C       -1.1465760    -0.6228910    -0.4018730
  C       -2.2980290    -0.0223870     0.3984860
  C        0.1078074     0.1308221    -0.1667449
  H       -1.3784130    -0.5614030    -1.4734780
  H       -0.9935530    -1.6784970    -0.1594820
  H       -3.2561770    -0.4998690     0.1615910
  H       -2.3644390     1.0456200     0.1820980
  H       -2.1175180    -0.1345730     1.4722280
units angstrom
no_reorient  #important for SAPT in psi4, default
symmetry c1  #important for SAPT in psi4, default
}

set PROPERTIES_ORIGIN ["COM"]
properties('MP2/aug-cc-pvtz', properties = ['dipole'])
--------------------------------------------------------------------------

    Molecular point group: c1
  Charge       = -1
  Multiplicity = 1
  Basis Set: AUG-CC-PVTZ
    Blend: AUG-CC-PVTZ
  Basis Set: (AUG-CC-PVTZ AUX)
    Blend: AUG-CC-PVTZ-JKFIT

    Orbital Energies [Eh]
    ---------------------

    Doubly Occupied:

       1A    -20.409801     2A    -20.344663     3A    -20.300146
       4A    -11.188589     5A    -11.098408     6A    -11.095755
       7A     -1.246567     8A     -1.142829     9A     -0.942237
      10A     -0.895175    11A     -0.743130    12A     -0.570588
      13A     -0.505675    14A     -0.496506    15A     -0.448842
      16A     -0.430745    17A     -0.410379    18A     -0.376834
      19A     -0.364825    20A     -0.311041    21A     -0.281995
      22A     -0.254517    23A     -0.187840    24A     -0.162947

  @DF-RHF Final Energy:  -341.13331057503251

   => Energetics <=

    Nuclear Repulsion Energy =            231.2655794452060718
    One-Electron Energy =                -936.3777103697805160
    Two-Electron Energy =                 363.9788203495419339
    Total Energy =                       -341.1333105750325103
  Basis Set: (AUG-CC-PVTZ AUX)
    Blend: AUG-CC-PVTZ-RI
    Molecular point group: c1

    Geometry (in Angstrom), charge = -1, multiplicity = 1:

       Center              X                  Y                   Z               Mass
    ------------   -----------------  -----------------  -----------------  -----------------
         O            1.028374767464    -0.708798931257     0.036199956880    15.994914619570
         O            0.046359767464     1.374444068743    -0.169747043120    15.994914619570
         O            2.339608767464    -0.121041931257     0.241668956880    15.994914619570
         C           -1.253336232536    -0.639810931257    -0.398759043120    12.000000000000
         C           -2.404789232536    -0.039306931257     0.401599956880    12.000000000000
         C            0.001047167464     0.113902168743    -0.163630943120    12.000000000000
         H           -1.485173232536    -0.578322931257    -1.470364043120     1.007825032230
         H           -1.100313232536    -1.695416931257    -0.156368043120     1.007825032230
         H           -3.362937232536    -0.516788931257     0.164704956880     1.007825032230
         H           -2.471199232536     1.028700068743     0.185211956880     1.007825032230
         H           -2.224278232536    -0.151492931257     1.475341956880     1.007825032230

  Basis Set: AUG-CC-PVTZ
    Blend: AUG-CC-PVTZ
  Basis Set: (AUG-CC-PVTZ AUX)
    Blend: AUG-CC-PVTZ-JKFIT
	 Reference Energy          =    -341.1333105750325103 [Eh]
	 Singles Energy            =      -0.0000000000000000 [Eh]
	 Same-Spin Energy          =      -0.3305724245846431 [Eh]
	 Opposite-Spin Energy      =      -1.0204816013191758 [Eh]
	 Correlation Energy        =      -1.3510540259038188 [Eh]
	 Total Energy              =    -342.4843646009363169 [Eh]

	 ================> DF-SCS-MP2 Energies <==================
	-----------------------------------------------------------
	 SCS Same-Spin Scale       =       0.3333333333333333 [-]
	 SCS Opposite-Spin Scale   =       1.2000000000000000 [-]
	 SCS Same-Spin Energy      =      -0.1101908081948810 [Eh]
	 SCS Opposite-Spin Energy  =      -1.2245779215830108 [Eh]
	 SCS Correlation Energy    =      -1.3347687297778918 [Eh]
	 SCS Total Energy          =    -342.4680793048104306 [Eh]
	-----------------------------------------------------------

  Dipole Moment: [D]
     X:    -7.9942      Y:    -1.9783      Z:    -0.7451     Total:     8.2690

*** Psi4 exiting successfully. Buy a developer a beer!
