                               Psi4 1.4a3.dev225

  ==> Input File <==

--------------------------------------------------------------------------
#psi4
#
memory 32 gb

molecule  {
-1 1
  O        1.1351350    -0.6918790     0.0330860
  O        0.1531200     1.3913640    -0.1728610
  O        2.4463690    -0.1041220     0.2385550
  C       -1.1465760    -0.6228910    -0.4018730
  C       -2.1931119     0.0849390     0.4529737
  C        0.1501230     0.1562480    -0.1588130
  H       -1.3784130    -0.5614030    -1.4734780
  H       -0.9935530    -1.6784970    -0.1594820
  H       -3.2561770    -0.4998690     0.1615910
  H       -2.3644390     1.0456200     0.1820980
  H       -2.1175180    -0.1345730     1.4722280
units angstrom
no_reorient  #important for SAPT in psi4, default
symmetry c1  #important for SAPT in psi4, default
}

set PROPERTIES_ORIGIN ["COM"]
properties('MP2/aug-cc-pvtz', properties = ['dipole'])
--------------------------------------------------------------------------

    Molecular point group: c1
  Charge       = -1
  Multiplicity = 1
  Basis Set: AUG-CC-PVTZ
    Blend: AUG-CC-PVTZ
  Basis Set: (AUG-CC-PVTZ AUX)
    Blend: AUG-CC-PVTZ-JKFIT

    Orbital Energies [Eh]
    ---------------------

    Doubly Occupied:

       1A    -20.412235     2A    -20.347880     3A    -20.300407
       4A    -11.185815     5A    -11.100393     6A    -11.094595
       7A     -1.257197     8A     -1.160606     9A     -0.940312
      10A     -0.893985    11A     -0.735652    12A     -0.569038
      13A     -0.514766    14A     -0.496934    15A     -0.459086
      16A     -0.442082    17A     -0.396027    18A     -0.378218
      19A     -0.367024    20A     -0.304581    21A     -0.290183
      22A     -0.249602    23A     -0.190179    24A     -0.165839

  @DF-RHF Final Energy:  -341.11621278845246

   => Energetics <=

    Nuclear Repulsion Energy =            232.4209802504188360
    One-Electron Energy =                -938.5691115272384195
    Two-Electron Energy =                 365.0319184883671824
    Total Energy =                       -341.1162127884524580
  Basis Set: (AUG-CC-PVTZ AUX)
    Blend: AUG-CC-PVTZ-RI
    Molecular point group: c1

    Geometry (in Angstrom), charge = -1, multiplicity = 1:

       Center              X                  Y                   Z               Mass
    ------------   -----------------  -----------------  -----------------  -----------------
         O            1.008528490061    -0.726693264738     0.027786087564    15.994914619570
         O            0.026513490061     1.356549735262    -0.178160912436    15.994914619570
         O            2.319762490061    -0.138936264738     0.233255087564    15.994914619570
         C           -1.273182509939    -0.657705264738    -0.407172912436    12.000000000000
         C           -2.319718409939     0.050124735262     0.447673787564    12.000000000000
         C            0.023516490061     0.121433735262    -0.164112912436    12.000000000000
         H           -1.505019509939    -0.596217264738    -1.478777912436     1.007825032230
         H           -1.120159509939    -1.713311264738    -0.164781912436     1.007825032230
         H           -3.382783509939    -0.534683264738     0.156291087564     1.007825032230
         H           -2.491045509939     1.010805735262     0.176798087564     1.007825032230
         H           -2.244124509939    -0.169387264738     1.466928087564     1.007825032230

  Basis Set: AUG-CC-PVTZ
    Blend: AUG-CC-PVTZ
  Basis Set: (AUG-CC-PVTZ AUX)
    Blend: AUG-CC-PVTZ-JKFIT
	 Reference Energy          =    -341.1162127884524580 [Eh]
	 Singles Energy            =      -0.0000000000000000 [Eh]
	 Same-Spin Energy          =      -0.3298203664726858 [Eh]
	 Opposite-Spin Energy      =      -1.0195661294989662 [Eh]
	 Correlation Energy        =      -1.3493864959716519 [Eh]
	 Total Energy              =    -342.4655992844241155 [Eh]

	 ================> DF-SCS-MP2 Energies <==================
	-----------------------------------------------------------
	 SCS Same-Spin Scale       =       0.3333333333333333 [-]
	 SCS Opposite-Spin Scale   =       1.2000000000000000 [-]
	 SCS Same-Spin Energy      =      -0.1099401221575619 [Eh]
	 SCS Opposite-Spin Energy  =      -1.2234793553987593 [Eh]
	 SCS Correlation Energy    =      -1.3334194775563213 [Eh]
	 SCS Total Energy          =    -342.4496322660087912 [Eh]
	-----------------------------------------------------------

  Dipole Moment: [D]
     X:    -7.5985      Y:    -1.6875      Z:    -0.6659     Total:     7.8121

*** Psi4 exiting successfully. Buy a developer a beer!
