                               Psi4 1.4a3.dev225

  ==> Input File <==

--------------------------------------------------------------------------
#psi4
#
memory 32 gb

molecule  {
-1 1
  O        1.1351350    -0.6918790     0.0330860
  O        0.1531200     1.3913640    -0.1728610
  O        2.4463690    -0.1041220     0.2385550
  C       -1.1465760    -0.6228910    -0.4018730
  C       -2.2980290    -0.0223870     0.3984860
  C        0.1501230     0.1562480    -0.1588130
  H       -1.3573008    -0.5670024    -1.3758925
  H       -0.9935530    -1.6784970    -0.1594820
  H       -3.2561770    -0.4998690     0.1615910
  H       -2.3644390     1.0456200     0.1820980
  H       -2.1175180    -0.1345730     1.4722280
units angstrom
no_reorient  #important for SAPT in psi4, default
symmetry c1  #important for SAPT in psi4, default
}

set PROPERTIES_ORIGIN ["COM"]
properties('MP2/aug-cc-pvtz', properties = ['dipole'])
--------------------------------------------------------------------------

    Molecular point group: c1
  Charge       = -1
  Multiplicity = 1
  Basis Set: AUG-CC-PVTZ
    Blend: AUG-CC-PVTZ
  Basis Set: (AUG-CC-PVTZ AUX)
    Blend: AUG-CC-PVTZ-JKFIT

    Orbital Energies [Eh]
    ---------------------

    Doubly Occupied:

       1A    -20.411699     2A    -20.347216     3A    -20.300182
       4A    -11.186100     5A    -11.094054     6A    -11.079353
       7A     -1.256441     8A     -1.159295     9A     -0.940586
      10A     -0.895066    11A     -0.738673    12A     -0.572177
      13A     -0.506375    14A     -0.499251    15A     -0.453403
      16A     -0.435231    17A     -0.411561    18A     -0.379303
      19A     -0.366969    20A     -0.311117    21A     -0.290944
      22A     -0.250966    23A     -0.189935    24A     -0.165446

  @DF-RHF Final Energy:  -341.13370234656963

   => Energetics <=

    Nuclear Repulsion Energy =            231.9787194845709735
    One-Electron Energy =                -937.7421585456738740
    Two-Electron Energy =                 364.6297367145332373
    Total Energy =                       -341.1337023465696348
  Basis Set: (AUG-CC-PVTZ AUX)
    Blend: AUG-CC-PVTZ-RI
    Molecular point group: c1

    Geometry (in Angstrom), charge = -1, multiplicity = 1:

       Center              X                  Y                   Z               Mass
    ------------   -----------------  -----------------  -----------------  -----------------
         O            1.022431815203    -0.712162833408     0.034026024071    15.994914619570
         O            0.040416815203     1.371080166592    -0.171920975929    15.994914619570
         O            2.333665815203    -0.124405833408     0.239495024071    15.994914619570
         C           -1.259279184797    -0.643174833408    -0.400932975929    12.000000000000
         C           -2.410732184797    -0.042670833408     0.399426024071    12.000000000000
         C            0.037419815203     0.135964166592    -0.157872975929    12.000000000000
         H           -1.470003984797    -0.587286233408    -1.374952475929     1.007825032230
         H           -1.106256184797    -1.698780833408    -0.158541975929     1.007825032230
         H           -3.368880184797    -0.520152833408     0.162531024071     1.007825032230
         H           -2.477142184797     1.025336166592     0.183038024071     1.007825032230
         H           -2.230221184797    -0.154856833408     1.473168024071     1.007825032230

  Basis Set: AUG-CC-PVTZ
    Blend: AUG-CC-PVTZ
  Basis Set: (AUG-CC-PVTZ AUX)
    Blend: AUG-CC-PVTZ-JKFIT
	 Reference Energy          =    -341.1337023465696348 [Eh]
	 Singles Energy            =      -0.0000000000000000 [Eh]
	 Same-Spin Energy          =      -0.3295579471748853 [Eh]
	 Opposite-Spin Energy      =      -1.0180983555258112 [Eh]
	 Correlation Energy        =      -1.3476563027006965 [Eh]
	 Total Energy              =    -342.4813586492703052 [Eh]

	 ================> DF-SCS-MP2 Energies <==================
	-----------------------------------------------------------
	 SCS Same-Spin Scale       =       0.3333333333333333 [-]
	 SCS Opposite-Spin Scale   =       1.2000000000000000 [-]
	 SCS Same-Spin Energy      =      -0.1098526490582951 [Eh]
	 SCS Opposite-Spin Energy  =      -1.2217180266309733 [Eh]
	 SCS Correlation Energy    =      -1.3315706756892685 [Eh]
	 SCS Total Energy          =    -342.4652730222588843 [Eh]
	-----------------------------------------------------------

  Dipole Moment: [D]
     X:    -7.8285      Y:    -1.8237      Z:    -0.7844     Total:     8.0763

*** Psi4 exiting successfully. Buy a developer a beer!
