                               Psi4 1.4a3.dev225

  ==> Input File <==

--------------------------------------------------------------------------
#psi4
#
memory 32 gb

molecule  {
-1 1
  O        1.1351350    -0.6918790     0.0330860
  O        0.1531200     1.3913640    -0.1728610
  O        2.4463690    -0.1041220     0.2385550
  C       -1.1465760    -0.6228910    -0.4018730
  C       -2.2980290    -0.0223870     0.3984860
  C        0.1501230     0.1562480    -0.1588130
  H       -1.3361886    -0.5726018    -1.2783071
  H       -0.9935530    -1.6784970    -0.1594820
  H       -3.2561770    -0.4998690     0.1615910
  H       -2.3644390     1.0456200     0.1820980
  H       -2.1175180    -0.1345730     1.4722280
units angstrom
no_reorient  #important for SAPT in psi4, default
symmetry c1  #important for SAPT in psi4, default
}

set PROPERTIES_ORIGIN ["COM"]
properties('MP2/aug-cc-pvtz', properties = ['dipole'])
--------------------------------------------------------------------------

    Molecular point group: c1
  Charge       = -1
  Multiplicity = 1
  Basis Set: AUG-CC-PVTZ
    Blend: AUG-CC-PVTZ
  Basis Set: (AUG-CC-PVTZ AUX)
    Blend: AUG-CC-PVTZ-JKFIT

    Orbital Energies [Eh]
    ---------------------

    Doubly Occupied:

       1A    -20.411338     2A    -20.347163     3A    -20.299813
       4A    -11.185465     5A    -11.093342     6A    -11.066439
       7A     -1.256159     8A     -1.159166     9A     -0.943706
      10A     -0.899353    11A     -0.747110    12A     -0.577723
      13A     -0.511098    14A     -0.502135    15A     -0.453109
      16A     -0.435064    17A     -0.411615    18A     -0.384170
      19A     -0.368001    20A     -0.311121    21A     -0.291145
      22A     -0.250607    23A     -0.189585    24A     -0.165163

  @DF-RHF Final Energy:  -341.10665846199817

   => Energetics <=

    Nuclear Repulsion Energy =            232.5451839475532267
    One-Electron Energy =                -938.7845028653741792
    Two-Electron Energy =                 365.1326604558227586
    Total Energy =                       -341.1066584619981654
  Basis Set: (AUG-CC-PVTZ AUX)
    Blend: AUG-CC-PVTZ-RI
    Molecular point group: c1

    Geometry (in Angstrom), charge = -1, multiplicity = 1:

       Center              X                  Y                   Z               Mass
    ------------   -----------------  -----------------  -----------------  -----------------
         O            1.022192807352    -0.712099443494     0.032921275311    15.994914619570
         O            0.040177807352     1.371143556506    -0.173025724689    15.994914619570
         O            2.333426807352    -0.124342443494     0.238390275311    15.994914619570
         C           -1.259518192648    -0.643111443494    -0.402037724689    12.000000000000
         C           -2.410971192648    -0.042607443494     0.398321275311    12.000000000000
         C            0.037180807352     0.136027556506    -0.158977724689    12.000000000000
         H           -1.449130792648    -0.592822243494    -1.278471824689     1.007825032230
         H           -1.106495192648    -1.698717443494    -0.159646724689     1.007825032230
         H           -3.369119192648    -0.520089443494     0.161426275311     1.007825032230
         H           -2.477381192648     1.025399556506     0.181933275311     1.007825032230
         H           -2.230460192648    -0.154793443494     1.472063275311     1.007825032230

  Basis Set: AUG-CC-PVTZ
    Blend: AUG-CC-PVTZ
  Basis Set: (AUG-CC-PVTZ AUX)
    Blend: AUG-CC-PVTZ-JKFIT
	 Reference Energy          =    -341.1066584619981654 [Eh]
	 Singles Energy            =      -0.0000000000000000 [Eh]
	 Same-Spin Energy          =      -0.3296628599529721 [Eh]
	 Opposite-Spin Energy      =      -1.0180548783376686 [Eh]
	 Correlation Energy        =      -1.3477177382906407 [Eh]
	 Total Energy              =    -342.4543762002888343 [Eh]

	 ================> DF-SCS-MP2 Energies <==================
	-----------------------------------------------------------
	 SCS Same-Spin Scale       =       0.3333333333333333 [-]
	 SCS Opposite-Spin Scale   =       1.2000000000000000 [-]
	 SCS Same-Spin Energy      =      -0.1098876199843240 [Eh]
	 SCS Opposite-Spin Energy  =      -1.2216658540052023 [Eh]
	 SCS Correlation Energy    =      -1.3315534739895263 [Eh]
	 SCS Total Energy          =    -342.4382119359876810 [Eh]
	-----------------------------------------------------------

  Dipole Moment: [D]
     X:    -7.8449      Y:    -1.8330      Z:    -0.8242     Total:     8.0982

*** Psi4 exiting successfully. Buy a developer a beer!
