                               Psi4 1.4a3.dev225

  ==> Input File <==

--------------------------------------------------------------------------
#psi4
#
memory 32 gb

molecule  {
-1 1
  O        1.1351350    -0.6918790     0.0330860
  O        0.1954325     1.3906026    -0.1646195
  O        2.4463690    -0.1041220     0.2385550
  C       -1.1465760    -0.6228910    -0.4018730
  C       -2.2980290    -0.0223870     0.3984860
  C        0.1501230     0.1562480    -0.1588130
  H       -1.3784130    -0.5614030    -1.4734780
  H       -0.9935530    -1.6784970    -0.1594820
  H       -3.2561770    -0.4998690     0.1615910
  H       -2.3644390     1.0456200     0.1820980
  H       -2.1175180    -0.1345730     1.4722280
units angstrom
no_reorient  #important for SAPT in psi4, default
symmetry c1  #important for SAPT in psi4, default
}

set PROPERTIES_ORIGIN ["COM"]
properties('MP2/aug-cc-pvtz', properties = ['dipole'])
--------------------------------------------------------------------------

    Molecular point group: c1
  Charge       = -1
  Multiplicity = 1
  Basis Set: AUG-CC-PVTZ
    Blend: AUG-CC-PVTZ
  Basis Set: (AUG-CC-PVTZ AUX)
    Blend: AUG-CC-PVTZ-JKFIT

    Orbital Energies [Eh]
    ---------------------

    Doubly Occupied:

       1A    -20.409692     2A    -20.346143     3A    -20.299172
       4A    -11.185917     5A    -11.096552     6A    -11.094487
       7A     -1.256220     8A     -1.156352     9A     -0.938764
      10A     -0.892707    11A     -0.733657    12A     -0.567997
      13A     -0.505569    14A     -0.493154    15A     -0.452711
      16A     -0.435137    17A     -0.412311    18A     -0.377196
      19A     -0.364312    20A     -0.309506    21A     -0.288728
      22A     -0.251649    23A     -0.188845    24A     -0.164096

  @DF-RHF Final Energy:  -341.13934684053140

   => Energetics <=

    Nuclear Repulsion Energy =            231.4979722760394907
    One-Electron Energy =                -936.8328903159952006
    Two-Electron Energy =                 364.1955711994243075
    Total Energy =                       -341.1393468405314024
  Basis Set: (AUG-CC-PVTZ AUX)
    Blend: AUG-CC-PVTZ-RI
    Molecular point group: c1

    Geometry (in Angstrom), charge = -1, multiplicity = 1:

       Center              X                  Y                   Z               Mass
    ------------   -----------------  -----------------  -----------------  -----------------
         O            1.015068538046    -0.712089422619     0.033650024022    15.994914619570
         O            0.075366038046     1.370392177381    -0.164055475978    15.994914619570
         O            2.326302538046    -0.124332422619     0.239119024022    15.994914619570
         C           -1.266642461954    -0.643101422619    -0.401308975978    12.000000000000
         C           -2.418095461954    -0.042597422619     0.399050024022    12.000000000000
         C            0.030056538046     0.136037577381    -0.158248975978    12.000000000000
         H           -1.498479461954    -0.581613422619    -1.472913975978     1.007825032230
         H           -1.113619461954    -1.698707422619    -0.158917975978     1.007825032230
         H           -3.376243461954    -0.520079422619     0.162155024022     1.007825032230
         H           -2.484505461954     1.025409577381     0.182662024022     1.007825032230
         H           -2.237584461954    -0.154783422619     1.472792024022     1.007825032230

  Basis Set: AUG-CC-PVTZ
    Blend: AUG-CC-PVTZ
  Basis Set: (AUG-CC-PVTZ AUX)
    Blend: AUG-CC-PVTZ-JKFIT
	 Reference Energy          =    -341.1393468405314024 [Eh]
	 Singles Energy            =      -0.0000000000000000 [Eh]
	 Same-Spin Energy          =      -0.3295427898242118 [Eh]
	 Opposite-Spin Energy      =      -1.0185115006703982 [Eh]
	 Correlation Energy        =      -1.3480542904946100 [Eh]
	 Total Energy              =    -342.4874011310259903 [Eh]

	 ================> DF-SCS-MP2 Energies <==================
	-----------------------------------------------------------
	 SCS Same-Spin Scale       =       0.3333333333333333 [-]
	 SCS Opposite-Spin Scale   =       1.2000000000000000 [-]
	 SCS Same-Spin Energy      =      -0.1098475966080706 [Eh]
	 SCS Opposite-Spin Energy  =      -1.2222138008044778 [Eh]
	 SCS Correlation Energy    =      -1.3320613974125484 [Eh]
	 SCS Total Energy          =    -342.4714082379439333 [Eh]
	-----------------------------------------------------------

  Dipole Moment: [D]
     X:    -7.8953      Y:    -1.8243      Z:    -0.7318     Total:     8.1363

*** Psi4 exiting successfully. Buy a developer a beer!
