                               Psi4 1.4a3.dev225

  ==> Input File <==

--------------------------------------------------------------------------
#psi4
#
memory 32 gb

molecule  {
-1 1
  O        1.1351350    -0.6918790     0.0330860
  O        0.1531200     1.3913640    -0.1728610
  O        2.4463690    -0.1041220     0.2385550
  C       -1.1637214    -0.6395426    -0.4136031
  C       -2.2980290    -0.0223870     0.3984860
  C        0.1501230     0.1562480    -0.1588130
  H       -1.3784130    -0.5614030    -1.4734780
  H       -0.9935530    -1.6784970    -0.1594820
  H       -3.2561770    -0.4998690     0.1615910
  H       -2.3644390     1.0456200     0.1820980
  H       -2.1175180    -0.1345730     1.4722280
units angstrom
no_reorient  #important for SAPT in psi4, default
symmetry c1  #important for SAPT in psi4, default
}

set PROPERTIES_ORIGIN ["COM"]
properties('MP2/aug-cc-pvtz', properties = ['dipole'])
--------------------------------------------------------------------------

    Molecular point group: c1
  Charge       = -1
  Multiplicity = 1
  Basis Set: AUG-CC-PVTZ
    Blend: AUG-CC-PVTZ
  Basis Set: (AUG-CC-PVTZ AUX)
    Blend: AUG-CC-PVTZ-JKFIT

    Orbital Energies [Eh]
    ---------------------

    Doubly Occupied:

       1A    -20.412367     2A    -20.347952     3A    -20.300722
       4A    -11.188050     5A    -11.094765     6A    -11.091224
       7A     -1.256457     8A     -1.159434     9A     -0.937850
      10A     -0.892084    11A     -0.731040    12A     -0.567497
      13A     -0.504071    14A     -0.493859    15A     -0.453363
      16A     -0.434818    17A     -0.410147    18A     -0.378892
      19A     -0.366796    20A     -0.310566    21A     -0.291224
      22A     -0.249002    23A     -0.190449    24A     -0.165937

  @DF-RHF Final Energy:  -341.13892871909542

   => Energetics <=

    Nuclear Repulsion Energy =            231.1169294663860114
    One-Electron Energy =                -936.0545824839327906
    Two-Electron Energy =                 363.7987242984514182
    Total Energy =                       -341.1389287190954178
  Basis Set: (AUG-CC-PVTZ AUX)
    Blend: AUG-CC-PVTZ-RI
    Molecular point group: c1

    Geometry (in Angstrom), charge = -1, multiplicity = 1:

       Center              X                  Y                   Z               Mass
    ------------   -----------------  -----------------  -----------------  -----------------
         O            1.024981942558    -0.709981665744     0.036711936426    15.994914619570
         O            0.042966942558     1.373261334256    -0.169235063574    15.994914619570
         O            2.336215942558    -0.122224665744     0.242180936426    15.994914619570
         C           -1.273874457442    -0.657645265744    -0.409977163574    12.000000000000
         C           -2.408182057442    -0.040489665744     0.402111936426    12.000000000000
         C            0.039969942558     0.138145334256    -0.155187063574    12.000000000000
         H           -1.488566057442    -0.579505665744    -1.469852063574     1.007825032230
         H           -1.103706057442    -1.696599665744    -0.155856063574     1.007825032230
         H           -3.366330057442    -0.517971665744     0.165216936426     1.007825032230
         H           -2.474592057442     1.027517334256     0.185723936426     1.007825032230
         H           -2.227671057442    -0.152675665744     1.475853936426     1.007825032230

  Basis Set: AUG-CC-PVTZ
    Blend: AUG-CC-PVTZ
  Basis Set: (AUG-CC-PVTZ AUX)
    Blend: AUG-CC-PVTZ-JKFIT
	 Reference Energy          =    -341.1389287190954178 [Eh]
	 Singles Energy            =      -0.0000000000000000 [Eh]
	 Same-Spin Energy          =      -0.3294602643312615 [Eh]
	 Opposite-Spin Energy      =      -1.0184447255657365 [Eh]
	 Correlation Energy        =      -1.3479049898969979 [Eh]
	 Total Energy              =    -342.4868337089924353 [Eh]

	 ================> DF-SCS-MP2 Energies <==================
	-----------------------------------------------------------
	 SCS Same-Spin Scale       =       0.3333333333333333 [-]
	 SCS Opposite-Spin Scale   =       1.2000000000000000 [-]
	 SCS Same-Spin Energy      =      -0.1098200881104205 [Eh]
	 SCS Opposite-Spin Energy  =      -1.2221336706788837 [Eh]
	 SCS Correlation Energy    =      -1.3319537587893042 [Eh]
	 SCS Total Energy          =    -342.4708824778847429 [Eh]
	-----------------------------------------------------------

  Dipole Moment: [D]
     X:    -7.7893      Y:    -1.8061      Z:    -0.7312     Total:     8.0293

*** Psi4 exiting successfully. Buy a developer a beer!
