                               Psi4 1.4a3.dev225

  ==> Input File <==

--------------------------------------------------------------------------
#psi4
#
memory 32 gb

molecule  {
-1 1
  O        1.1351350    -0.6918790     0.0330860
  O        0.1531200     1.3913640    -0.1728610
  O        2.4463690    -0.1041220     0.2385550
  C       -1.1465760    -0.6228910    -0.4018730
  C       -2.2980290    -0.0223870     0.3984860
  C        0.1501230     0.1562480    -0.1588130
  H       -1.3784130    -0.5614030    -1.4734780
  H       -0.9935530    -1.6784970    -0.1594820
  H       -3.4309532    -0.5869667     0.1183789
  H       -2.3644390     1.0456200     0.1820980
  H       -2.1175180    -0.1345730     1.4722280
units angstrom
no_reorient  #important for SAPT in psi4, default
symmetry c1  #important for SAPT in psi4, default
}

set PROPERTIES_ORIGIN ["COM"]
properties('MP2/aug-cc-pvtz', properties = ['dipole'])
--------------------------------------------------------------------------

    Molecular point group: c1
  Charge       = -1
  Multiplicity = 1
  Basis Set: AUG-CC-PVTZ
    Blend: AUG-CC-PVTZ
  Basis Set: (AUG-CC-PVTZ AUX)
    Blend: AUG-CC-PVTZ-JKFIT

    Orbital Energies [Eh]
    ---------------------

    Doubly Occupied:

       1A    -20.414645     2A    -20.350385     3A    -20.302747
       4A    -11.190212     5A    -11.120756     6A    -11.095842
       7A     -1.259411     8A     -1.162406     9A     -0.940827
      10A     -0.889605    11A     -0.723355    12A     -0.570926
      13A     -0.504466    14A     -0.493035    15A     -0.456933
      16A     -0.436549    17A     -0.389321    18A     -0.374453
      19A     -0.366228    20A     -0.311551    21A     -0.293115
      22A     -0.253683    23A     -0.192493    24A     -0.167923

  @DF-RHF Final Energy:  -341.12025559624101

   => Energetics <=

    Nuclear Repulsion Energy =            230.7149267705647446
    One-Electron Energy =                -935.1486263657379823
    Two-Electron Energy =                 363.3134439989322573
    Total Energy =                       -341.1202555962410088
  Basis Set: (AUG-CC-PVTZ AUX)
    Blend: AUG-CC-PVTZ-RI
    Molecular point group: c1

    Geometry (in Angstrom), charge = -1, multiplicity = 1:

       Center              X                  Y                   Z               Mass
    ------------   -----------------  -----------------  -----------------  -----------------
         O            1.024649436558    -0.711240204144     0.035619971260    15.994914619570
         O            0.042634436558     1.372002795856    -0.170327028740    15.994914619570
         O            2.335883436558    -0.123483204144     0.241088971260    15.994914619570
         C           -1.257061563442    -0.642252204144    -0.399339028740    12.000000000000
         C           -2.408514563442    -0.041748204144     0.401019971260    12.000000000000
         C            0.039637436558     0.136886795856    -0.156279028740    12.000000000000
         H           -1.488898563442    -0.580764204144    -1.470944028740     1.007825032230
         H           -1.104038563442    -1.697858204144    -0.156948028740     1.007825032230
         H           -3.541438763442    -0.606327904144     0.120912871260     1.007825032230
         H           -2.474924563442     1.026258795856     0.184631971260     1.007825032230
         H           -2.228003563442    -0.153934204144     1.474761971260     1.007825032230

  Basis Set: AUG-CC-PVTZ
    Blend: AUG-CC-PVTZ
  Basis Set: (AUG-CC-PVTZ AUX)
    Blend: AUG-CC-PVTZ-JKFIT
	 Reference Energy          =    -341.1202555962410088 [Eh]
	 Singles Energy            =      -0.0000000000000000 [Eh]
	 Same-Spin Energy          =      -0.3292478571425252 [Eh]
	 Opposite-Spin Energy      =      -1.0197778288715535 [Eh]
	 Correlation Energy        =      -1.3490256860140788 [Eh]
	 Total Energy              =    -342.4692812822551105 [Eh]

	 ================> DF-SCS-MP2 Energies <==================
	-----------------------------------------------------------
	 SCS Same-Spin Scale       =       0.3333333333333333 [-]
	 SCS Opposite-Spin Scale   =       1.2000000000000000 [-]
	 SCS Same-Spin Energy      =      -0.1097492857141751 [Eh]
	 SCS Opposite-Spin Energy  =      -1.2237333946458642 [Eh]
	 SCS Correlation Energy    =      -1.3334826803600393 [Eh]
	 SCS Total Energy          =    -342.4537382766010296 [Eh]
	-----------------------------------------------------------

  Dipole Moment: [D]
     X:    -7.5112      Y:    -1.7304      Z:    -0.7038     Total:     7.7400

*** Psi4 exiting successfully. Buy a developer a beer!
