                               Psi4 1.4a3.dev225

  ==> Input File <==

--------------------------------------------------------------------------
#psi4
#
memory 32 gb

molecule  {
-1 1
  O        1.1351350    -0.6918790     0.0330860
  O        0.1531200     1.3913640    -0.1728610
  O        2.4463690    -0.1041220     0.2385550
  C       -1.1465760    -0.6228910    -0.4018730
  C       -2.3143177    -0.0409472     0.3885346
  C        0.1501230     0.1562480    -0.1588130
  H       -1.3784130    -0.5614030    -1.4734780
  H       -0.9935530    -1.6784970    -0.1594820
  H       -3.2561770    -0.4998690     0.1615910
  H       -2.3644390     1.0456200     0.1820980
  H       -2.1175180    -0.1345730     1.4722280
units angstrom
no_reorient  #important for SAPT in psi4, default
symmetry c1  #important for SAPT in psi4, default
}

set PROPERTIES_ORIGIN ["COM"]
properties('MP2/aug-cc-pvtz', properties = ['dipole'])
--------------------------------------------------------------------------

    Molecular point group: c1
  Charge       = -1
  Multiplicity = 1
  Basis Set: AUG-CC-PVTZ
    Blend: AUG-CC-PVTZ
  Basis Set: (AUG-CC-PVTZ AUX)
    Blend: AUG-CC-PVTZ-JKFIT

    Orbital Energies [Eh]
    ---------------------

    Doubly Occupied:

       1A    -20.412458     2A    -20.347624     3A    -20.300929
       4A    -11.187482     5A    -11.095117     6A    -11.092380
       7A     -1.257079     8A     -1.159683     9A     -0.939196
      10A     -0.892194    11A     -0.732718    12A     -0.568439
      13A     -0.506648    14A     -0.490885    15A     -0.453470
      16A     -0.436144    17A     -0.417181    18A     -0.373204
      19A     -0.359374    20A     -0.312053    21A     -0.290832
      22A     -0.251964    23A     -0.190654    24A     -0.166031

  @DF-RHF Final Energy:  -341.13863963627824

   => Energetics <=

    Nuclear Repulsion Energy =            231.3379395129920226
    One-Electron Energy =                -936.4856812292169934
    Two-Electron Energy =                 364.0091020799467856
    Total Energy =                       -341.1386396362782421
  Basis Set: (AUG-CC-PVTZ AUX)
    Blend: AUG-CC-PVTZ-RI
    Molecular point group: c1

    Geometry (in Angstrom), charge = -1, multiplicity = 1:

       Center              X                  Y                   Z               Mass
    ------------   -----------------  -----------------  -----------------  -----------------
         O            1.024866463416    -0.709724395415     0.036472176008    15.994914619570
         O            0.042851463416     1.373518604585    -0.169474823992    15.994914619570
         O            2.336100463416    -0.121967395415     0.241941176008    15.994914619570
         C           -1.256844536584    -0.640736395415    -0.398486823992    12.000000000000
         C           -2.424586236584    -0.058792595415     0.391920776008    12.000000000000
         C            0.039854463416     0.138402604585    -0.155426823992    12.000000000000
         H           -1.488681536584    -0.579248395415    -1.470091823992     1.007825032230
         H           -1.103821536584    -1.696342395415    -0.156095823992     1.007825032230
         H           -3.366445536584    -0.517714395415     0.164977176008     1.007825032230
         H           -2.474707536584     1.027774604585     0.185484176008     1.007825032230
         H           -2.227786536584    -0.152418395415     1.475614176008     1.007825032230

  Basis Set: AUG-CC-PVTZ
    Blend: AUG-CC-PVTZ
  Basis Set: (AUG-CC-PVTZ AUX)
    Blend: AUG-CC-PVTZ-JKFIT
	 Reference Energy          =    -341.1386396362782421 [Eh]
	 Singles Energy            =      -0.0000000000000000 [Eh]
	 Same-Spin Energy          =      -0.3295295861830295 [Eh]
	 Opposite-Spin Energy      =      -1.0185533633141974 [Eh]
	 Correlation Energy        =      -1.3480829494972268 [Eh]
	 Total Energy              =    -342.4867225857754534 [Eh]

	 ================> DF-SCS-MP2 Energies <==================
	-----------------------------------------------------------
	 SCS Same-Spin Scale       =       0.3333333333333333 [-]
	 SCS Opposite-Spin Scale   =       1.2000000000000000 [-]
	 SCS Same-Spin Energy      =      -0.1098431953943432 [Eh]
	 SCS Opposite-Spin Energy  =      -1.2222640359770369 [Eh]
	 SCS Correlation Energy    =      -1.3321072313713800 [Eh]
	 SCS Total Energy          =    -342.4707468676496092 [Eh]
	-----------------------------------------------------------

  Dipole Moment: [D]
     X:    -7.8170      Y:    -1.8300      Z:    -0.7325     Total:     8.0617

*** Psi4 exiting successfully. Buy a developer a beer!
