                               Psi4 1.4a3.dev225

  ==> Input File <==

--------------------------------------------------------------------------
#psi4
#
memory 32 gb

molecule  {
-1 1
  O        1.1351350    -0.6918790     0.0330860
  O        0.1531200     1.3913640    -0.1728610
  O        2.4463690    -0.1041220     0.2385550
  C       -1.1345599    -0.6296262    -0.3790896
  C       -2.2980290    -0.0223870     0.3984860
  C        0.1501230     0.1562480    -0.1588130
  H       -1.3784130    -0.5614030    -1.4734780
  H       -0.9935530    -1.6784970    -0.1594820
  H       -3.2561770    -0.4998690     0.1615910
  H       -2.3644390     1.0456200     0.1820980
  H       -2.1175180    -0.1345730     1.4722280
units angstrom
no_reorient  #important for SAPT in psi4, default
symmetry c1  #important for SAPT in psi4, default
}

set PROPERTIES_ORIGIN ["COM"]
properties('MP2/aug-cc-pvtz', properties = ['dipole'])
--------------------------------------------------------------------------

    Molecular point group: c1
  Charge       = -1
  Multiplicity = 1
  Basis Set: AUG-CC-PVTZ
    Blend: AUG-CC-PVTZ
  Basis Set: (AUG-CC-PVTZ AUX)
    Blend: AUG-CC-PVTZ-JKFIT

    Orbital Energies [Eh]
    ---------------------

    Doubly Occupied:

       1A    -20.412085     2A    -20.347627     3A    -20.300505
       4A    -11.186818     5A    -11.095318     6A    -11.093198
       7A     -1.257218     8A     -1.159722     9A     -0.940075
      10A     -0.891966    11A     -0.732925    12A     -0.569153
      13A     -0.507451    14A     -0.490543    15A     -0.454729
      16A     -0.435225    17A     -0.412935    18A     -0.377041
      19A     -0.359627    20A     -0.311136    21A     -0.290427
      22A     -0.252948    23A     -0.190292    24A     -0.165683

  @DF-RHF Final Energy:  -341.13856954987824

   => Energetics <=

    Nuclear Repulsion Energy =            231.6516770218328247
    One-Electron Energy =                -937.1111974993308422
    Two-Electron Energy =                 364.3209509276197764
    Total Energy =                       -341.1385695498782411
  Basis Set: (AUG-CC-PVTZ AUX)
    Blend: AUG-CC-PVTZ-RI
    Molecular point group: c1

    Geometry (in Angstrom), charge = -1, multiplicity = 1:

       Center              X                  Y                   Z               Mass
    ------------   -----------------  -----------------  -----------------  -----------------
         O            1.021051109133    -0.711318349953     0.032059678503    15.994914619570
         O            0.039036109133     1.371924650047    -0.173887321497    15.994914619570
         O            2.332285109133    -0.123561349953     0.237528678503    15.994914619570
         C           -1.248643790867    -0.649065549953    -0.380115921497    12.000000000000
         C           -2.412112890867    -0.041826349953     0.397459678503    12.000000000000
         C            0.036039109133     0.136808650047    -0.159839321497    12.000000000000
         H           -1.492496890867    -0.580842349953    -1.474504321497     1.007825032230
         H           -1.107636890867    -1.697936349953    -0.160508321497     1.007825032230
         H           -3.370260890867    -0.519308349953     0.160564678503     1.007825032230
         H           -2.478522890867     1.026180650047     0.181071678503     1.007825032230
         H           -2.231601890867    -0.154012349953     1.471201678503     1.007825032230

  Basis Set: AUG-CC-PVTZ
    Blend: AUG-CC-PVTZ
  Basis Set: (AUG-CC-PVTZ AUX)
    Blend: AUG-CC-PVTZ-JKFIT
	 Reference Energy          =    -341.1385695498782411 [Eh]
	 Singles Energy            =      -0.0000000000000000 [Eh]
	 Same-Spin Energy          =      -0.3296064264835348 [Eh]
	 Opposite-Spin Energy      =      -1.0186532073973615 [Eh]
	 Correlation Energy        =      -1.3482596338808963 [Eh]
	 Total Energy              =    -342.4868291837591414 [Eh]

	 ================> DF-SCS-MP2 Energies <==================
	-----------------------------------------------------------
	 SCS Same-Spin Scale       =       0.3333333333333333 [-]
	 SCS Opposite-Spin Scale   =       1.2000000000000000 [-]
	 SCS Same-Spin Energy      =      -0.1098688088278449 [Eh]
	 SCS Opposite-Spin Energy  =      -1.2223838488768337 [Eh]
	 SCS Correlation Energy    =      -1.3322526577046787 [Eh]
	 SCS Total Energy          =    -342.4708222075828985 [Eh]
	-----------------------------------------------------------

  Dipole Moment: [D]
     X:    -7.8090      Y:    -1.8314      Z:    -0.6891     Total:     8.0504

*** Psi4 exiting successfully. Buy a developer a beer!
