                               Psi4 1.4a3.dev225

  ==> Input File <==

--------------------------------------------------------------------------
#psi4
#
memory 32 gb

molecule  {
-1 1
  O        1.1351350    -0.6918790     0.0330860
  O        0.1531200     1.3913640    -0.1728610
  O        2.4463690    -0.1041220     0.2385550
  C       -1.1465760    -0.6228910    -0.4018730
  C       -2.2980290    -0.0223870     0.3984860
  C        0.2250903     0.0916988    -0.1442080
  H       -1.3784130    -0.5614030    -1.4734780
  H       -0.9935530    -1.6784970    -0.1594820
  H       -3.2561770    -0.4998690     0.1615910
  H       -2.3644390     1.0456200     0.1820980
  H       -2.1175180    -0.1345730     1.4722280
units angstrom
no_reorient  #important for SAPT in psi4, default
symmetry c1  #important for SAPT in psi4, default
}

set PROPERTIES_ORIGIN ["COM"]
properties('MP2/aug-cc-pvtz', properties = ['dipole'])
--------------------------------------------------------------------------

    Molecular point group: c1
  Charge       = -1
  Multiplicity = 1
  Basis Set: AUG-CC-PVTZ
    Blend: AUG-CC-PVTZ
  Basis Set: (AUG-CC-PVTZ AUX)
    Blend: AUG-CC-PVTZ-JKFIT

    Orbital Energies [Eh]
    ---------------------

    Doubly Occupied:

       1A    -20.434397     2A    -20.326295     3A    -20.318973
       4A    -11.185444     5A    -11.090264     6A    -11.088889
       7A     -1.307932     8A     -1.115745     9A     -0.965075
      10A     -0.890938    11A     -0.725615    12A     -0.576834
      13A     -0.509612    14A     -0.489347    15A     -0.460484
      16A     -0.441732    17A     -0.418641    18A     -0.373324
      19A     -0.356604    20A     -0.306661    21A     -0.267487
      22A     -0.232876    23A     -0.210838    24A     -0.186908

  @DF-RHF Final Energy:  -341.12613389991964

   => Energetics <=

    Nuclear Repulsion Energy =            231.8434368137506283
    One-Electron Energy =                -937.3773092626603329
    Two-Electron Energy =                 364.4077385489900962
    Total Energy =                       -341.1261338999196369
  Basis Set: (AUG-CC-PVTZ AUX)
    Blend: AUG-CC-PVTZ-RI
    Molecular point group: c1

    Geometry (in Angstrom), charge = -1, multiplicity = 1:

       Center              X                  Y                   Z               Mass
    ------------   -----------------  -----------------  -----------------  -----------------
         O            1.012565582629    -0.703525293915     0.033162088464    15.994914619570
         O            0.030550582629     1.379717706085    -0.172784911536    15.994914619570
         O            2.323799582629    -0.115768293915     0.238631088464    15.994914619570
         C           -1.269145417371    -0.634537293915    -0.401796911536    12.000000000000
         C           -2.420598417371    -0.034033293915     0.398562088464    12.000000000000
         C            0.102520882629     0.080052506085    -0.144131911536    12.000000000000
         H           -1.500982417371    -0.573049293915    -1.473401911536     1.007825032230
         H           -1.116122417371    -1.690143293915    -0.159405911536     1.007825032230
         H           -3.378746417371    -0.511515293915     0.161667088464     1.007825032230
         H           -2.487008417371     1.033973706085     0.182174088464     1.007825032230
         H           -2.240087417371    -0.146219293915     1.472304088464     1.007825032230

  Basis Set: AUG-CC-PVTZ
    Blend: AUG-CC-PVTZ
  Basis Set: (AUG-CC-PVTZ AUX)
    Blend: AUG-CC-PVTZ-JKFIT
	 Reference Energy          =    -341.1261338999196369 [Eh]
	 Singles Energy            =      -0.0000000000000000 [Eh]
	 Same-Spin Energy          =      -0.3284579211985963 [Eh]
	 Opposite-Spin Energy      =      -1.0163212689767429 [Eh]
	 Correlation Energy        =      -1.3447791901753392 [Eh]
	 Total Energy              =    -342.4709130900949958 [Eh]

	 ================> DF-SCS-MP2 Energies <==================
	-----------------------------------------------------------
	 SCS Same-Spin Scale       =       0.3333333333333333 [-]
	 SCS Opposite-Spin Scale   =       1.2000000000000000 [-]
	 SCS Same-Spin Energy      =      -0.1094859737328654 [Eh]
	 SCS Opposite-Spin Energy  =      -1.2195855227720915 [Eh]
	 SCS Correlation Energy    =      -1.3290714965049570 [Eh]
	 SCS Total Energy          =    -342.4552053964246170 [Eh]
	-----------------------------------------------------------

  Dipole Moment: [D]
     X:    -7.0191      Y:    -2.3992      Z:    -0.5799     Total:     7.4405

*** Psi4 exiting successfully. Buy a developer a beer!
