                               Psi4 1.4a3.dev225

  ==> Input File <==

--------------------------------------------------------------------------
#psi4
#
memory 32 gb

molecule  {
-1 1
  O        1.1351350    -0.6918790     0.0330860
  O        0.1531200     1.3913640    -0.1728610
  O        2.4463690    -0.1041220     0.2385550
  C       -1.1465760    -0.6228910    -0.4018730
  C       -2.2980290    -0.0223870     0.3984860
  C        0.0001885     0.2853464    -0.1880231
  H       -1.3784130    -0.5614030    -1.4734780
  H       -0.9935530    -1.6784970    -0.1594820
  H       -3.2561770    -0.4998690     0.1615910
  H       -2.3644390     1.0456200     0.1820980
  H       -2.1175180    -0.1345730     1.4722280
units angstrom
no_reorient  #important for SAPT in psi4, default
symmetry c1  #important for SAPT in psi4, default
}

set PROPERTIES_ORIGIN ["COM"]
properties('MP2/aug-cc-pvtz', properties = ['dipole'])
--------------------------------------------------------------------------

    Molecular point group: c1
  Charge       = -1
  Multiplicity = 1
  Basis Set: AUG-CC-PVTZ
    Blend: AUG-CC-PVTZ
  Basis Set: (AUG-CC-PVTZ AUX)
    Blend: AUG-CC-PVTZ-JKFIT

    Orbital Energies [Eh]
    ---------------------

    Doubly Occupied:

       1A    -20.387445     2A    -20.364911     3A    -20.268749
       4A    -11.185335     5A    -11.105064     6A    -11.101972
       7A     -1.299529     8A     -1.137871     9A     -0.937611
      10A     -0.852935    11A     -0.743512    12A     -0.583663
      13A     -0.524240    14A     -0.506805    15A     -0.467484
      16A     -0.439478    17A     -0.413311    18A     -0.390840
      19A     -0.369788    20A     -0.305983    21A     -0.285620
      22A     -0.258419    23A     -0.145559    24A     -0.126052

  @DF-RHF Final Energy:  -341.09070519631217

   => Energetics <=

    Nuclear Repulsion Energy =            231.4102706234908737
    One-Electron Energy =                -936.5976007319337668
    Two-Electron Energy =                 364.0966249121307214
    Total Energy =                       -341.0907051963121717
  Basis Set: (AUG-CC-PVTZ AUX)
    Blend: AUG-CC-PVTZ-RI
    Molecular point group: c1

    Geometry (in Angstrom), charge = -1, multiplicity = 1:

       Center              X                  Y                   Z               Mass
    ------------   -----------------  -----------------  -----------------  -----------------
         O            1.042881290424    -0.729628082140     0.039068158440    15.994914619570
         O            0.060866290424     1.353614917860    -0.166878841560    15.994914619570
         O            2.354115290424    -0.141871082140     0.244537158440    15.994914619570
         C           -1.238829709576    -0.660640082140    -0.395890841560    12.000000000000
         C           -2.390282709576    -0.060136082140     0.404468158440    12.000000000000
         C           -0.092065209576     0.247597317860    -0.182040941560    12.000000000000
         H           -1.470666709576    -0.599152082140    -1.467495841560     1.007825032230
         H           -1.085806709576    -1.716246082140    -0.153499841560     1.007825032230
         H           -3.348430709576    -0.537618082140     0.167573158440     1.007825032230
         H           -2.456692709576     1.007870917860     0.188080158440     1.007825032230
         H           -2.209771709576    -0.172322082140     1.478210158440     1.007825032230

  Basis Set: AUG-CC-PVTZ
    Blend: AUG-CC-PVTZ
  Basis Set: (AUG-CC-PVTZ AUX)
    Blend: AUG-CC-PVTZ-JKFIT
	 Reference Energy          =    -341.0907051963121717 [Eh]
	 Singles Energy            =      -0.0000000000000000 [Eh]
	 Same-Spin Energy          =      -0.3321915342288262 [Eh]
	 Opposite-Spin Energy      =      -1.0237944490249891 [Eh]
	 Correlation Energy        =      -1.3559859832538153 [Eh]
	 Total Energy              =    -342.4466911795659598 [Eh]

	 ================> DF-SCS-MP2 Energies <==================
	-----------------------------------------------------------
	 SCS Same-Spin Scale       =       0.3333333333333333 [-]
	 SCS Opposite-Spin Scale   =       1.2000000000000000 [-]
	 SCS Same-Spin Energy      =      -0.1107305114096087 [Eh]
	 SCS Opposite-Spin Energy  =      -1.2285533388299867 [Eh]
	 SCS Correlation Energy    =      -1.3392838502395954 [Eh]
	 SCS Total Energy          =    -342.4299890465517819 [Eh]
	-----------------------------------------------------------

  Dipole Moment: [D]
     X:    -9.4463      Y:    -0.6451      Z:    -1.0131     Total:     9.5224

*** Psi4 exiting successfully. Buy a developer a beer!
