                               Psi4 1.4a3.dev225

  ==> Input File <==

--------------------------------------------------------------------------
#psi4
#
memory 32 gb

molecule  {
-1 1
  O        1.1351350    -0.6918790     0.0330860
  O        0.1531200     1.3913640    -0.1728610
  O        2.4463690    -0.1041220     0.2385550
  C       -1.0815526    -0.5545071    -0.3525513
  C       -2.2980290    -0.0223870     0.3984860
  C        0.1501230     0.1562480    -0.1588130
  H       -1.3784130    -0.5614030    -1.4734780
  H       -0.9935530    -1.6784970    -0.1594820
  H       -3.2561770    -0.4998690     0.1615910
  H       -2.3644390     1.0456200     0.1820980
  H       -2.1175180    -0.1345730     1.4722280
units angstrom
no_reorient  #important for SAPT in psi4, default
symmetry c1  #important for SAPT in psi4, default
}

set PROPERTIES_ORIGIN ["COM"]
properties('MP2/aug-cc-pvtz', properties = ['dipole'])
--------------------------------------------------------------------------

    Molecular point group: c1
  Charge       = -1
  Multiplicity = 1
  Basis Set: AUG-CC-PVTZ
    Blend: AUG-CC-PVTZ
  Basis Set: (AUG-CC-PVTZ AUX)
    Blend: AUG-CC-PVTZ-JKFIT

    Orbital Energies [Eh]
    ---------------------

    Doubly Occupied:

       1A    -20.412033     2A    -20.345750     3A    -20.300890
       4A    -11.182202     5A    -11.098448     6A    -11.097173
       7A     -1.259305     8A     -1.160837     9A     -0.945425
      10A     -0.892764    11A     -0.741538    12A     -0.571156
      13A     -0.512348    14A     -0.487543    15A     -0.458212
      16A     -0.439092    17A     -0.418285    18A     -0.364131
      19A     -0.348842    20A     -0.311843    21A     -0.287550
      22A     -0.258738    23A     -0.190596    24A     -0.165660

  @DF-RHF Final Energy:  -341.12690005428368

   => Energetics <=

    Nuclear Repulsion Energy =            232.9806153819961310
    One-Electron Energy =                -939.7143076022391597
    Two-Electron Energy =                 365.6067921659593480
    Total Energy =                       -341.1269000542836807
  Basis Set: (AUG-CC-PVTZ AUX)
    Blend: AUG-CC-PVTZ-RI
    Molecular point group: c1

    Geometry (in Angstrom), charge = -1, multiplicity = 1:

       Center              X                  Y                   Z               Mass
    ------------   -----------------  -----------------  -----------------  -----------------
         O            1.013905973710    -0.721444052306     0.028482440134    15.994914619570
         O            0.031890973710     1.361798947694    -0.177464559866    15.994914619570
         O            2.325139973710    -0.133687052306     0.233951440134    15.994914619570
         C           -1.202781626290    -0.584072152306    -0.357154859866    12.000000000000
         C           -2.419258026290    -0.051952052306     0.393882440134    12.000000000000
         C            0.028893973710     0.126682947694    -0.163416559866    12.000000000000
         H           -1.499642026290    -0.590968052306    -1.478081559866     1.007825032230
         H           -1.114782026290    -1.708062052306    -0.164085559866     1.007825032230
         H           -3.377406026290    -0.529434052306     0.156987440134     1.007825032230
         H           -2.485668026290     1.016054947694     0.177494440134     1.007825032230
         H           -2.238747026290    -0.164138052306     1.467624440134     1.007825032230

  Basis Set: AUG-CC-PVTZ
    Blend: AUG-CC-PVTZ
  Basis Set: (AUG-CC-PVTZ AUX)
    Blend: AUG-CC-PVTZ-JKFIT
	 Reference Energy          =    -341.1269000542836807 [Eh]
	 Singles Energy            =      -0.0000000000000000 [Eh]
	 Same-Spin Energy          =      -0.3303180565153280 [Eh]
	 Opposite-Spin Energy      =      -1.0198867479876985 [Eh]
	 Correlation Energy        =      -1.3502048045030266 [Eh]
	 Total Energy              =    -342.4771048587867313 [Eh]

	 ================> DF-SCS-MP2 Energies <==================
	-----------------------------------------------------------
	 SCS Same-Spin Scale       =       0.3333333333333333 [-]
	 SCS Opposite-Spin Scale   =       1.2000000000000000 [-]
	 SCS Same-Spin Energy      =      -0.1101060188384426 [Eh]
	 SCS Opposite-Spin Energy  =      -1.2238640975852382 [Eh]
	 SCS Correlation Energy    =      -1.3339701164236808 [Eh]
	 SCS Total Energy          =    -342.4608701707073806 [Eh]
	-----------------------------------------------------------

  Dipole Moment: [D]
     X:    -7.8383      Y:    -1.8093      Z:    -0.6640     Total:     8.0718

*** Psi4 exiting successfully. Buy a developer a beer!
