                               Psi4 1.4a3.dev225

  ==> Input File <==

--------------------------------------------------------------------------
#psi4
#
memory 32 gb

molecule  {
-1 1
  O        1.1351350    -0.6918790     0.0330860
  O        0.1531200     1.3913640    -0.1728610
  O        2.4463690    -0.1041220     0.2385550
  C       -1.1465760    -0.6228910    -0.4018730
  C       -2.2980290    -0.0223870     0.3984860
  C        0.1876066     0.1239734    -0.1515105
  H       -1.3784130    -0.5614030    -1.4734780
  H       -0.9935530    -1.6784970    -0.1594820
  H       -3.2561770    -0.4998690     0.1615910
  H       -2.3644390     1.0456200     0.1820980
  H       -2.1175180    -0.1345730     1.4722280
units angstrom
no_reorient  #important for SAPT in psi4, default
symmetry c1  #important for SAPT in psi4, default
}

set PROPERTIES_ORIGIN ["COM"]
properties('MP2/aug-cc-pvtz', properties = ['dipole'])
--------------------------------------------------------------------------

    Molecular point group: c1
  Charge       = -1
  Multiplicity = 1
  Basis Set: AUG-CC-PVTZ
    Blend: AUG-CC-PVTZ
  Basis Set: (AUG-CC-PVTZ AUX)
    Blend: AUG-CC-PVTZ-JKFIT

    Orbital Energies [Eh]
    ---------------------

    Doubly Occupied:

       1A    -20.423486     2A    -20.336950     3A    -20.309663
       4A    -11.186655     5A    -11.092687     6A    -11.090622
       7A     -1.278919     8A     -1.139352     9A     -0.950578
      10A     -0.892879    11A     -0.729090    12A     -0.570627
      13A     -0.507411    14A     -0.490477    15A     -0.453049
      16A     -0.439550    17A     -0.416112    18A     -0.374383
      19A     -0.360168    20A     -0.311483    21A     -0.279163
      22A     -0.242705    23A     -0.201018    24A     -0.176441

  @DF-RHF Final Energy:  -341.13663550352129

   => Energetics <=

    Nuclear Repulsion Energy =            231.6268829728603009
    One-Electron Energy =                -937.0201005752368246
    Two-Electron Energy =                 364.2565820988552900
    Total Energy =                       -341.1366355035212905
  Basis Set: (AUG-CC-PVTZ AUX)
    Blend: AUG-CC-PVTZ-RI
    Molecular point group: c1

    Geometry (in Angstrom), charge = -1, multiplicity = 1:

       Center              X                  Y                   Z               Mass
    ------------   -----------------  -----------------  -----------------  -----------------
         O            1.017618209582    -0.707875758619     0.034146431214    15.994914619570
         O            0.035603209582     1.375367241381    -0.171800568786    15.994914619570
         O            2.328852209582    -0.120118758619     0.239615431214    15.994914619570
         C           -1.264092790418    -0.638887758619    -0.400812568786    12.000000000000
         C           -2.415545790418    -0.038383758619     0.399546431214    12.000000000000
         C            0.070089809582     0.107976641381    -0.150450068786    12.000000000000
         H           -1.495929790418    -0.577399758619    -1.472417568786     1.007825032230
         H           -1.111069790418    -1.694493758619    -0.158421568786     1.007825032230
         H           -3.373693790418    -0.515865758619     0.162651431214     1.007825032230
         H           -2.481955790418     1.029623241381     0.183158431214     1.007825032230
         H           -2.235034790418    -0.150569758619     1.473288431214     1.007825032230

  Basis Set: AUG-CC-PVTZ
    Blend: AUG-CC-PVTZ
  Basis Set: (AUG-CC-PVTZ AUX)
    Blend: AUG-CC-PVTZ-JKFIT
	 Reference Energy          =    -341.1366355035212905 [Eh]
	 Singles Energy            =      -0.0000000000000000 [Eh]
	 Same-Spin Energy          =      -0.3289937585445602 [Eh]
	 Opposite-Spin Energy      =      -1.0174427847983731 [Eh]
	 Correlation Energy        =      -1.3464365433429333 [Eh]
	 Total Energy              =    -342.4830720468642085 [Eh]

	 ================> DF-SCS-MP2 Energies <==================
	-----------------------------------------------------------
	 SCS Same-Spin Scale       =       0.3333333333333333 [-]
	 SCS Opposite-Spin Scale   =       1.2000000000000000 [-]
	 SCS Same-Spin Energy      =      -0.1096645861815201 [Eh]
	 SCS Opposite-Spin Energy  =      -1.2209313417580476 [Eh]
	 SCS Correlation Energy    =      -1.3305959279395676 [Eh]
	 SCS Total Energy          =    -342.4672314314608457 [Eh]
	-----------------------------------------------------------

  Dipole Moment: [D]
     X:    -7.4085      Y:    -2.1026      Z:    -0.6502     Total:     7.7285

*** Psi4 exiting successfully. Buy a developer a beer!
