                               Psi4 1.4a3.dev225

  ==> Input File <==

--------------------------------------------------------------------------
#psi4
#
memory 32 gb

molecule  {
-1 1
  O        1.1351350    -0.6918790     0.0330860
  O        0.1531200     1.3913640    -0.1728610
  O        2.4463690    -0.1041220     0.2385550
  C       -1.1465760    -0.6228910    -0.4018730
  C       -2.2980290    -0.0223870     0.3984860
  C        0.2347542     0.2070998    -0.1429493
  H       -1.3784130    -0.5614030    -1.4734780
  H       -0.9935530    -1.6784970    -0.1594820
  H       -3.2561770    -0.4998690     0.1615910
  H       -2.3644390     1.0456200     0.1820980
  H       -2.1175180    -0.1345730     1.4722280
units angstrom
no_reorient  #important for SAPT in psi4, default
symmetry c1  #important for SAPT in psi4, default
}

set PROPERTIES_ORIGIN ["COM"]
properties('MP2/aug-cc-pvtz', properties = ['dipole'])
--------------------------------------------------------------------------

    Molecular point group: c1
  Charge       = -1
  Multiplicity = 1
  Basis Set: AUG-CC-PVTZ
    Blend: AUG-CC-PVTZ
  Basis Set: (AUG-CC-PVTZ AUX)
    Blend: AUG-CC-PVTZ-JKFIT

    Orbital Energies [Eh]
    ---------------------

    Doubly Occupied:

       1A    -20.418445     2A    -20.355200     3A    -20.302828
       4A    -11.187275     5A    -11.088134     6A    -11.081853
       7A     -1.278068     8A     -1.194877     9A     -0.938395
      10A     -0.882304    11A     -0.712216    12A     -0.569417
      13A     -0.506144    14A     -0.485106    15A     -0.468453
      16A     -0.445515    17A     -0.413832    18A     -0.371154
      19A     -0.357695    20A     -0.317040    21A     -0.308947
      22A     -0.233574    23A     -0.195872    24A     -0.172355

  @DF-RHF Final Energy:  -341.13326751292510

   => Energetics <=

    Nuclear Repulsion Energy =            231.9352147253357828
    One-Electron Energy =                -937.5675669471647780
    Two-Electron Energy =                 364.4990847089039221
    Total Energy =                       -341.1332675129251015
  Basis Set: (AUG-CC-PVTZ AUX)
    Blend: AUG-CC-PVTZ-RI
    Molecular point group: c1

    Geometry (in Angstrom), charge = -1, multiplicity = 1:

       Center              X                  Y                   Z               Mass
    ------------   -----------------  -----------------  -----------------  -----------------
         O            1.011262934235    -0.719080807456     0.032992421608    15.994914619570
         O            0.029247934235     1.364162192544    -0.172954578392    15.994914619570
         O            2.322496934235    -0.131323807456     0.238461421608    15.994914619570
         C           -1.270448065765    -0.650092807456    -0.401966578392    12.000000000000
         C           -2.421901065765    -0.049588807456     0.398392421608    12.000000000000
         C            0.110882134235     0.179897992544    -0.143042878392    12.000000000000
         H           -1.502285065765    -0.588604807456    -1.473571578392     1.007825032230
         H           -1.117425065765    -1.705698807456    -0.159575578392     1.007825032230
         H           -3.380049065765    -0.527070807456     0.161497421608     1.007825032230
         H           -2.488311065765     1.018418192544     0.182004421608     1.007825032230
         H           -2.241390065765    -0.161774807456     1.472134421608     1.007825032230

  Basis Set: AUG-CC-PVTZ
    Blend: AUG-CC-PVTZ
  Basis Set: (AUG-CC-PVTZ AUX)
    Blend: AUG-CC-PVTZ-JKFIT
	 Reference Energy          =    -341.1332675129251015 [Eh]
	 Singles Energy            =      -0.0000000000000000 [Eh]
	 Same-Spin Energy          =      -0.3284091188751639 [Eh]
	 Opposite-Spin Energy      =      -1.0163626085683699 [Eh]
	 Correlation Energy        =      -1.3447717274435338 [Eh]
	 Total Energy              =    -342.4780392403686164 [Eh]

	 ================> DF-SCS-MP2 Energies <==================
	-----------------------------------------------------------
	 SCS Same-Spin Scale       =       0.3333333333333333 [-]
	 SCS Opposite-Spin Scale   =       1.2000000000000000 [-]
	 SCS Same-Spin Energy      =      -0.1094697062917213 [Eh]
	 SCS Opposite-Spin Energy  =      -1.2196351302820438 [Eh]
	 SCS Correlation Energy    =      -1.3291048365737652 [Eh]
	 SCS Total Energy          =    -342.4623723494988781 [Eh]
	-----------------------------------------------------------

  Dipole Moment: [D]
     X:    -7.3194      Y:    -1.4269      Z:    -0.6578     Total:     7.4862

*** Psi4 exiting successfully. Buy a developer a beer!
