                               Psi4 1.4a3.dev225

  ==> Input File <==

--------------------------------------------------------------------------
#psi4
#
memory 32 gb

molecule  {
-1 1
  O        1.1351350    -0.6918790     0.0330860
  O        0.1531200     1.3913640    -0.1728610
  O        2.4463690    -0.1041220     0.2385550
  C       -1.1465760    -0.6228910    -0.4018730
  C       -2.2980290    -0.0223870     0.3984860
  C        0.0706731     0.2869831    -0.2069425
  H       -1.3784130    -0.5614030    -1.4734780
  H       -0.9935530    -1.6784970    -0.1594820
  H       -3.2561770    -0.4998690     0.1615910
  H       -2.3644390     1.0456200     0.1820980
  H       -2.1175180    -0.1345730     1.4722280
units angstrom
no_reorient  #important for SAPT in psi4, default
symmetry c1  #important for SAPT in psi4, default
}

set PROPERTIES_ORIGIN ["COM"]
properties('MP2/aug-cc-pvtz', properties = ['dipole'])
--------------------------------------------------------------------------

    Molecular point group: c1
  Charge       = -1
  Multiplicity = 1
  Basis Set: AUG-CC-PVTZ
    Blend: AUG-CC-PVTZ
  Basis Set: (AUG-CC-PVTZ AUX)
    Blend: AUG-CC-PVTZ-JKFIT

    Orbital Energies [Eh]
    ---------------------

    Doubly Occupied:

       1A    -20.383331     2A    -20.375541     3A    -20.274068
       4A    -11.182577     5A    -11.100153     6A    -11.095993
       7A     -1.304290     8A     -1.155275     9A     -0.925023
      10A     -0.862792    11A     -0.733274    12A     -0.576845
      13A     -0.521335    14A     -0.499591    15A     -0.470840
      16A     -0.442374    17A     -0.412917    18A     -0.385346
      19A     -0.366771    20A     -0.314266    21A     -0.295717
      22A     -0.254653    23A     -0.155400    24A     -0.134580

  @DF-RHF Final Energy:  -341.10281183563359

   => Energetics <=

    Nuclear Repulsion Energy =            231.5887939756747187
    One-Electron Energy =                -936.9373041212426187
    Two-Electron Energy =                 364.2456983099342551
    Total Energy =                       -341.1028118356335881
  Basis Set: (AUG-CC-PVTZ AUX)
    Blend: AUG-CC-PVTZ-RI
    Molecular point group: c1

    Geometry (in Angstrom), charge = -1, multiplicity = 1:

       Center              X                  Y                   Z               Mass
    ------------   -----------------  -----------------  -----------------  -----------------
         O            1.033380296935    -0.729848701624     0.041618404824    15.994914619570
         O            0.051365296935     1.353394298376    -0.164328595176    15.994914619570
         O            2.344614296935    -0.142091701624     0.247087404824    15.994914619570
         C           -1.248330703065    -0.660860701624    -0.393340595176    12.000000000000
         C           -2.399783703065    -0.060356701624     0.407018404824    12.000000000000
         C           -0.031081603065     0.249013398376    -0.198410095176    12.000000000000
         H           -1.480167703065    -0.599372701624    -1.464945595176     1.007825032230
         H           -1.095307703065    -1.716466701624    -0.150949595176     1.007825032230
         H           -3.357931703065    -0.537838701624     0.170123404824     1.007825032230
         H           -2.466193703065     1.007650298376     0.190630404824     1.007825032230
         H           -2.219272703065    -0.172542701624     1.480760404824     1.007825032230

  Basis Set: AUG-CC-PVTZ
    Blend: AUG-CC-PVTZ
  Basis Set: (AUG-CC-PVTZ AUX)
    Blend: AUG-CC-PVTZ-JKFIT
	 Reference Energy          =    -341.1028118356335881 [Eh]
	 Singles Energy            =      -0.0000000000000000 [Eh]
	 Same-Spin Energy          =      -0.3304108203138678 [Eh]
	 Opposite-Spin Energy      =      -1.0205203697081981 [Eh]
	 Correlation Energy        =      -1.3509311900220660 [Eh]
	 Total Energy              =    -342.4537430256556263 [Eh]

	 ================> DF-SCS-MP2 Energies <==================
	-----------------------------------------------------------
	 SCS Same-Spin Scale       =       0.3333333333333333 [-]
	 SCS Opposite-Spin Scale   =       1.2000000000000000 [-]
	 SCS Same-Spin Energy      =      -0.1101369401046226 [Eh]
	 SCS Opposite-Spin Energy  =      -1.2246244436498377 [Eh]
	 SCS Correlation Energy    =      -1.3347613837544603 [Eh]
	 SCS Total Energy          =    -342.4375732193880708 [Eh]
	-----------------------------------------------------------

  Dipole Moment: [D]
     X:    -8.9767      Y:    -0.6488      Z:    -0.9867     Total:     9.0540

*** Psi4 exiting successfully. Buy a developer a beer!
