                               Psi4 1.4a3.dev225

  ==> Input File <==

--------------------------------------------------------------------------
#psi4
#
memory 32 gb

molecule  {
-1 1
  O        1.1351350    -0.6918790     0.0330860
  O        0.1531200     1.3913640    -0.1728610
  O        2.4463690    -0.1041220     0.2385550
  C       -1.1465760    -0.6228910    -0.4018730
  C       -2.2980290    -0.0223870     0.3984860
  C        0.1501230     0.1562480    -0.1588130
  H       -1.3784130    -0.5614030    -1.4734780
  H       -0.9935530    -1.6784970    -0.1594820
  H       -3.2124830    -0.4780946     0.1723940
  H       -2.3644390     1.0456200     0.1820980
  H       -2.1175180    -0.1345730     1.4722280
units angstrom
no_reorient  #important for SAPT in psi4, default
symmetry c1  #important for SAPT in psi4, default
}

set PROPERTIES_ORIGIN ["COM"]
properties('MP2/aug-cc-pvtz', properties = ['dipole'])
--------------------------------------------------------------------------

    Molecular point group: c1
  Charge       = -1
  Multiplicity = 1
  Basis Set: AUG-CC-PVTZ
    Blend: AUG-CC-PVTZ
  Basis Set: (AUG-CC-PVTZ AUX)
    Blend: AUG-CC-PVTZ-JKFIT

    Orbital Energies [Eh]
    ---------------------

    Doubly Occupied:

       1A    -20.411828     2A    -20.346906     3A    -20.300351
       4A    -11.186434     5A    -11.091759     6A    -11.088266
       7A     -1.256461     8A     -1.159077     9A     -0.939066
      10A     -0.893780    11A     -0.736144    12A     -0.567984
      13A     -0.507312    14A     -0.492095    15A     -0.453350
      16A     -0.436748    17A     -0.417155    18A     -0.375507
      19A     -0.362565    20A     -0.311038    21A     -0.290276
      22A     -0.251177    23A     -0.190081    24A     -0.165490

  @DF-RHF Final Energy:  -341.13845319547556

   => Energetics <=

    Nuclear Repulsion Energy =            231.7044080042815324
    One-Electron Energy =                -937.2240260125844316
    Two-Electron Energy =                 364.3811648128273646
    Total Energy =                       -341.1384531954755630
  Basis Set: (AUG-CC-PVTZ AUX)
    Blend: AUG-CC-PVTZ-RI
    Molecular point group: c1

    Geometry (in Angstrom), charge = -1, multiplicity = 1:

       Center              X                  Y                   Z               Mass
    ------------   -----------------  -----------------  -----------------  -----------------
         O            1.022176170244    -0.712472727835     0.035008474922    15.994914619570
         O            0.040161170244     1.370770272165    -0.170938525078    15.994914619570
         O            2.333410170244    -0.124715727835     0.240477474922    15.994914619570
         C           -1.259534829756    -0.643484727835    -0.399950525078    12.000000000000
         C           -2.410987829756    -0.042980727835     0.400408474922    12.000000000000
         C            0.037164170244     0.135654272165    -0.156890525078    12.000000000000
         H           -1.491371829756    -0.581996727835    -1.471555525078     1.007825032230
         H           -1.106511829756    -1.699090727835    -0.157559525078     1.007825032230
         H           -3.325441829756    -0.498688327835     0.174316474922     1.007825032230
         H           -2.477397829756     1.025026272165     0.184020474922     1.007825032230
         H           -2.230476829756    -0.155166727835     1.474150474922     1.007825032230

  Basis Set: AUG-CC-PVTZ
    Blend: AUG-CC-PVTZ
  Basis Set: (AUG-CC-PVTZ AUX)
    Blend: AUG-CC-PVTZ-JKFIT
	 Reference Energy          =    -341.1384531954755630 [Eh]
	 Singles Energy            =      -0.0000000000000000 [Eh]
	 Same-Spin Energy          =      -0.3295672801817970 [Eh]
	 Opposite-Spin Energy      =      -1.0182798554462871 [Eh]
	 Correlation Energy        =      -1.3478471356280841 [Eh]
	 Total Energy              =    -342.4863003311036209 [Eh]

	 ================> DF-SCS-MP2 Energies <==================
	-----------------------------------------------------------
	 SCS Same-Spin Scale       =       0.3333333333333333 [-]
	 SCS Opposite-Spin Scale   =       1.2000000000000000 [-]
	 SCS Same-Spin Energy      =      -0.1098557600605990 [Eh]
	 SCS Opposite-Spin Energy  =      -1.2219358265355444 [Eh]
	 SCS Correlation Energy    =      -1.3317915865961434 [Eh]
	 SCS Total Energy          =    -342.4702447820716884 [Eh]
	-----------------------------------------------------------

  Dipole Moment: [D]
     X:    -7.8591      Y:    -1.8265      Z:    -0.7235     Total:     8.1009

*** Psi4 exiting successfully. Buy a developer a beer!
