                               Psi4 1.4a3.dev225

  ==> Input File <==

--------------------------------------------------------------------------
#psi4
#
memory 32 gb

molecule  {
-1 1
  O        1.1351350    -0.6918790     0.0330860
  O        0.1531200     1.3913640    -0.1728610
  O        2.4463690    -0.1041220     0.2385550
  C       -1.1981097    -0.5941425    -0.4905004
  C       -2.2980290    -0.0223870     0.3984860
  C        0.1501230     0.1562480    -0.1588130
  H       -1.3784130    -0.5614030    -1.4734780
  H       -0.9935530    -1.6784970    -0.1594820
  H       -3.2561770    -0.4998690     0.1615910
  H       -2.3644390     1.0456200     0.1820980
  H       -2.1175180    -0.1345730     1.4722280
units angstrom
no_reorient  #important for SAPT in psi4, default
symmetry c1  #important for SAPT in psi4, default
}

set PROPERTIES_ORIGIN ["COM"]
properties('MP2/aug-cc-pvtz', properties = ['dipole'])
--------------------------------------------------------------------------

    Molecular point group: c1
  Charge       = -1
  Multiplicity = 1
  Basis Set: AUG-CC-PVTZ
    Blend: AUG-CC-PVTZ
  Basis Set: (AUG-CC-PVTZ AUX)
    Blend: AUG-CC-PVTZ-JKFIT

    Orbital Energies [Eh]
    ---------------------

    Doubly Occupied:

       1A    -20.413266     2A    -20.347141     3A    -20.301910
       4A    -11.188781     5A    -11.095189     6A    -11.090748
       7A     -1.256155     8A     -1.159437     9A     -0.936085
      10A     -0.893571    11A     -0.732709    12A     -0.569255
      13A     -0.505865    14A     -0.491501    15A     -0.451309
      16A     -0.437136    17A     -0.409141    18A     -0.393662
      19A     -0.352493    20A     -0.310696    21A     -0.291486
      22A     -0.244982    23A     -0.191398    24A     -0.166829

  @DF-RHF Final Energy:  -341.12683736799954

   => Energetics <=

    Nuclear Repulsion Energy =            230.7630247125497363
    One-Electron Energy =                -935.3182364837513205
    Two-Electron Energy =                 363.4283744032020422
    Total Energy =                       -341.1268373679995420
  Basis Set: (AUG-CC-PVTZ AUX)
    Blend: AUG-CC-PVTZ-RI
    Molecular point group: c1

    Geometry (in Angstrom), charge = -1, multiplicity = 1:

       Center              X                  Y                   Z               Mass
    ------------   -----------------  -----------------  -----------------  -----------------
         O            1.029617324108    -0.716101386286     0.047077331799    15.994914619570
         O            0.047602324108     1.367141613714    -0.158869668201    15.994914619570
         O            2.340851324108    -0.128344386286     0.252546331799    15.994914619570
         C           -1.303627375892    -0.618364886286    -0.476509068201    12.000000000000
         C           -2.403546675892    -0.046609386286     0.412477331799    12.000000000000
         C            0.044605324108     0.132025613714    -0.144821668201    12.000000000000
         H           -1.483930675892    -0.585625386286    -1.459486668201     1.007825032230
         H           -1.099070675892    -1.702719386286    -0.145490668201     1.007825032230
         H           -3.361694675892    -0.524091386286     0.175582331799     1.007825032230
         H           -2.469956675892     1.021397613714     0.196089331799     1.007825032230
         H           -2.223035675892    -0.158795386286     1.486219331799     1.007825032230

  Basis Set: AUG-CC-PVTZ
    Blend: AUG-CC-PVTZ
  Basis Set: (AUG-CC-PVTZ AUX)
    Blend: AUG-CC-PVTZ-JKFIT
	 Reference Energy          =    -341.1268373679995420 [Eh]
	 Singles Energy            =      -0.0000000000000000 [Eh]
	 Same-Spin Energy          =      -0.3294076853624847 [Eh]
	 Opposite-Spin Energy      =      -1.0187033666331886 [Eh]
	 Correlation Energy        =      -1.3481110519956734 [Eh]
	 Total Energy              =    -342.4749484199952008 [Eh]

	 ================> DF-SCS-MP2 Energies <==================
	-----------------------------------------------------------
	 SCS Same-Spin Scale       =       0.3333333333333333 [-]
	 SCS Opposite-Spin Scale   =       1.2000000000000000 [-]
	 SCS Same-Spin Energy      =      -0.1098025617874949 [Eh]
	 SCS Opposite-Spin Energy  =      -1.2224440399598262 [Eh]
	 SCS Correlation Energy    =      -1.3322466017473211 [Eh]
	 SCS Total Energy          =    -342.4590839697468709 [Eh]
	-----------------------------------------------------------

  Dipole Moment: [D]
     X:    -7.7641      Y:    -1.7113      Z:    -0.8176     Total:     7.9924

*** Psi4 exiting successfully. Buy a developer a beer!
