                               Psi4 1.4a3.dev225

  ==> Input File <==

--------------------------------------------------------------------------
#psi4
#
memory 32 gb

molecule  {
-1 1
  O        1.1351350    -0.6918790     0.0330860
  O        0.1531200     1.3913640    -0.1728610
  O        2.4463690    -0.1041220     0.2385550
  C       -1.1465760    -0.6228910    -0.4018730
  C       -2.2980290    -0.0223870     0.3984860
  C        0.1251784     0.2008477    -0.1745858
  H       -1.3784130    -0.5614030    -1.4734780
  H       -0.9935530    -1.6784970    -0.1594820
  H       -3.2561770    -0.4998690     0.1615910
  H       -2.3644390     1.0456200     0.1820980
  H       -2.1175180    -0.1345730     1.4722280
units angstrom
no_reorient  #important for SAPT in psi4, default
symmetry c1  #important for SAPT in psi4, default
}

set PROPERTIES_ORIGIN ["COM"]
properties('MP2/aug-cc-pvtz', properties = ['dipole'])
--------------------------------------------------------------------------

    Molecular point group: c1
  Charge       = -1
  Multiplicity = 1
  Basis Set: AUG-CC-PVTZ
    Blend: AUG-CC-PVTZ
  Basis Set: (AUG-CC-PVTZ AUX)
    Blend: AUG-CC-PVTZ-JKFIT

    Orbital Energies [Eh]
    ---------------------

    Doubly Occupied:

       1A    -20.400449     2A    -20.359892     3A    -20.291458
       4A    -11.186139     5A    -11.096640     6A    -11.093015
       7A     -1.252548     8A     -1.175729     9A     -0.930396
      10A     -0.885620    11A     -0.732475    12A     -0.568815
      13A     -0.506274    14A     -0.493234    15A     -0.461077
      16A     -0.433773    17A     -0.409248    18A     -0.378787
      19A     -0.363630    20A     -0.307692    21A     -0.304761
      22A     -0.256594    23A     -0.179305    24A     -0.155327

  @DF-RHF Final Energy:  -341.13573619111446

   => Energetics <=

    Nuclear Repulsion Energy =            231.4571077735932363
    One-Electron Energy =                -936.7399369275132130
    Two-Electron Energy =                 364.1470929628054591
    Total Energy =                       -341.1357361911144608
  Basis Set: (AUG-CC-PVTZ AUX)
    Blend: AUG-CC-PVTZ-RI
    Molecular point group: c1

    Geometry (in Angstrom), charge = -1, multiplicity = 1:

       Center              X                  Y                   Z               Mass
    ------------   -----------------  -----------------  -----------------  -----------------
         O            1.026033238138    -0.718238053700     0.037256873425    15.994914619570
         O            0.044018238138     1.365004946300    -0.168690126575    15.994914619570
         O            2.337267238138    -0.130481053700     0.242725873425    15.994914619570
         C           -1.255677761862    -0.649250053700    -0.397702126575    12.000000000000
         C           -2.407130761862    -0.048746053700     0.402656873425    12.000000000000
         C            0.016076638138     0.174488646300    -0.170414926575    12.000000000000
         H           -1.487514761862    -0.587762053700    -1.469307126575     1.007825032230
         H           -1.102654761862    -1.704856053700    -0.155311126575     1.007825032230
         H           -3.365278761862    -0.526228053700     0.165761873425     1.007825032230
         H           -2.473540761862     1.019260946300     0.186268873425     1.007825032230
         H           -2.226619761862    -0.160932053700     1.476398873425     1.007825032230

  Basis Set: AUG-CC-PVTZ
    Blend: AUG-CC-PVTZ
  Basis Set: (AUG-CC-PVTZ AUX)
    Blend: AUG-CC-PVTZ-JKFIT
	 Reference Energy          =    -341.1357361911144608 [Eh]
	 Singles Energy            =      -0.0000000000000000 [Eh]
	 Same-Spin Energy          =      -0.3297442437162517 [Eh]
	 Opposite-Spin Energy      =      -1.0190426222923619 [Eh]
	 Correlation Energy        =      -1.3487868660086135 [Eh]
	 Total Energy              =    -342.4845230571230559 [Eh]

	 ================> DF-SCS-MP2 Energies <==================
	-----------------------------------------------------------
	 SCS Same-Spin Scale       =       0.3333333333333333 [-]
	 SCS Opposite-Spin Scale   =       1.2000000000000000 [-]
	 SCS Same-Spin Energy      =      -0.1099147479054172 [Eh]
	 SCS Opposite-Spin Energy  =      -1.2228511467508343 [Eh]
	 SCS Correlation Energy    =      -1.3327658946562515 [Eh]
	 SCS Total Energy          =    -342.4685020857706945 [Eh]
	-----------------------------------------------------------

  Dipole Moment: [D]
     X:    -8.1782      Y:    -1.4246      Z:    -0.8052     Total:     8.3404

*** Psi4 exiting successfully. Buy a developer a beer!
