                               Psi4 1.4a3.dev225

  ==> Input File <==

--------------------------------------------------------------------------
#psi4
#
memory 32 gb

molecule  {
-1 1
  O        1.1351350    -0.6918790     0.0330860
  O        0.1531200     1.3913640    -0.1728610
  O        2.4463690    -0.1041220     0.2385550
  C       -1.1465760    -0.6228910    -0.4018730
  C       -2.2980290    -0.0223870     0.3984860
  C        0.1378463     0.1786699    -0.1666636
  H       -1.3784130    -0.5614030    -1.4734780
  H       -0.9935530    -1.6784970    -0.1594820
  H       -3.2561770    -0.4998690     0.1615910
  H       -2.3644390     1.0456200     0.1820980
  H       -2.1175180    -0.1345730     1.4722280
units angstrom
no_reorient  #important for SAPT in psi4, default
symmetry c1  #important for SAPT in psi4, default
}

set PROPERTIES_ORIGIN ["COM"]
properties('MP2/aug-cc-pvtz', properties = ['dipole'])
--------------------------------------------------------------------------

    Molecular point group: c1
  Charge       = -1
  Multiplicity = 1
  Basis Set: AUG-CC-PVTZ
    Blend: AUG-CC-PVTZ
  Basis Set: (AUG-CC-PVTZ AUX)
    Blend: AUG-CC-PVTZ-JKFIT

    Orbital Energies [Eh]
    ---------------------

    Doubly Occupied:

       1A    -20.406407     2A    -20.353743     3A    -20.296045
       4A    -11.186700     5A    -11.095852     6A    -11.092631
       7A     -1.251744     8A     -1.170264     9A     -0.934207
      10A     -0.889370    11A     -0.732416    12A     -0.568279
      13A     -0.505604    14A     -0.492489    15A     -0.457448
      16A     -0.434362    17A     -0.410211    18A     -0.377250
      19A     -0.363637    20A     -0.309714    21A     -0.298205
      22A     -0.254576    23A     -0.184944    24A     -0.160594

  @DF-RHF Final Energy:  -341.13863446889371

   => Energetics <=

    Nuclear Repulsion Energy =            231.4611928095444853
    One-Electron Energy =                -936.7462707287667172
    Two-Electron Energy =                 364.1464434503284906
    Total Energy =                       -341.1386344688937129
  Basis Set: (AUG-CC-PVTZ AUX)
    Blend: AUG-CC-PVTZ-RI
    Molecular point group: c1

    Geometry (in Angstrom), charge = -1, multiplicity = 1:

       Center              X                  Y                   Z               Mass
    ------------   -----------------  -----------------  -----------------  -----------------
         O            1.024325664633    -0.715248590279     0.036188998022    15.994914619570
         O            0.042310664633     1.367994409721    -0.169758001978    15.994914619570
         O            2.335559664633    -0.127491590279     0.241657998022    15.994914619570
         C           -1.257385335367    -0.646260590279    -0.398770001978    12.000000000000
         C           -2.408838335367    -0.045756590279     0.401588998022    12.000000000000
         C            0.027036964633     0.155300309721    -0.163560601978    12.000000000000
         H           -1.489222335367    -0.584772590279    -1.470375001978     1.007825032230
         H           -1.104362335367    -1.701866590279    -0.156379001978     1.007825032230
         H           -3.366986335367    -0.523238590279     0.164693998022     1.007825032230
         H           -2.475248335367     1.022250409721     0.185200998022     1.007825032230
         H           -2.228327335367    -0.157942590279     1.475330998022     1.007825032230

  Basis Set: AUG-CC-PVTZ
    Blend: AUG-CC-PVTZ
  Basis Set: (AUG-CC-PVTZ AUX)
    Blend: AUG-CC-PVTZ-JKFIT
	 Reference Energy          =    -341.1386344688937129 [Eh]
	 Singles Energy            =      -0.0000000000000000 [Eh]
	 Same-Spin Energy          =      -0.3296256306537659 [Eh]
	 Opposite-Spin Energy      =      -1.0187703772368581 [Eh]
	 Correlation Energy        =      -1.3483960078906241 [Eh]
	 Total Energy              =    -342.4870304767843550 [Eh]

	 ================> DF-SCS-MP2 Energies <==================
	-----------------------------------------------------------
	 SCS Same-Spin Scale       =       0.3333333333333333 [-]
	 SCS Opposite-Spin Scale   =       1.2000000000000000 [-]
	 SCS Same-Spin Energy      =      -0.1098752102179220 [Eh]
	 SCS Opposite-Spin Energy  =      -1.2225244526842298 [Eh]
	 SCS Correlation Energy    =      -1.3323996629021517 [Eh]
	 SCS Total Energy          =    -342.4710341317958751 [Eh]
	-----------------------------------------------------------

  Dipole Moment: [D]
     X:    -7.9882      Y:    -1.6183      Z:    -0.7625     Total:     8.1861

*** Psi4 exiting successfully. Buy a developer a beer!
