                               Psi4 1.4a3.dev225

  ==> Input File <==

--------------------------------------------------------------------------
#psi4
#
memory 32 gb

molecule  {
-1 1
  O        1.1351350    -0.6918790     0.0330860
  O        0.1531200     1.3913640    -0.1728610
  O        2.4463690    -0.1041220     0.2385550
  C       -1.1465760    -0.6228910    -0.4018730
  C       -2.2980290    -0.0223870     0.3984860
  C        0.1620047     0.1335888    -0.1510365
  H       -1.3784130    -0.5614030    -1.4734780
  H       -0.9935530    -1.6784970    -0.1594820
  H       -3.2561770    -0.4998690     0.1615910
  H       -2.3644390     1.0456200     0.1820980
  H       -2.1175180    -0.1345730     1.4722280
units angstrom
no_reorient  #important for SAPT in psi4, default
symmetry c1  #important for SAPT in psi4, default
}

set PROPERTIES_ORIGIN ["COM"]
properties('MP2/aug-cc-pvtz', properties = ['dipole'])
--------------------------------------------------------------------------

    Molecular point group: c1
  Charge       = -1
  Multiplicity = 1
  Basis Set: AUG-CC-PVTZ
    Blend: AUG-CC-PVTZ
  Basis Set: (AUG-CC-PVTZ AUX)
    Blend: AUG-CC-PVTZ-JKFIT

    Orbital Energies [Eh]
    ---------------------

    Doubly Occupied:

       1A    -20.418048     2A    -20.341083     3A    -20.305509
       4A    -11.187068     5A    -11.094343     6A    -11.092136
       7A     -1.266082     8A     -1.145872     9A     -0.945069
      10A     -0.893970    11A     -0.732448    12A     -0.569338
      13A     -0.506769    14A     -0.492045    15A     -0.451518
      16A     -0.436897    17A     -0.413864    18A     -0.375378
      19A     -0.362094    20A     -0.311858    21A     -0.282772
      22A     -0.247740    23A     -0.195849    24A     -0.171137

  @DF-RHF Final Energy:  -341.13824061268792

   => Energetics <=

    Nuclear Repulsion Energy =            231.5187436106312759
    One-Electron Energy =                -936.8362000957712326
    Two-Electron Energy =                 364.1792158724520050
    Total Energy =                       -341.1382406126879232
  Basis Set: (AUG-CC-PVTZ AUX)
    Blend: AUG-CC-PVTZ-RI
    Molecular point group: c1

    Geometry (in Angstrom), charge = -1, multiplicity = 1:

       Center              X                  Y                   Z               Mass
    ------------   -----------------  -----------------  -----------------  -----------------
         O            1.021069225622    -0.709171869441     0.034082538237    15.994914619570
         O            0.039054225622     1.374071130559    -0.171864461763    15.994914619570
         O            2.332303225622    -0.121414869441     0.239551538237    15.994914619570
         C           -1.260641774378    -0.640183869441    -0.400876461763    12.000000000000
         C           -2.412094774378    -0.039679869441     0.399482538237    12.000000000000
         C            0.047938925622     0.116295930559    -0.150039961763    12.000000000000
         H           -1.492478774378    -0.578695869441    -1.472481461763     1.007825032230
         H           -1.107618774378    -1.695789869441    -0.158485461763     1.007825032230
         H           -3.370242774378    -0.517161869441     0.162587538237     1.007825032230
         H           -2.478504774378     1.028327130559     0.183094538237     1.007825032230
         H           -2.231583774378    -0.151865869441     1.473224538237     1.007825032230

  Basis Set: AUG-CC-PVTZ
    Blend: AUG-CC-PVTZ
  Basis Set: (AUG-CC-PVTZ AUX)
    Blend: AUG-CC-PVTZ-JKFIT
	 Reference Energy          =    -341.1382406126879232 [Eh]
	 Singles Energy            =      -0.0000000000000000 [Eh]
	 Same-Spin Energy          =      -0.3293835940645529 [Eh]
	 Opposite-Spin Energy      =      -1.0182301326647281 [Eh]
	 Correlation Energy        =      -1.3476137267292809 [Eh]
	 Total Energy              =    -342.4858543394171875 [Eh]

	 ================> DF-SCS-MP2 Energies <==================
	-----------------------------------------------------------
	 SCS Same-Spin Scale       =       0.3333333333333333 [-]
	 SCS Opposite-Spin Scale   =       1.2000000000000000 [-]
	 SCS Same-Spin Energy      =      -0.1097945313548510 [Eh]
	 SCS Opposite-Spin Energy  =      -1.2218761591976737 [Eh]
	 SCS Correlation Energy    =      -1.3316706905525246 [Eh]
	 SCS Total Energy          =    -342.4699113032404512 [Eh]
	-----------------------------------------------------------

  Dipole Moment: [D]
     X:    -7.6216      Y:    -2.0045      Z:    -0.6807     Total:     7.9102

*** Psi4 exiting successfully. Buy a developer a beer!
