                               Psi4 1.4a3.dev225

  ==> Input File <==

--------------------------------------------------------------------------
#psi4
#
memory 32 gb

molecule  {
-1 1
  O        1.1351350    -0.6918790     0.0330860
  O        0.1531200     1.3913640    -0.1728610
  O        2.4463690    -0.1041220     0.2385550
  C       -1.1465760    -0.6228910    -0.4018730
  C       -2.2980290    -0.0223870     0.3984860
  C        0.1126394     0.1885226    -0.1661155
  H       -1.3784130    -0.5614030    -1.4734780
  H       -0.9935530    -1.6784970    -0.1594820
  H       -3.2561770    -0.4998690     0.1615910
  H       -2.3644390     1.0456200     0.1820980
  H       -2.1175180    -0.1345730     1.4722280
units angstrom
no_reorient  #important for SAPT in psi4, default
symmetry c1  #important for SAPT in psi4, default
}

set PROPERTIES_ORIGIN ["COM"]
properties('MP2/aug-cc-pvtz', properties = ['dipole'])
--------------------------------------------------------------------------

    Molecular point group: c1
  Charge       = -1
  Multiplicity = 1
  Basis Set: AUG-CC-PVTZ
    Blend: AUG-CC-PVTZ
  Basis Set: (AUG-CC-PVTZ AUX)
    Blend: AUG-CC-PVTZ-JKFIT

    Orbital Energies [Eh]
    ---------------------

    Doubly Occupied:

       1A    -20.400841     2A    -20.357733     3A    -20.292208
       4A    -11.186760     5A    -11.097484     6A    -11.094199
       7A     -1.247735     8A     -1.170344     9A     -0.932822
      10A     -0.886873    11A     -0.735534    12A     -0.569599
      13A     -0.505768    14A     -0.494467    15A     -0.458046
      16A     -0.432446    17A     -0.408857    18A     -0.379081
      19A     -0.364052    20A     -0.307296    21A     -0.300784
      22A     -0.258182    23A     -0.179690    24A     -0.155526

  @DF-RHF Final Energy:  -341.13566160975887

   => Energetics <=

    Nuclear Repulsion Energy =            231.3971670915762786
    One-Electron Energy =                -936.6330032775390464
    Two-Electron Energy =                 364.1001745762038695
    Total Energy =                       -341.1356616097588699
  Basis Set: (AUG-CC-PVTZ AUX)
    Blend: AUG-CC-PVTZ-RI
    Molecular point group: c1

    Geometry (in Angstrom), charge = -1, multiplicity = 1:

       Center              X                  Y                   Z               Mass
    ------------   -----------------  -----------------  -----------------  -----------------
         O            1.027723436527    -0.716576688028     0.036115116712    15.994914619570
         O            0.045708436527     1.366666311972    -0.169831883288    15.994914619570
         O            2.338957436527    -0.128819688028     0.241584116712    15.994914619570
         C           -1.253987563473    -0.647588688028    -0.398843883288    12.000000000000
         C           -2.405440563473    -0.047084688028     0.401515116712    12.000000000000
         C            0.005227836527     0.163824911972    -0.163086383288    12.000000000000
         H           -1.485824563473    -0.586100688028    -1.470448883288     1.007825032230
         H           -1.100964563473    -1.703194688028    -0.156452883288     1.007825032230
         H           -3.363588563473    -0.524566688028     0.164620116712     1.007825032230
         H           -2.471850563473     1.020922311972     0.185127116712     1.007825032230
         H           -2.224929563473    -0.159270688028     1.475257116712     1.007825032230

  Basis Set: AUG-CC-PVTZ
    Blend: AUG-CC-PVTZ
  Basis Set: (AUG-CC-PVTZ AUX)
    Blend: AUG-CC-PVTZ-JKFIT
	 Reference Energy          =    -341.1356616097588699 [Eh]
	 Singles Energy            =      -0.0000000000000000 [Eh]
	 Same-Spin Energy          =      -0.3300431084537772 [Eh]
	 Opposite-Spin Energy      =      -1.0195882236732332 [Eh]
	 Correlation Energy        =      -1.3496313321270104 [Eh]
	 Total Energy              =    -342.4852929418858594 [Eh]

	 ================> DF-SCS-MP2 Energies <==================
	-----------------------------------------------------------
	 SCS Same-Spin Scale       =       0.3333333333333333 [-]
	 SCS Opposite-Spin Scale   =       1.2000000000000000 [-]
	 SCS Same-Spin Energy      =      -0.1100143694845924 [Eh]
	 SCS Opposite-Spin Energy  =      -1.2235058684078799 [Eh]
	 SCS Correlation Energy    =      -1.3335202378924722 [Eh]
	 SCS Total Energy          =    -342.4691818476513276 [Eh]
	-----------------------------------------------------------

  Dipole Moment: [D]
     X:    -8.2045      Y:    -1.5221      Z:    -0.7928     Total:     8.3820

*** Psi4 exiting successfully. Buy a developer a beer!
