                               Psi4 1.4a3.dev225

  ==> Input File <==

--------------------------------------------------------------------------
#psi4
#
memory 32 gb

molecule  {
-1 1
  O        1.1351350    -0.6918790     0.0330860
  O        0.0263667     1.3846250    -0.1974427
  O        2.4463690    -0.1041220     0.2385550
  C       -1.1465760    -0.6228910    -0.4018730
  C       -2.2980290    -0.0223870     0.3984860
  C        0.1501230     0.1562480    -0.1588130
  H       -1.3784130    -0.5614030    -1.4734780
  H       -0.9935530    -1.6784970    -0.1594820
  H       -3.2561770    -0.4998690     0.1615910
  H       -2.3644390     1.0456200     0.1820980
  H       -2.1175180    -0.1345730     1.4722280
units angstrom
no_reorient  #important for SAPT in psi4, default
symmetry c1  #important for SAPT in psi4, default
}

set PROPERTIES_ORIGIN ["COM"]
properties('MP2/aug-cc-pvtz', properties = ['dipole'])
--------------------------------------------------------------------------

    Molecular point group: c1
  Charge       = -1
  Multiplicity = 1
  Basis Set: AUG-CC-PVTZ
    Blend: AUG-CC-PVTZ
  Basis Set: (AUG-CC-PVTZ AUX)
    Blend: AUG-CC-PVTZ-JKFIT

    Orbital Energies [Eh]
    ---------------------

    Doubly Occupied:

       1A    -20.419817     2A    -20.350958     3A    -20.305170
       4A    -11.190323     5A    -11.090469     6A    -11.085741
       7A     -1.259469     8A     -1.168981     9A     -0.940739
      10A     -0.889397    11A     -0.728509    12A     -0.569803
      13A     -0.506634    14A     -0.489179    15A     -0.457638
      16A     -0.437116    17A     -0.410322    18A     -0.372445
      19A     -0.359635    20A     -0.315769    21A     -0.295991
      22A     -0.249422    23A     -0.194987    24A     -0.171009

  @DF-RHF Final Energy:  -341.13545511040019

   => Energetics <=

    Nuclear Repulsion Energy =            231.5827583934776044
    One-Electron Energy =                -936.9173826096657649
    Two-Electron Energy =                 364.1991691057879166
    Total Energy =                       -341.1354551104001871
  Basis Set: (AUG-CC-PVTZ AUX)
    Blend: AUG-CC-PVTZ-RI
    Molecular point group: c1

    Geometry (in Angstrom), charge = -1, multiplicity = 1:

       Center              X                  Y                   Z               Mass
    ------------   -----------------  -----------------  -----------------  -----------------
         O            1.045444582874    -0.711015427491     0.039547366918    15.994914619570
         O           -0.063323717126     1.365488572509    -0.190981333082    15.994914619570
         O            2.356678582874    -0.123258427491     0.245016366918    15.994914619570
         C           -1.236266417126    -0.642027427491    -0.395411633082    12.000000000000
         C           -2.387719417126    -0.041523427491     0.404947366918    12.000000000000
         C            0.060432582874     0.137111572509    -0.152351633082    12.000000000000
         H           -1.468103417126    -0.580539427491    -1.467016633082     1.007825032230
         H           -1.083243417126    -1.697633427491    -0.153020633082     1.007825032230
         H           -3.345867417126    -0.519005427491     0.168052366918     1.007825032230
         H           -2.454129417126     1.026483572509     0.188559366918     1.007825032230
         H           -2.207208417126    -0.153709427491     1.478689366918     1.007825032230

  Basis Set: AUG-CC-PVTZ
    Blend: AUG-CC-PVTZ
  Basis Set: (AUG-CC-PVTZ AUX)
    Blend: AUG-CC-PVTZ-JKFIT
	 Reference Energy          =    -341.1354551104001871 [Eh]
	 Singles Energy            =      -0.0000000000000000 [Eh]
	 Same-Spin Energy          =      -0.3296433096566766 [Eh]
	 Opposite-Spin Energy      =      -1.0188793557088229 [Eh]
	 Correlation Energy        =      -1.3485226653654996 [Eh]
	 Total Energy              =    -342.4839777757657089 [Eh]

	 ================> DF-SCS-MP2 Energies <==================
	-----------------------------------------------------------
	 SCS Same-Spin Scale       =       0.3333333333333333 [-]
	 SCS Opposite-Spin Scale   =       1.2000000000000000 [-]
	 SCS Same-Spin Energy      =      -0.1098811032188922 [Eh]
	 SCS Opposite-Spin Energy  =      -1.2226552268505875 [Eh]
	 SCS Correlation Energy    =      -1.3325363300694797 [Eh]
	 SCS Total Energy          =    -342.4679914404696888 [Eh]
	-----------------------------------------------------------

  Dipole Moment: [D]
     X:    -7.5167      Y:    -1.7495      Z:    -0.6893     Total:     7.7483

*** Psi4 exiting successfully. Buy a developer a beer!
