                               Psi4 1.4a3.dev225

  ==> Input File <==

--------------------------------------------------------------------------
#psi4
#
memory 32 gb

molecule  {
-1 1
  O        1.1351350    -0.6918790     0.0330860
  O        0.1531200     1.3913640    -0.1728610
  O        2.4463690    -0.1041220     0.2385550
  C       -1.1465760    -0.6228910    -0.4018730
  C       -2.2980290    -0.0223870     0.3984860
  C        0.1501230     0.1562480    -0.1588130
  H       -1.3741906    -0.5625229    -1.4539609
  H       -0.9935530    -1.6784970    -0.1594820
  H       -3.2561770    -0.4998690     0.1615910
  H       -2.3644390     1.0456200     0.1820980
  H       -2.1175180    -0.1345730     1.4722280
units angstrom
no_reorient  #important for SAPT in psi4, default
symmetry c1  #important for SAPT in psi4, default
}

set PROPERTIES_ORIGIN ["COM"]
properties('MP2/aug-cc-pvtz', properties = ['dipole'])
--------------------------------------------------------------------------

    Molecular point group: c1
  Charge       = -1
  Multiplicity = 1
  Basis Set: AUG-CC-PVTZ
    Blend: AUG-CC-PVTZ
  Basis Set: (AUG-CC-PVTZ AUX)
    Blend: AUG-CC-PVTZ-JKFIT

    Orbital Energies [Eh]
    ---------------------

    Doubly Occupied:

       1A    -20.412141     2A    -20.347400     3A    -20.300606
       4A    -11.186814     5A    -11.094846     6A    -11.089787
       7A     -1.256814     8A     -1.159532     9A     -0.939338
      10A     -0.892597    11A     -0.733487    12A     -0.569046
      13A     -0.505761    14A     -0.493694    15A     -0.453786
      16A     -0.435524    17A     -0.411762    18A     -0.376453
      19A     -0.364285    20A     -0.311172    21A     -0.290783
      22A     -0.251438    23A     -0.190343    24A     -0.165777

  @DF-RHF Final Energy:  -341.13950725787493

   => Energetics <=

    Nuclear Repulsion Energy =            231.5762949986319086
    One-Electron Energy =                -936.9652332790523133
    Two-Electron Energy =                 364.2494310225455365
    Total Energy =                       -341.1395072578749250
  Basis Set: (AUG-CC-PVTZ AUX)
    Blend: AUG-CC-PVTZ-RI
    Molecular point group: c1

    Geometry (in Angstrom), charge = -1, multiplicity = 1:

       Center              X                  Y                   Z               Mass
    ------------   -----------------  -----------------  -----------------  -----------------
         O            1.022623021937    -0.712213545114     0.034909823985    15.994914619570
         O            0.040608021937     1.371029454886    -0.171037176015    15.994914619570
         O            2.333857021937    -0.124456545114     0.240378823985    15.994914619570
         C           -1.259087978063    -0.643225545114    -0.400049176015    12.000000000000
         C           -2.410540978063    -0.042721545114     0.400309823985    12.000000000000
         C            0.037611021937     0.135913454886    -0.156989176015    12.000000000000
         H           -1.486702578063    -0.582857445114    -1.452137076015     1.007825032230
         H           -1.106064978063    -1.698831545114    -0.157658176015     1.007825032230
         H           -3.368688978063    -0.520203545114     0.163414823985     1.007825032230
         H           -2.476950978063     1.025285454886     0.183921823985     1.007825032230
         H           -2.230029978063    -0.154907545114     1.474051823985     1.007825032230

  Basis Set: AUG-CC-PVTZ
    Blend: AUG-CC-PVTZ
  Basis Set: (AUG-CC-PVTZ AUX)
    Blend: AUG-CC-PVTZ-JKFIT
	 Reference Energy          =    -341.1395072578749250 [Eh]
	 Singles Energy            =      -0.0000000000000000 [Eh]
	 Same-Spin Energy          =      -0.3295153963877963 [Eh]
	 Opposite-Spin Energy      =      -1.0184004115341529 [Eh]
	 Correlation Energy        =      -1.3479158079219493 [Eh]
	 Total Energy              =    -342.4874230657968610 [Eh]

	 ================> DF-SCS-MP2 Energies <==================
	-----------------------------------------------------------
	 SCS Same-Spin Scale       =       0.3333333333333333 [-]
	 SCS Opposite-Spin Scale   =       1.2000000000000000 [-]
	 SCS Same-Spin Energy      =      -0.1098384654625988 [Eh]
	 SCS Opposite-Spin Energy  =      -1.2220804938409835 [Eh]
	 SCS Correlation Energy    =      -1.3319189593035823 [Eh]
	 SCS Total Energy          =    -342.4714262171785322 [Eh]
	-----------------------------------------------------------

  Dipole Moment: [D]
     X:    -7.8086      Y:    -1.8142      Z:    -0.7356     Total:     8.0503

*** Psi4 exiting successfully. Buy a developer a beer!
