                               Psi4 1.4a3.dev225

  ==> Input File <==

--------------------------------------------------------------------------
#psi4
#
memory 32 gb

molecule  {
-1 1
  O        1.1351350    -0.6918790     0.0330860
  O        0.1531200     1.3913640    -0.1728610
  O        2.4463690    -0.1041220     0.2385550
  C       -1.2259028    -0.5787143    -0.5332162
  C       -2.2980290    -0.0223870     0.3984860
  C        0.1501230     0.1562480    -0.1588130
  H       -1.3784130    -0.5614030    -1.4734780
  H       -0.9935530    -1.6784970    -0.1594820
  H       -3.2561770    -0.4998690     0.1615910
  H       -2.3644390     1.0456200     0.1820980
  H       -2.1175180    -0.1345730     1.4722280
units angstrom
no_reorient  #important for SAPT in psi4, default
symmetry c1  #important for SAPT in psi4, default
}

set PROPERTIES_ORIGIN ["COM"]
properties('MP2/aug-cc-pvtz', properties = ['dipole'])
--------------------------------------------------------------------------

    Molecular point group: c1
  Charge       = -1
  Multiplicity = 1
  Basis Set: AUG-CC-PVTZ
    Blend: AUG-CC-PVTZ
  Basis Set: (AUG-CC-PVTZ AUX)
    Blend: AUG-CC-PVTZ-JKFIT

    Orbital Energies [Eh]
    ---------------------

    Doubly Occupied:

       1A    -20.413909     2A    -20.347196     3A    -20.302650
       4A    -11.190185     5A    -11.095894     6A    -11.091054
       7A     -1.256009     8A     -1.159523     9A     -0.934984
      10A     -0.894837    11A     -0.734915    12A     -0.571365
      13A     -0.508885    14A     -0.487754    15A     -0.450495
      16A     -0.438179    17A     -0.412010    18A     -0.399913
      19A     -0.343968    20A     -0.309939    21A     -0.291780
      22A     -0.240982    23A     -0.191999    24A     -0.167426

  @DF-RHF Final Energy:  -341.10920600325653

   => Energetics <=

    Nuclear Repulsion Energy =            230.3898962078542070
    One-Electron Energy =                -934.5265048504660399
    Two-Electron Energy =                 363.0274026393552731
    Total Energy =                       -341.1092060032565314
  Basis Set: (AUG-CC-PVTZ AUX)
    Blend: AUG-CC-PVTZ-RI
    Molecular point group: c1

    Geometry (in Angstrom), charge = -1, multiplicity = 1:

       Center              X                  Y                   Z               Mass
    ------------   -----------------  -----------------  -----------------  -----------------
         O            1.033363703632    -0.718181035284     0.052835221291    15.994914619570
         O            0.051348703632     1.365061964716    -0.153111778709    15.994914619570
         O            2.344597703632    -0.130424035284     0.258304221291    15.994914619570
         C           -1.327674096368    -0.605016335284    -0.513466978709    12.000000000000
         C           -2.399800296368    -0.048689035284     0.418235221291    12.000000000000
         C            0.048351703632     0.129945964716    -0.139063778709    12.000000000000
         H           -1.480184296368    -0.587705035284    -1.453728778709     1.007825032230
         H           -1.095324296368    -1.704799035284    -0.139732778709     1.007825032230
         H           -3.357948296368    -0.526171035284     0.181340221291     1.007825032230
         H           -2.466210296368     1.019317964716     0.201847221291     1.007825032230
         H           -2.219289296368    -0.160875035284     1.491977221291     1.007825032230

  Basis Set: AUG-CC-PVTZ
    Blend: AUG-CC-PVTZ
  Basis Set: (AUG-CC-PVTZ AUX)
    Blend: AUG-CC-PVTZ-JKFIT
	 Reference Energy          =    -341.1092060032565314 [Eh]
	 Singles Energy            =      -0.0000000000000000 [Eh]
	 Same-Spin Energy          =      -0.3295489630554401 [Eh]
	 Opposite-Spin Energy      =      -1.0193362625489628 [Eh]
	 Correlation Energy        =      -1.3488852256044028 [Eh]
	 Total Energy              =    -342.4580912288609511 [Eh]

	 ================> DF-SCS-MP2 Energies <==================
	-----------------------------------------------------------
	 SCS Same-Spin Scale       =       0.3333333333333333 [-]
	 SCS Opposite-Spin Scale   =       1.2000000000000000 [-]
	 SCS Same-Spin Energy      =      -0.1098496543518133 [Eh]
	 SCS Opposite-Spin Energy  =      -1.2232035150587552 [Eh]
	 SCS Correlation Energy    =      -1.3330531694105685 [Eh]
	 SCS Total Energy          =    -342.4422591726670930 [Eh]
	-----------------------------------------------------------

  Dipole Moment: [D]
     X:    -7.7376      Y:    -1.6484      Z:    -0.8470     Total:     7.9565

*** Psi4 exiting successfully. Buy a developer a beer!
