                               Psi4 1.4a3.dev225

  ==> Input File <==

--------------------------------------------------------------------------
#psi4
#
memory 32 gb

molecule  {
-1 1
  O        1.1351350    -0.6918790     0.0330860
  O        0.1531200     1.3913640    -0.1728610
  O        2.4463690    -0.1041220     0.2385550
  C       -1.1465760    -0.6228910    -0.4018730
  C       -2.2980290    -0.0223870     0.3984860
  C        0.1501230     0.1562480    -0.1588130
  H       -1.3784130    -0.5614030    -1.4734780
  H       -0.9935530    -1.6784970    -0.1594820
  H       -3.1687889    -0.4563202     0.1831971
  H       -2.3644390     1.0456200     0.1820980
  H       -2.1175180    -0.1345730     1.4722280
units angstrom
no_reorient  #important for SAPT in psi4, default
symmetry c1  #important for SAPT in psi4, default
}

set PROPERTIES_ORIGIN ["COM"]
properties('MP2/aug-cc-pvtz', properties = ['dipole'])
--------------------------------------------------------------------------

    Molecular point group: c1
  Charge       = -1
  Multiplicity = 1
  Basis Set: AUG-CC-PVTZ
    Blend: AUG-CC-PVTZ
  Basis Set: (AUG-CC-PVTZ AUX)
    Blend: AUG-CC-PVTZ-JKFIT

    Orbital Energies [Eh]
    ---------------------

    Doubly Occupied:

       1A    -20.411438     2A    -20.346409     3A    -20.300018
       4A    -11.185927     5A    -11.091178     6A    -11.081471
       7A     -1.256050     8A     -1.158606     9A     -0.939174
      10A     -0.895960    11A     -0.740493    12A     -0.567592
      13A     -0.509387    14A     -0.492063    15A     -0.452884
      16A     -0.438935    17A     -0.421064    18A     -0.374992
      19A     -0.362022    20A     -0.310900    21A     -0.289868
      22A     -0.250826    23A     -0.189747    24A     -0.165153

  @DF-RHF Final Energy:  -341.13345770687408

   => Energetics <=

    Nuclear Repulsion Energy =            231.9429514922776718
    One-Electron Energy =                -937.6885099959959007
    Two-Electron Energy =                 364.6121007968441745
    Total Energy =                       -341.1334577068740828
  Basis Set: (AUG-CC-PVTZ AUX)
    Blend: AUG-CC-PVTZ-RI
    Molecular point group: c1

    Geometry (in Angstrom), charge = -1, multiplicity = 1:

       Center              X                  Y                   Z               Mass
    ------------   -----------------  -----------------  -----------------  -----------------
         O            1.021681516302    -0.712719232347     0.034886174749    15.994914619570
         O            0.039666516302     1.370523767653    -0.171060825251    15.994914619570
         O            2.332915516302    -0.124962232347     0.240355174749    15.994914619570
         C           -1.260029483698    -0.643731232347    -0.400072825251    12.000000000000
         C           -2.411482483698    -0.043227232347     0.400286174749    12.000000000000
         C            0.036669516302     0.135407767653    -0.157012825251    12.000000000000
         H           -1.491866483698    -0.582243232347    -1.471677825251     1.007825032230
         H           -1.107006483698    -1.699337232347    -0.157681825251     1.007825032230
         H           -3.282242383698    -0.477160432347     0.184997274749     1.007825032230
         H           -2.477892483698     1.024779767653     0.183898174749     1.007825032230
         H           -2.230971483698    -0.155413232347     1.474028174749     1.007825032230

  Basis Set: AUG-CC-PVTZ
    Blend: AUG-CC-PVTZ
  Basis Set: (AUG-CC-PVTZ AUX)
    Blend: AUG-CC-PVTZ-JKFIT
	 Reference Energy          =    -341.1334577068740828 [Eh]
	 Singles Energy            =      -0.0000000000000000 [Eh]
	 Same-Spin Energy          =      -0.3296320377882257 [Eh]
	 Opposite-Spin Energy      =      -1.0181206791261159 [Eh]
	 Correlation Energy        =      -1.3477527169143415 [Eh]
	 Total Energy              =    -342.4812104237884114 [Eh]

	 ================> DF-SCS-MP2 Energies <==================
	-----------------------------------------------------------
	 SCS Same-Spin Scale       =       0.3333333333333333 [-]
	 SCS Opposite-Spin Scale   =       1.2000000000000000 [-]
	 SCS Same-Spin Energy      =      -0.1098773459294086 [Eh]
	 SCS Opposite-Spin Energy  =      -1.2217448149513390 [Eh]
	 SCS Correlation Energy    =      -1.3316221608807475 [Eh]
	 SCS Total Energy          =    -342.4650798677548096 [Eh]
	-----------------------------------------------------------

  Dipole Moment: [D]
     X:    -7.9086      Y:    -1.8392      Z:    -0.7254     Total:     8.1520

*** Psi4 exiting successfully. Buy a developer a beer!
