                               Psi4 1.4a3.dev225

  ==> Input File <==

--------------------------------------------------------------------------
#psi4
#
memory 32 gb

molecule  {
-1 1
  O        1.1351350    -0.6918790     0.0330860
  O        0.1319591     1.3911804    -0.1769759
  O        2.4463690    -0.1041220     0.2385550
  C       -1.1465760    -0.6228910    -0.4018730
  C       -2.2980290    -0.0223870     0.3984860
  C        0.1501230     0.1562480    -0.1588130
  H       -1.3784130    -0.5614030    -1.4734780
  H       -0.9935530    -1.6784970    -0.1594820
  H       -3.2561770    -0.4998690     0.1615910
  H       -2.3644390     1.0456200     0.1820980
  H       -2.1175180    -0.1345730     1.4722280
units angstrom
no_reorient  #important for SAPT in psi4, default
symmetry c1  #important for SAPT in psi4, default
}

set PROPERTIES_ORIGIN ["COM"]
properties('MP2/aug-cc-pvtz', properties = ['dipole'])
--------------------------------------------------------------------------

    Molecular point group: c1
  Charge       = -1
  Multiplicity = 1
  Basis Set: AUG-CC-PVTZ
    Blend: AUG-CC-PVTZ
  Basis Set: (AUG-CC-PVTZ AUX)
    Blend: AUG-CC-PVTZ-JKFIT

    Orbital Energies [Eh]
    ---------------------

    Doubly Occupied:

       1A    -20.413553     2A    -20.348100     3A    -20.301496
       4A    -11.187574     5A    -11.094341     6A    -11.091261
       7A     -1.257313     8A     -1.161213     9A     -0.939372
      10A     -0.891761    11A     -0.731773    12A     -0.568663
      13A     -0.505949    14A     -0.491658    15A     -0.454509
      16A     -0.435866    17A     -0.411606    18A     -0.375462
      19A     -0.362627    20A     -0.312009    21A     -0.291697
      22A     -0.251423    23A     -0.191252    24A     -0.166753

  @DF-RHF Final Energy:  -341.13925127881384

   => Energetics <=

    Nuclear Repulsion Energy =            231.4828158449248861
    One-Electron Energy =                -936.7696721074520383
    Two-Electron Energy =                 364.1476049837133360
    Total Energy =                       -341.1392512788138447
  Basis Set: (AUG-CC-PVTZ AUX)
    Blend: AUG-CC-PVTZ-RI
    Molecular point group: c1

    Geometry (in Angstrom), charge = -1, multiplicity = 1:

       Center              X                  Y                   Z               Mass
    ------------   -----------------  -----------------  -----------------  -----------------
         O            1.026472801024    -0.712193235920     0.035870097864    15.994914619570
         O            0.023296901024     1.370866164080    -0.174191802136    15.994914619570
         O            2.337706801024    -0.124436235920     0.241339097864    15.994914619570
         C           -1.255238198976    -0.643205235920    -0.399088902136    12.000000000000
         C           -2.406691198976    -0.042701235920     0.401270097864    12.000000000000
         C            0.041460801024     0.135933764080    -0.156028902136    12.000000000000
         H           -1.487075198976    -0.581717235920    -1.470693902136     1.007825032230
         H           -1.102215198976    -1.698811235920    -0.156697902136     1.007825032230
         H           -3.364839198976    -0.520183235920     0.164375097864     1.007825032230
         H           -2.473101198976     1.025305764080     0.184882097864     1.007825032230
         H           -2.226180198976    -0.154887235920     1.475012097864     1.007825032230

  Basis Set: AUG-CC-PVTZ
    Blend: AUG-CC-PVTZ
  Basis Set: (AUG-CC-PVTZ AUX)
    Blend: AUG-CC-PVTZ-JKFIT
	 Reference Energy          =    -341.1392512788138447 [Eh]
	 Singles Energy            =      -0.0000000000000000 [Eh]
	 Same-Spin Energy          =      -0.3295062794505018 [Eh]
	 Opposite-Spin Energy      =      -1.0185271629705599 [Eh]
	 Correlation Energy        =      -1.3480334424210616 [Eh]
	 Total Energy              =    -342.4872847212349143 [Eh]

	 ================> DF-SCS-MP2 Energies <==================
	-----------------------------------------------------------
	 SCS Same-Spin Scale       =       0.3333333333333333 [-]
	 SCS Opposite-Spin Scale   =       1.2000000000000000 [-]
	 SCS Same-Spin Energy      =      -0.1098354264835006 [Eh]
	 SCS Opposite-Spin Energy  =      -1.2222325955646718 [Eh]
	 SCS Correlation Energy    =      -1.3320680220481724 [Eh]
	 SCS Total Energy          =    -342.4713193008620351 [Eh]
	-----------------------------------------------------------

  Dipole Moment: [D]
     X:    -7.7558      Y:    -1.8037      Z:    -0.7155     Total:     7.9949

*** Psi4 exiting successfully. Buy a developer a beer!
