                               Psi4 1.4a3.dev225

  ==> Input File <==

--------------------------------------------------------------------------
#psi4
#
memory 32 gb

molecule  {
-1 1
  O        1.1351350    -0.6918790     0.0330860
  O        0.1531200     1.3913640    -0.1728610
  O        2.4463690    -0.1041220     0.2385550
  C       -1.1465760    -0.6228910    -0.4018730
  C       -2.3610305    -0.0976685     0.3572484
  C        0.1501230     0.1562480    -0.1588130
  H       -1.3784130    -0.5614030    -1.4734780
  H       -0.9935530    -1.6784970    -0.1594820
  H       -3.2561770    -0.4998690     0.1615910
  H       -2.3644390     1.0456200     0.1820980
  H       -2.1175180    -0.1345730     1.4722280
units angstrom
no_reorient  #important for SAPT in psi4, default
symmetry c1  #important for SAPT in psi4, default
}

set PROPERTIES_ORIGIN ["COM"]
properties('MP2/aug-cc-pvtz', properties = ['dipole'])
--------------------------------------------------------------------------

    Molecular point group: c1
  Charge       = -1
  Multiplicity = 1
  Basis Set: AUG-CC-PVTZ
    Blend: AUG-CC-PVTZ
  Basis Set: (AUG-CC-PVTZ AUX)
    Blend: AUG-CC-PVTZ-JKFIT

    Orbital Energies [Eh]
    ---------------------

    Doubly Occupied:

       1A    -20.413286     2A    -20.348428     3A    -20.301751
       4A    -11.189264     5A    -11.096673     6A    -11.093240
       7A     -1.257828     8A     -1.160252     9A     -0.939721
      10A     -0.893176    11A     -0.735782    12A     -0.568637
      13A     -0.510832    14A     -0.488467    15A     -0.455686
      16A     -0.444750    17A     -0.422149    18A     -0.364918
      19A     -0.345668    20A     -0.314309    21A     -0.291246
      22A     -0.253260    23A     -0.191455    24A     -0.166736

  @DF-RHF Final Energy:  -341.12599227181369

   => Energetics <=

    Nuclear Repulsion Energy =            230.9346368278920067
    One-Electron Energy =                -935.6262341344134938
    Two-Electron Energy =                 363.5656050347078576
    Total Energy =                       -341.1259922718136863
  Basis Set: (AUG-CC-PVTZ AUX)
    Blend: AUG-CC-PVTZ-RI
    Molecular point group: c1

    Geometry (in Angstrom), charge = -1, multiplicity = 1:

       Center              X                  Y                   Z               Mass
    ------------   -----------------  -----------------  -----------------  -----------------
         O            1.031163129762    -0.702078630212     0.040689409028    15.994914619570
         O            0.049148129762     1.381164369788    -0.165257590972    15.994914619570
         O            2.342397129762    -0.114321630212     0.246158409028    15.994914619570
         C           -1.250547870238    -0.633090630212    -0.394269590972    12.000000000000
         C           -2.465002370238    -0.107868130212     0.364851809028    12.000000000000
         C            0.046151129762     0.146048369788    -0.151209590972    12.000000000000
         H           -1.482384870238    -0.571602630212    -1.465874590972     1.007825032230
         H           -1.097524870238    -1.688696630212    -0.151878590972     1.007825032230
         H           -3.360148870238    -0.510068630212     0.169194409028     1.007825032230
         H           -2.468410870238     1.035420369788     0.189701409028     1.007825032230
         H           -2.221489870238    -0.144772630212     1.479831409028     1.007825032230

  Basis Set: AUG-CC-PVTZ
    Blend: AUG-CC-PVTZ
  Basis Set: (AUG-CC-PVTZ AUX)
    Blend: AUG-CC-PVTZ-JKFIT
	 Reference Energy          =    -341.1259922718136863 [Eh]
	 Singles Energy            =      -0.0000000000000000 [Eh]
	 Same-Spin Energy          =      -0.3297288091516687 [Eh]
	 Opposite-Spin Energy      =      -1.0191372122474536 [Eh]
	 Correlation Energy        =      -1.3488660213991224 [Eh]
	 Total Energy              =    -342.4748582932128329 [Eh]

	 ================> DF-SCS-MP2 Energies <==================
	-----------------------------------------------------------
	 SCS Same-Spin Scale       =       0.3333333333333333 [-]
	 SCS Opposite-Spin Scale   =       1.2000000000000000 [-]
	 SCS Same-Spin Energy      =      -0.1099096030505562 [Eh]
	 SCS Opposite-Spin Energy  =      -1.2229646546969442 [Eh]
	 SCS Correlation Energy    =      -1.3328742577475003 [Eh]
	 SCS Total Energy          =    -342.4588665295611918 [Eh]
	-----------------------------------------------------------

  Dipole Moment: [D]
     X:    -7.8263      Y:    -1.8823      Z:    -0.7718     Total:     8.0864

*** Psi4 exiting successfully. Buy a developer a beer!
