                               Psi4 1.4a3.dev225

  ==> Input File <==

--------------------------------------------------------------------------
#psi4
#
memory 32 gb

molecule  {
-1 1
  O        1.1351350    -0.6918790     0.0330860
  O        0.2376899     1.3883373    -0.1563710
  O        2.4463690    -0.1041220     0.2385550
  C       -1.1465760    -0.6228910    -0.4018730
  C       -2.2980290    -0.0223870     0.3984860
  C        0.1501230     0.1562480    -0.1588130
  H       -1.3784130    -0.5614030    -1.4734780
  H       -0.9935530    -1.6784970    -0.1594820
  H       -3.2561770    -0.4998690     0.1615910
  H       -2.3644390     1.0456200     0.1820980
  H       -2.1175180    -0.1345730     1.4722280
units angstrom
no_reorient  #important for SAPT in psi4, default
symmetry c1  #important for SAPT in psi4, default
}

set PROPERTIES_ORIGIN ["COM"]
properties('MP2/aug-cc-pvtz', properties = ['dipole'])
--------------------------------------------------------------------------

    Molecular point group: c1
  Charge       = -1
  Multiplicity = 1
  Basis Set: AUG-CC-PVTZ
    Blend: AUG-CC-PVTZ
  Basis Set: (AUG-CC-PVTZ AUX)
    Blend: AUG-CC-PVTZ-JKFIT

    Orbital Energies [Eh]
    ---------------------

    Doubly Occupied:

       1A    -20.407073     2A    -20.344735     3A    -20.297575
       4A    -11.184809     5A    -11.097986     6A    -11.096584
       7A     -1.255592     8A     -1.153004     9A     -0.938465
      10A     -0.893129    11A     -0.734873    12A     -0.567558
      13A     -0.505325    14A     -0.494140    15A     -0.451547
      16A     -0.434655    17A     -0.412749    18A     -0.378304
      19A     -0.365373    20A     -0.307792    21A     -0.286595
      22A     -0.251368    23A     -0.187170    24A     -0.162287

  @DF-RHF Final Energy:  -341.13850972548721

   => Energetics <=

    Nuclear Repulsion Energy =            231.5396271424136501
    One-Electron Energy =                -936.9388950715680267
    Two-Electron Energy =                 364.2607582036671374
    Total Energy =                       -341.1385097254872107
  Basis Set: (AUG-CC-PVTZ AUX)
    Blend: AUG-CC-PVTZ-RI
    Molecular point group: c1

    Geometry (in Angstrom), charge = -1, multiplicity = 1:

       Center              X                  Y                   Z               Mass
    ------------   -----------------  -----------------  -----------------  -----------------
         O            1.007476152852    -0.711682416268     0.032168016390    15.994914619570
         O            0.110031052852     1.368533883732    -0.157288983610    15.994914619570
         O            2.318710152852    -0.123925416268     0.237637016390    15.994914619570
         C           -1.274234847148    -0.642694416268    -0.402790983610    12.000000000000
         C           -2.425687847148    -0.042190416268     0.397568016390    12.000000000000
         C            0.022464152852     0.136444583732    -0.159730983610    12.000000000000
         H           -1.506071847148    -0.581206416268    -1.474395983610     1.007825032230
         H           -1.121211847148    -1.698300416268    -0.160399983610     1.007825032230
         H           -3.383835847148    -0.519672416268     0.160673016390     1.007825032230
         H           -2.492097847148     1.025816583732     0.181180016390     1.007825032230
         H           -2.245176847148    -0.154376416268     1.471310016390     1.007825032230

  Basis Set: AUG-CC-PVTZ
    Blend: AUG-CC-PVTZ
  Basis Set: (AUG-CC-PVTZ AUX)
    Blend: AUG-CC-PVTZ-JKFIT
	 Reference Energy          =    -341.1385097254872107 [Eh]
	 Singles Energy            =      -0.0000000000000000 [Eh]
	 Same-Spin Energy          =      -0.3296169742984775 [Eh]
	 Opposite-Spin Energy      =      -1.0185864397987867 [Eh]
	 Correlation Energy        =      -1.3482034140972643 [Eh]
	 Total Energy              =    -342.4867131395844808 [Eh]

	 ================> DF-SCS-MP2 Energies <==================
	-----------------------------------------------------------
	 SCS Same-Spin Scale       =       0.3333333333333333 [-]
	 SCS Opposite-Spin Scale   =       1.2000000000000000 [-]
	 SCS Same-Spin Energy      =      -0.1098723247661592 [Eh]
	 SCS Opposite-Spin Energy  =      -1.2223037277585440 [Eh]
	 SCS Correlation Energy    =      -1.3321760525247031 [Eh]
	 SCS Total Energy          =    -342.4706857780118980 [Eh]
	-----------------------------------------------------------

  Dipole Moment: [D]
     X:    -7.9862      Y:    -1.8332      Z:    -0.7428     Total:     8.2275

*** Psi4 exiting successfully. Buy a developer a beer!
