                               Psi4 1.4a3.dev225

  ==> Input File <==

--------------------------------------------------------------------------
#psi4
#
memory 32 gb

molecule  {
-1 1
  O        1.1351350    -0.6918790     0.0330860
  O        0.1531200     1.3913640    -0.1728610
  O        2.4463690    -0.1041220     0.2385550
  C       -1.1465760    -0.6228910    -0.4018730
  C       -2.3903305    -0.1362922     0.3352294
  C        0.1501230     0.1562480    -0.1588130
  H       -1.3784130    -0.5614030    -1.4734780
  H       -0.9935530    -1.6784970    -0.1594820
  H       -3.2561770    -0.4998690     0.1615910
  H       -2.3644390     1.0456200     0.1820980
  H       -2.1175180    -0.1345730     1.4722280
units angstrom
no_reorient  #important for SAPT in psi4, default
symmetry c1  #important for SAPT in psi4, default
}

set PROPERTIES_ORIGIN ["COM"]
properties('MP2/aug-cc-pvtz', properties = ['dipole'])
--------------------------------------------------------------------------

    Molecular point group: c1
  Charge       = -1
  Multiplicity = 1
  Basis Set: AUG-CC-PVTZ
    Blend: AUG-CC-PVTZ
  Basis Set: (AUG-CC-PVTZ AUX)
    Blend: AUG-CC-PVTZ-JKFIT

    Orbital Energies [Eh]
    ---------------------

    Doubly Occupied:

       1A    -20.414060     2A    -20.349222     3A    -20.302479
       4A    -11.190767     5A    -11.098892     6A    -11.094454
       7A     -1.258563     8A     -1.160901     9A     -0.940378
      10A     -0.894484    11A     -0.739881    12A     -0.569084
      13A     -0.514533    14A     -0.488368    15A     -0.463173
      16A     -0.447283    17A     -0.421337    18A     -0.359325
      19A     -0.335792    20A     -0.315249    21A     -0.291584
      22A     -0.254247    23A     -0.192169    24A     -0.167392

  @DF-RHF Final Energy:  -341.10816693417036

   => Energetics <=

    Nuclear Repulsion Energy =            230.6907039611568564
    One-Electron Energy =                -935.0705144748662860
    Two-Electron Energy =                 363.2716435795391021
    Total Energy =                       -341.1081669341703559
  Basis Set: (AUG-CC-PVTZ AUX)
    Blend: AUG-CC-PVTZ-RI
    Molecular point group: c1

    Geometry (in Angstrom), charge = -1, multiplicity = 1:

       Center              X                  Y                   Z               Mass
    ------------   -----------------  -----------------  -----------------  -----------------
         O            1.035112632337    -0.696872336607     0.043657466954    15.994914619570
         O            0.053097632337     1.386370663393    -0.162289533046    15.994914619570
         O            2.346346632337    -0.109115336607     0.249126466954    15.994914619570
         C           -1.246598367663    -0.627884336607    -0.391301533046    12.000000000000
         C           -2.490352867663    -0.141285536607     0.345800866954    12.000000000000
         C            0.050100632337     0.151254663393    -0.148241533046    12.000000000000
         H           -1.478435367663    -0.566396336607    -1.462906533046     1.007825032230
         H           -1.093575367663    -1.683490336607    -0.148910533046     1.007825032230
         H           -3.356199367663    -0.504862336607     0.172162466954     1.007825032230
         H           -2.464461367663     1.040626663393     0.192669466954     1.007825032230
         H           -2.217540367663    -0.139566336607     1.482799466954     1.007825032230

  Basis Set: AUG-CC-PVTZ
    Blend: AUG-CC-PVTZ
  Basis Set: (AUG-CC-PVTZ AUX)
    Blend: AUG-CC-PVTZ-JKFIT
	 Reference Energy          =    -341.1081669341703559 [Eh]
	 Singles Energy            =      -0.0000000000000000 [Eh]
	 Same-Spin Energy          =      -0.3299809691922688 [Eh]
	 Opposite-Spin Energy      =      -1.0199263991080103 [Eh]
	 Correlation Energy        =      -1.3499073683002791 [Eh]
	 Total Energy              =    -342.4580743024706635 [Eh]

	 ================> DF-SCS-MP2 Energies <==================
	-----------------------------------------------------------
	 SCS Same-Spin Scale       =       0.3333333333333333 [-]
	 SCS Opposite-Spin Scale   =       1.2000000000000000 [-]
	 SCS Same-Spin Energy      =      -0.1099936563974229 [Eh]
	 SCS Opposite-Spin Energy  =      -1.2239116789296123 [Eh]
	 SCS Correlation Energy    =      -1.3339053353270351 [Eh]
	 SCS Total Energy          =    -342.4420722694973733 [Eh]
	-----------------------------------------------------------

  Dipole Moment: [D]
     X:    -7.8051      Y:    -1.9151      Z:    -0.8024     Total:     8.0766

*** Psi4 exiting successfully. Buy a developer a beer!
