                               Psi4 1.4a3.dev225

  ==> Input File <==

--------------------------------------------------------------------------
#psi4
#
memory 32 gb

molecule  {
-1 1
  O        1.1351350    -0.6918790     0.0330860
  O        0.1531200     1.3913640    -0.1728610
  O        2.4463690    -0.1041220     0.2385550
  C       -1.1589429    -0.6159729    -0.4244126
  C       -2.2980290    -0.0223870     0.3984860
  C        0.1501230     0.1562480    -0.1588130
  H       -1.3784130    -0.5614030    -1.4734780
  H       -0.9935530    -1.6784970    -0.1594820
  H       -3.2561770    -0.4998690     0.1615910
  H       -2.3644390     1.0456200     0.1820980
  H       -2.1175180    -0.1345730     1.4722280
units angstrom
no_reorient  #important for SAPT in psi4, default
symmetry c1  #important for SAPT in psi4, default
}

set PROPERTIES_ORIGIN ["COM"]
properties('MP2/aug-cc-pvtz', properties = ['dipole'])
--------------------------------------------------------------------------

    Molecular point group: c1
  Charge       = -1
  Multiplicity = 1
  Basis Set: AUG-CC-PVTZ
    Blend: AUG-CC-PVTZ
  Basis Set: (AUG-CC-PVTZ AUX)
    Blend: AUG-CC-PVTZ-JKFIT

    Orbital Energies [Eh]
    ---------------------

    Doubly Occupied:

       1A    -20.412487     2A    -20.347338     3A    -20.300986
       4A    -11.187322     5A    -11.094957     6A    -11.091672
       7A     -1.256678     8A     -1.159527     9A     -0.938283
      10A     -0.892351    11A     -0.732084    12A     -0.568111
      13A     -0.504596    14A     -0.493321    15A     -0.453146
      16A     -0.435994    17A     -0.410851    18A     -0.378596
      19A     -0.363008    20A     -0.311170    21A     -0.290979
      22A     -0.250104    23A     -0.190661    24A     -0.166085

  @DF-RHF Final Energy:  -341.13885343064692

   => Energetics <=

    Nuclear Repulsion Energy =            231.3069862396571068
    One-Electron Energy =                -936.4310621083080832
    Two-Electron Energy =                 363.9852224380040298
    Total Energy =                       -341.1388534306469182
  Basis Set: (AUG-CC-PVTZ AUX)
    Blend: AUG-CC-PVTZ-RI
    Molecular point group: c1

    Geometry (in Angstrom), charge = -1, multiplicity = 1:

       Center              X                  Y                   Z               Mass
    ------------   -----------------  -----------------  -----------------  -----------------
         O            1.024337823170    -0.713158750756     0.038169006327    15.994914619570
         O            0.042322823170     1.370084249244    -0.167777993673    15.994914619570
         O            2.335571823170    -0.125401750756     0.243638006327    15.994914619570
         C           -1.269740076830    -0.637252650756    -0.419329593673    12.000000000000
         C           -2.408826176830    -0.043666750756     0.403569006327    12.000000000000
         C            0.039325823170     0.134968249244    -0.153729993673    12.000000000000
         H           -1.489210176830    -0.582682750756    -1.468394993673     1.007825032230
         H           -1.104350176830    -1.699776750756    -0.154398993673     1.007825032230
         H           -3.366974176830    -0.521148750756     0.166674006327     1.007825032230
         H           -2.475236176830     1.024340249244     0.187181006327     1.007825032230
         H           -2.228315176830    -0.155852750756     1.477311006327     1.007825032230

  Basis Set: AUG-CC-PVTZ
    Blend: AUG-CC-PVTZ
  Basis Set: (AUG-CC-PVTZ AUX)
    Blend: AUG-CC-PVTZ-JKFIT
	 Reference Energy          =    -341.1388534306469182 [Eh]
	 Singles Energy            =      -0.0000000000000000 [Eh]
	 Same-Spin Energy          =      -0.3294384191452802 [Eh]
	 Opposite-Spin Energy      =      -1.0184318901338880 [Eh]
	 Correlation Energy        =      -1.3478703092791682 [Eh]
	 Total Energy              =    -342.4867237399261057 [Eh]

	 ================> DF-SCS-MP2 Energies <==================
	-----------------------------------------------------------
	 SCS Same-Spin Scale       =       0.3333333333333333 [-]
	 SCS Opposite-Spin Scale   =       1.2000000000000000 [-]
	 SCS Same-Spin Energy      =      -0.1098128063817601 [Eh]
	 SCS Opposite-Spin Energy  =      -1.2221182681606655 [Eh]
	 SCS Correlation Energy    =      -1.3319310745424255 [Eh]
	 SCS Total Energy          =    -342.4707845051893287 [Eh]
	-----------------------------------------------------------

  Dipole Moment: [D]
     X:    -7.7950      Y:    -1.7896      Z:    -0.7498     Total:     8.0329

*** Psi4 exiting successfully. Buy a developer a beer!
