                               Psi4 1.4a3.dev225

  ==> Input File <==

--------------------------------------------------------------------------
#psi4
#
memory 32 gb

molecule  {
-1 1
  O        1.1351350    -0.6918790     0.0330860
  O        0.0685355     1.3883734    -0.1892826
  O        2.4463690    -0.1041220     0.2385550
  C       -1.1465760    -0.6228910    -0.4018730
  C       -2.2980290    -0.0223870     0.3984860
  C        0.1501230     0.1562480    -0.1588130
  H       -1.3784130    -0.5614030    -1.4734780
  H       -0.9935530    -1.6784970    -0.1594820
  H       -3.2561770    -0.4998690     0.1615910
  H       -2.3644390     1.0456200     0.1820980
  H       -2.1175180    -0.1345730     1.4722280
units angstrom
no_reorient  #important for SAPT in psi4, default
symmetry c1  #important for SAPT in psi4, default
}

set PROPERTIES_ORIGIN ["COM"]
properties('MP2/aug-cc-pvtz', properties = ['dipole'])
--------------------------------------------------------------------------

    Molecular point group: c1
  Charge       = -1
  Multiplicity = 1
  Basis Set: AUG-CC-PVTZ
    Blend: AUG-CC-PVTZ
  Basis Set: (AUG-CC-PVTZ AUX)
    Blend: AUG-CC-PVTZ-JKFIT

    Orbital Energies [Eh]
    ---------------------

    Doubly Occupied:

       1A    -20.417337     2A    -20.349875     3A    -20.303731
       4A    -11.189225     5A    -11.092046     6A    -11.087965
       7A     -1.258562     8A     -1.165915     9A     -0.940146
      10A     -0.890455    11A     -0.729830    12A     -0.569341
      13A     -0.506352    14A     -0.490163    15A     -0.456364
      16A     -0.436610    17A     -0.410848    18A     -0.373665
      19A     -0.360852    20A     -0.314346    21A     -0.294376
      22A     -0.250459    23A     -0.193536    24A     -0.169334

  @DF-RHF Final Energy:  -341.13752615776917

   => Energetics <=

    Nuclear Repulsion Energy =            231.5240516915033595
    One-Electron Energy =                -936.8204908567590792
    Two-Electron Energy =                 364.1589130074865466
    Total Energy =                       -341.1375261577691731
  Basis Set: (AUG-CC-PVTZ AUX)
    Blend: AUG-CC-PVTZ-RI
    Molecular point group: c1

    Geometry (in Angstrom), charge = -1, multiplicity = 1:

       Center              X                  Y                   Z               Mass
    ------------   -----------------  -----------------  -----------------  -----------------
         O            1.037868116438    -0.711688902353     0.038081242111    15.994914619570
         O           -0.028731383562     1.368563497647    -0.184287357889    15.994914619570
         O            2.349102116438    -0.123931902353     0.243550242111    15.994914619570
         C           -1.243842883562    -0.642700902353    -0.396877757889    12.000000000000
         C           -2.395295883562    -0.042196902353     0.403481242111    12.000000000000
         C            0.052856116438     0.136438097647    -0.153817757889    12.000000000000
         H           -1.475679883562    -0.581212902353    -1.468482757889     1.007825032230
         H           -1.090819883562    -1.698306902353    -0.154486757889     1.007825032230
         H           -3.353443883562    -0.519678902353     0.166586242111     1.007825032230
         H           -2.461705883562     1.025810097647     0.187093242111     1.007825032230
         H           -2.214784883562    -0.154382902353     1.477223242111     1.007825032230

  Basis Set: AUG-CC-PVTZ
    Blend: AUG-CC-PVTZ
  Basis Set: (AUG-CC-PVTZ AUX)
    Blend: AUG-CC-PVTZ-JKFIT
	 Reference Energy          =    -341.1375261577691731 [Eh]
	 Singles Energy            =      -0.0000000000000000 [Eh]
	 Same-Spin Energy          =      -0.3295587430490441 [Eh]
	 Opposite-Spin Energy      =      -1.0186905543327081 [Eh]
	 Correlation Energy        =      -1.3482492973817521 [Eh]
	 Total Energy              =    -342.4857754551509288 [Eh]

	 ================> DF-SCS-MP2 Energies <==================
	-----------------------------------------------------------
	 SCS Same-Spin Scale       =       0.3333333333333333 [-]
	 SCS Opposite-Spin Scale   =       1.2000000000000000 [-]
	 SCS Same-Spin Energy      =      -0.1098529143496814 [Eh]
	 SCS Opposite-Spin Energy  =      -1.2224286651992495 [Eh]
	 SCS Correlation Energy    =      -1.3322815795489309 [Eh]
	 SCS Total Energy          =    -342.4698077373180922 [Eh]
	-----------------------------------------------------------

  Dipole Moment: [D]
     X:    -7.6131      Y:    -1.7742      Z:    -0.6996     Total:     7.8484

*** Psi4 exiting successfully. Buy a developer a beer!
