                               Psi4 1.4a3.dev225

  ==> Input File <==

--------------------------------------------------------------------------
#psi4
#
memory 32 gb

molecule  {
-1 1
  O        1.1351350    -0.6918790     0.0330860
  O        0.1531200     1.3913640    -0.1728610
  O        2.4463690    -0.1041220     0.2385550
  C       -1.1465760    -0.6228910    -0.4018730
  C       -2.2294178     0.0499689     0.4358244
  C        0.1501230     0.1562480    -0.1588130
  H       -1.3784130    -0.5614030    -1.4734780
  H       -0.9935530    -1.6784970    -0.1594820
  H       -3.2561770    -0.4998690     0.1615910
  H       -2.3644390     1.0456200     0.1820980
  H       -2.1175180    -0.1345730     1.4722280
units angstrom
no_reorient  #important for SAPT in psi4, default
symmetry c1  #important for SAPT in psi4, default
}

set PROPERTIES_ORIGIN ["COM"]
properties('MP2/aug-cc-pvtz', properties = ['dipole'])
--------------------------------------------------------------------------

    Molecular point group: c1
  Charge       = -1
  Multiplicity = 1
  Basis Set: AUG-CC-PVTZ
    Blend: AUG-CC-PVTZ
  Basis Set: (AUG-CC-PVTZ AUX)
    Blend: AUG-CC-PVTZ-JKFIT

    Orbital Energies [Eh]
    ---------------------

    Doubly Occupied:

       1A    -20.412041     2A    -20.347469     3A    -20.300346
       4A    -11.185911     5A    -11.097552     6A    -11.093402
       7A     -1.256877     8A     -1.159987     9A     -0.939642
      10A     -0.892955    11A     -0.733820    12A     -0.568707
      13A     -0.508780    14A     -0.496372    15A     -0.457122
      16A     -0.439522    17A     -0.391378    18A     -0.380765
      19A     -0.373675    20A     -0.307104    21A     -0.290499
      22A     -0.250249    23A     -0.190106    24A     -0.165674

  @DF-RHF Final Energy:  -341.12857786112920

   => Energetics <=

    Nuclear Repulsion Energy =            232.0951452935585166
    One-Electron Energy =                -937.9675379739406935
    Two-Electron Energy =                 364.7438148192529752
    Total Energy =                       -341.1285778611292017
  Basis Set: (AUG-CC-PVTZ AUX)
    Blend: AUG-CC-PVTZ-RI
    Molecular point group: c1

    Geometry (in Angstrom), charge = -1, multiplicity = 1:

       Center              X                  Y                   Z               Mass
    ------------   -----------------  -----------------  -----------------  -----------------
         O            1.013422355098    -0.721979459276     0.030097732769    15.994914619570
         O            0.031407355098     1.361263540724    -0.175849267231    15.994914619570
         O            2.324656355098    -0.134222459276     0.235566732769    15.994914619570
         C           -1.268288644902    -0.652991459276    -0.404861267231    12.000000000000
         C           -2.351130444902     0.019868440724     0.432836132769    12.000000000000
         C            0.028410355098     0.126147540724    -0.161801267231    12.000000000000
         H           -1.500125644902    -0.591503459276    -1.476466267231     1.007825032230
         H           -1.115265644902    -1.708597459276    -0.162470267231     1.007825032230
         H           -3.377889644902    -0.529969459276     0.158602732769     1.007825032230
         H           -2.486151644902     1.015519540724     0.179109732769     1.007825032230
         H           -2.239230644902    -0.164673459276     1.469239732769     1.007825032230

  Basis Set: AUG-CC-PVTZ
    Blend: AUG-CC-PVTZ
  Basis Set: (AUG-CC-PVTZ AUX)
    Blend: AUG-CC-PVTZ-JKFIT
	 Reference Energy          =    -341.1285778611292017 [Eh]
	 Singles Energy            =      -0.0000000000000000 [Eh]
	 Same-Spin Energy          =      -0.3296358347100778 [Eh]
	 Opposite-Spin Energy      =      -1.0189700123199561 [Eh]
	 Correlation Energy        =      -1.3486058470300339 [Eh]
	 Total Energy              =    -342.4771837081592594 [Eh]

	 ================> DF-SCS-MP2 Energies <==================
	-----------------------------------------------------------
	 SCS Same-Spin Scale       =       0.3333333333333333 [-]
	 SCS Opposite-Spin Scale   =       1.2000000000000000 [-]
	 SCS Same-Spin Energy      =      -0.1098786115700259 [Eh]
	 SCS Opposite-Spin Energy  =      -1.2227640147839474 [Eh]
	 SCS Correlation Energy    =      -1.3326426263539732 [Eh]
	 SCS Total Energy          =    -342.4612204874831605 [Eh]
	-----------------------------------------------------------

  Dipole Moment: [D]
     X:    -7.6886      Y:    -1.7315      Z:    -0.6815     Total:     7.9106

*** Psi4 exiting successfully. Buy a developer a beer!
