                               Psi4 1.4a3.dev225

  ==> Input File <==

--------------------------------------------------------------------------
#psi4
#
memory 32 gb

molecule  {
-1 1
  O        1.1351350    -0.6918790     0.0330860
  O        0.1531200     1.3913640    -0.1728610
  O        2.4463690    -0.1041220     0.2385550
  C       -1.1465760    -0.6228910    -0.4018730
  C       -2.2980290    -0.0223870     0.3984860
  C        0.1501230     0.1562480    -0.1588130
  H       -1.3784130    -0.5614030    -1.4734780
  H       -0.9935530    -1.6784970    -0.1594820
  H       -3.2386994    -0.4911592     0.1659122
  H       -2.3644390     1.0456200     0.1820980
  H       -2.1175180    -0.1345730     1.4722280
units angstrom
no_reorient  #important for SAPT in psi4, default
symmetry c1  #important for SAPT in psi4, default
}

set PROPERTIES_ORIGIN ["COM"]
properties('MP2/aug-cc-pvtz', properties = ['dipole'])
--------------------------------------------------------------------------

    Molecular point group: c1
  Charge       = -1
  Multiplicity = 1
  Basis Set: AUG-CC-PVTZ
    Blend: AUG-CC-PVTZ
  Basis Set: (AUG-CC-PVTZ AUX)
    Blend: AUG-CC-PVTZ-JKFIT

    Orbital Energies [Eh]
    ---------------------

    Doubly Occupied:

       1A    -20.412089     2A    -20.347235     3A    -20.300573
       4A    -11.186777     5A    -11.092566     6A    -11.091904
       7A     -1.256735     8A     -1.159390     9A     -0.939096
      10A     -0.892724    11A     -0.733828    12A     -0.568250
      13A     -0.506350    14A     -0.492128    15A     -0.453672
      16A     -0.435961    17A     -0.414109    18A     -0.375832
      19A     -0.362935    20A     -0.311128    21A     -0.290547
      22A     -0.251414    23A     -0.190304    24A     -0.165715

  @DF-RHF Final Energy:  -341.13946871824868

   => Energetics <=

    Nuclear Repulsion Energy =            231.5689524765626288
    One-Electron Energy =                -936.9543177064301744
    Two-Electron Energy =                 364.2458965116189233
    Total Energy =                       -341.1394687182486791
  Basis Set: (AUG-CC-PVTZ AUX)
    Blend: AUG-CC-PVTZ-RI
    Molecular point group: c1

    Geometry (in Angstrom), charge = -1, multiplicity = 1:

       Center              X                  Y                   Z               Mass
    ------------   -----------------  -----------------  -----------------  -----------------
         O            1.022472961930    -0.712324825581     0.035081854347    15.994914619570
         O            0.040457961930     1.370918174419    -0.170865145653    15.994914619570
         O            2.333706961930    -0.124567825581     0.240550854347    15.994914619570
         C           -1.259238038070    -0.643336825581    -0.399877145653    12.000000000000
         C           -2.410691038070    -0.042832825581     0.400481854347    12.000000000000
         C            0.037460961930     0.135802174419    -0.156817145653    12.000000000000
         H           -1.491075038070    -0.581848825581    -1.471482145653     1.007825032230
         H           -1.106215038070    -1.698942825581    -0.157486145653     1.007825032230
         H           -3.351361438070    -0.511605025581     0.167908054347     1.007825032230
         H           -2.477101038070     1.025174174419     0.184093854347     1.007825032230
         H           -2.230180038070    -0.155018825581     1.474223854347     1.007825032230

  Basis Set: AUG-CC-PVTZ
    Blend: AUG-CC-PVTZ
  Basis Set: (AUG-CC-PVTZ AUX)
    Blend: AUG-CC-PVTZ-JKFIT
	 Reference Energy          =    -341.1394687182486791 [Eh]
	 Singles Energy            =      -0.0000000000000000 [Eh]
	 Same-Spin Energy          =      -0.3295316335517285 [Eh]
	 Opposite-Spin Energy      =      -1.0184082352162276 [Eh]
	 Correlation Energy        =      -1.3479398687679560 [Eh]
	 Total Energy              =    -342.4874085870166596 [Eh]

	 ================> DF-SCS-MP2 Energies <==================
	-----------------------------------------------------------
	 SCS Same-Spin Scale       =       0.3333333333333333 [-]
	 SCS Opposite-Spin Scale   =       1.2000000000000000 [-]
	 SCS Same-Spin Energy      =      -0.1098438778505762 [Eh]
	 SCS Opposite-Spin Energy  =      -1.2220898822594730 [Eh]
	 SCS Correlation Energy    =      -1.3319337601100492 [Eh]
	 SCS Total Energy          =    -342.4714024783587547 [Eh]
	-----------------------------------------------------------

  Dipole Moment: [D]
     X:    -7.8261      Y:    -1.8178      Z:    -0.7221     Total:     8.0668

*** Psi4 exiting successfully. Buy a developer a beer!
