                               Psi4 1.4a3.dev225

  ==> Input File <==

--------------------------------------------------------------------------
#psi4
#
memory 32 gb

molecule  {
-1 1
  O        1.1351350    -0.6918790     0.0330860
  O        0.1531200     1.3913640    -0.1728610
  O        2.4463690    -0.1041220     0.2385550
  C       -1.1465760    -0.6228910    -0.4018730
  C       -2.2980290    -0.0223870     0.3984860
  C        0.1670492     0.1664184    -0.1556403
  H       -1.3784130    -0.5614030    -1.4734780
  H       -0.9935530    -1.6784970    -0.1594820
  H       -3.2561770    -0.4998690     0.1615910
  H       -2.3644390     1.0456200     0.1820980
  H       -2.1175180    -0.1345730     1.4722280
units angstrom
no_reorient  #important for SAPT in psi4, default
symmetry c1  #important for SAPT in psi4, default
}

set PROPERTIES_ORIGIN ["COM"]
properties('MP2/aug-cc-pvtz', properties = ['dipole'])
--------------------------------------------------------------------------

    Molecular point group: c1
  Charge       = -1
  Multiplicity = 1
  Basis Set: AUG-CC-PVTZ
    Blend: AUG-CC-PVTZ
  Basis Set: (AUG-CC-PVTZ AUX)
    Blend: AUG-CC-PVTZ-JKFIT

    Orbital Energies [Eh]
    ---------------------

    Doubly Occupied:

       1A    -20.413356     2A    -20.348750     3A    -20.301033
       4A    -11.186660     5A    -11.093743     6A    -11.090664
       7A     -1.261104     8A     -1.166500     9A     -0.938510
      10A     -0.890482    11A     -0.728237    12A     -0.568060
      13A     -0.505860    14A     -0.490442    15A     -0.456566
      16A     -0.437522    17A     -0.412423    18A     -0.375351
      19A     -0.362284    20A     -0.311819    21A     -0.294297
      22A     -0.249211    23A     -0.191524    24A     -0.167089

  @DF-RHF Final Energy:  -341.14010789771510

   => Energetics <=

    Nuclear Repulsion Energy =            231.5713208196755488
    One-Electron Energy =                -936.9398840585911330
    Two-Electron Energy =                 364.2284553412005152
    Total Energy =                       -341.1401078977150974
  Basis Set: (AUG-CC-PVTZ AUX)
    Blend: AUG-CC-PVTZ-RI
    Molecular point group: c1

    Geometry (in Angstrom), charge = -1, multiplicity = 1:

       Center              X                  Y                   Z               Mass
    ------------   -----------------  -----------------  -----------------  -----------------
         O            1.020389250682    -0.713597145542     0.034703108884    15.994914619570
         O            0.038374250682     1.369645854458    -0.171243891116    15.994914619570
         O            2.331623250682    -0.125840145542     0.240172108884    15.994914619570
         C           -1.261321749318    -0.644609145542    -0.400255891116    12.000000000000
         C           -2.412774749318    -0.044105145542     0.400103108884    12.000000000000
         C            0.052303450682     0.144700254458    -0.154023191116    12.000000000000
         H           -1.493158749318    -0.583121145542    -1.471860891116     1.007825032230
         H           -1.108298749318    -1.700215145542    -0.157864891116     1.007825032230
         H           -3.370922749318    -0.521587145542     0.163208108884     1.007825032230
         H           -2.479184749318     1.023901854458     0.183715108884     1.007825032230
         H           -2.232263749318    -0.156291145542     1.473845108884     1.007825032230

  Basis Set: AUG-CC-PVTZ
    Blend: AUG-CC-PVTZ
  Basis Set: (AUG-CC-PVTZ AUX)
    Blend: AUG-CC-PVTZ-JKFIT
	 Reference Energy          =    -341.1401078977150974 [Eh]
	 Singles Energy            =      -0.0000000000000000 [Eh]
	 Same-Spin Energy          =      -0.3291799748192512 [Eh]
	 Opposite-Spin Energy      =      -1.0178859937776052 [Eh]
	 Correlation Energy        =      -1.3470659685968565 [Eh]
	 Total Energy              =    -342.4871738663119345 [Eh]

	 ================> DF-SCS-MP2 Energies <==================
	-----------------------------------------------------------
	 SCS Same-Spin Scale       =       0.3333333333333333 [-]
	 SCS Opposite-Spin Scale   =       1.2000000000000000 [-]
	 SCS Same-Spin Energy      =      -0.1097266582730837 [Eh]
	 SCS Opposite-Spin Energy  =      -1.2214631925331263 [Eh]
	 SCS Correlation Energy    =      -1.3311898508062101 [Eh]
	 SCS Total Energy          =    -342.4712977485212946 [Eh]
	-----------------------------------------------------------

  Dipole Moment: [D]
     X:    -7.7177      Y:    -1.7405      Z:    -0.7100     Total:     7.9433

*** Psi4 exiting successfully. Buy a developer a beer!
