                               Psi4 1.4a3.dev225

  ==> Input File <==

--------------------------------------------------------------------------
#psi4
#
memory 32 gb

molecule  {
-1 1
  O        1.1351350    -0.6918790     0.0330860
  O        0.1742799     1.3911714    -0.1687418
  O        2.4463690    -0.1041220     0.2385550
  C       -1.1465760    -0.6228910    -0.4018730
  C       -2.2980290    -0.0223870     0.3984860
  C        0.1501230     0.1562480    -0.1588130
  H       -1.3784130    -0.5614030    -1.4734780
  H       -0.9935530    -1.6784970    -0.1594820
  H       -3.2561770    -0.4998690     0.1615910
  H       -2.3644390     1.0456200     0.1820980
  H       -2.1175180    -0.1345730     1.4722280
units angstrom
no_reorient  #important for SAPT in psi4, default
symmetry c1  #important for SAPT in psi4, default
}

set PROPERTIES_ORIGIN ["COM"]
properties('MP2/aug-cc-pvtz', properties = ['dipole'])
--------------------------------------------------------------------------

    Molecular point group: c1
  Charge       = -1
  Multiplicity = 1
  Basis Set: AUG-CC-PVTZ
    Blend: AUG-CC-PVTZ
  Basis Set: (AUG-CC-PVTZ AUX)
    Blend: AUG-CC-PVTZ-JKFIT

    Orbital Energies [Eh]
    ---------------------

    Doubly Occupied:

       1A    -20.410988     2A    -20.346816     3A    -20.299956
       4A    -11.186470     5A    -11.095824     6A    -11.093421
       7A     -1.256565     8A     -1.157992     9A     -0.938947
      10A     -0.892433    11A     -0.733036    12A     -0.568218
      13A     -0.505694    14A     -0.492656    15A     -0.453304
      16A     -0.435379    17A     -0.412083    18A     -0.376627
      19A     -0.363761    20A     -0.310353    21A     -0.289749
      22A     -0.251658    23A     -0.189661    24A     -0.164990

  @DF-RHF Final Energy:  -341.13949506483914

   => Energetics <=

    Nuclear Repulsion Energy =            231.4866302170210872
    One-Electron Energy =                -936.7990888205591773
    Two-Electron Energy =                 364.1729635386989230
    Total Energy =                       -341.1394950648391386
  Basis Set: (AUG-CC-PVTZ AUX)
    Blend: AUG-CC-PVTZ-RI
    Molecular point group: c1

    Geometry (in Angstrom), charge = -1, multiplicity = 1:

       Center              X                  Y                   Z               Mass
    ------------   -----------------  -----------------  -----------------  -----------------
         O            1.018869024755    -0.712191618890     0.034390677481    15.994914619570
         O            0.058013924755     1.370858781110    -0.167437122519    15.994914619570
         O            2.330103024755    -0.124434618890     0.239859677481    15.994914619570
         C           -1.262841975245    -0.643203618890    -0.400568322519    12.000000000000
         C           -2.414294975245    -0.042699618890     0.399790677481    12.000000000000
         C            0.033857024755     0.135935381110    -0.157508322519    12.000000000000
         H           -1.494678975245    -0.581715618890    -1.472173322519     1.007825032230
         H           -1.109818975245    -1.698809618890    -0.158177322519     1.007825032230
         H           -3.372442975245    -0.520181618890     0.162895677481     1.007825032230
         H           -2.480704975245     1.025307381110     0.183402677481     1.007825032230
         H           -2.233783975245    -0.154885618890     1.473532677481     1.007825032230

  Basis Set: AUG-CC-PVTZ
    Blend: AUG-CC-PVTZ
  Basis Set: (AUG-CC-PVTZ AUX)
    Blend: AUG-CC-PVTZ-JKFIT
	 Reference Energy          =    -341.1394950648391386 [Eh]
	 Singles Energy            =      -0.0000000000000000 [Eh]
	 Same-Spin Energy          =      -0.3295207058086637 [Eh]
	 Opposite-Spin Energy      =      -1.0184999255522711 [Eh]
	 Correlation Energy        =      -1.3480206313609346 [Eh]
	 Total Energy              =    -342.4875156962000915 [Eh]

	 ================> DF-SCS-MP2 Energies <==================
	-----------------------------------------------------------
	 SCS Same-Spin Scale       =       0.3333333333333333 [-]
	 SCS Opposite-Spin Scale   =       1.2000000000000000 [-]
	 SCS Same-Spin Energy      =      -0.1098402352695546 [Eh]
	 SCS Opposite-Spin Energy  =      -1.2221999106627253 [Eh]
	 SCS Correlation Energy    =      -1.3320401459322797 [Eh]
	 SCS Total Energy          =    -342.4715352107714352 [Eh]
	-----------------------------------------------------------

  Dipole Moment: [D]
     X:    -7.8492      Y:    -1.8184      Z:    -0.7264     Total:     8.0898

*** Psi4 exiting successfully. Buy a developer a beer!
