                               Psi4 1.4a3.dev225

  ==> Input File <==

--------------------------------------------------------------------------
#psi4
#
memory 32 gb

molecule  {
-1 1
  O        1.1351350    -0.6918790     0.0330860
  O        0.1531200     1.3913640    -0.1728610
  O        2.4463690    -0.1041220     0.2385550
  C       -1.1465760    -0.6228910    -0.4018730
  C       -2.2980290    -0.0223870     0.3984860
  C        0.1501230     0.1562480    -0.1588130
  H       -1.3826354    -0.5602831    -1.4929951
  H       -0.9935530    -1.6784970    -0.1594820
  H       -3.2561770    -0.4998690     0.1615910
  H       -2.3644390     1.0456200     0.1820980
  H       -2.1175180    -0.1345730     1.4722280
units angstrom
no_reorient  #important for SAPT in psi4, default
symmetry c1  #important for SAPT in psi4, default
}

set PROPERTIES_ORIGIN ["COM"]
properties('MP2/aug-cc-pvtz', properties = ['dipole'])
--------------------------------------------------------------------------

    Molecular point group: c1
  Charge       = -1
  Multiplicity = 1
  Basis Set: AUG-CC-PVTZ
    Blend: AUG-CC-PVTZ
  Basis Set: (AUG-CC-PVTZ AUX)
    Blend: AUG-CC-PVTZ-JKFIT

    Orbital Energies [Eh]
    ---------------------

    Doubly Occupied:

       1A    -20.412419     2A    -20.347547     3A    -20.300864
       4A    -11.187242     5A    -11.095466     6A    -11.094756
       7A     -1.257055     8A     -1.159701     9A     -0.939003
      10A     -0.891690    11A     -0.731413    12A     -0.567900
      13A     -0.505924    14A     -0.490620    15A     -0.454030
      16A     -0.435731    17A     -0.411947    18A     -0.375770
      19A     -0.361951    20A     -0.311203    21A     -0.290693
      22A     -0.251736    23A     -0.190592    24A     -0.165981

  @DF-RHF Final Energy:  -341.13894568924684

   => Energetics <=

    Nuclear Repulsion Energy =            231.3890100167578510
    One-Electron Energy =                -936.5934435408402123
    Two-Electron Energy =                 364.0654878348354941
    Total Energy =                       -341.1389456892468388
  Basis Set: (AUG-CC-PVTZ AUX)
    Blend: AUG-CC-PVTZ-RI
    Molecular point group: c1

    Geometry (in Angstrom), charge = -1, multiplicity = 1:

       Center              X                  Y                   Z               Mass
    ------------   -----------------  -----------------  -----------------  -----------------
         O            1.022718624172    -0.712238901533     0.035351723941    15.994914619570
         O            0.040703624172     1.371004098467    -0.170595276059    15.994914619570
         O            2.333952624172    -0.124481901533     0.240820723941    15.994914619570
         C           -1.258992375828    -0.643250901533    -0.399607276059    12.000000000000
         C           -2.410445375828    -0.042746901533     0.400751723941    12.000000000000
         C            0.037706624172     0.135888098467    -0.156547276059    12.000000000000
         H           -1.495051775828    -0.580643001533    -1.490729376059     1.007825032230
         H           -1.105969375828    -1.698856901533    -0.157216276059     1.007825032230
         H           -3.368593375828    -0.520228901533     0.163856723941     1.007825032230
         H           -2.476855375828     1.025260098467     0.184363723941     1.007825032230
         H           -2.229934375828    -0.154932901533     1.474493723941     1.007825032230

  Basis Set: AUG-CC-PVTZ
    Blend: AUG-CC-PVTZ
  Basis Set: (AUG-CC-PVTZ AUX)
    Blend: AUG-CC-PVTZ-JKFIT
	 Reference Energy          =    -341.1389456892468388 [Eh]
	 Singles Energy            =      -0.0000000000000000 [Eh]
	 Same-Spin Energy          =      -0.3295026490252226 [Eh]
	 Opposite-Spin Energy      =      -1.0186197132818682 [Eh]
	 Correlation Energy        =      -1.3481223623070908 [Eh]
	 Total Energy              =    -342.4870680515539334 [Eh]

	 ================> DF-SCS-MP2 Energies <==================
	-----------------------------------------------------------
	 SCS Same-Spin Scale       =       0.3333333333333333 [-]
	 SCS Opposite-Spin Scale   =       1.2000000000000000 [-]
	 SCS Same-Spin Energy      =      -0.1098342163417409 [Eh]
	 SCS Opposite-Spin Energy  =      -1.2223436559382417 [Eh]
	 SCS Correlation Energy    =      -1.3321778722799826 [Eh]
	 SCS Total Energy          =    -342.4711235615268379 [Eh]
	-----------------------------------------------------------

  Dipole Moment: [D]
     X:    -7.7963      Y:    -1.8087      Z:    -0.7053     Total:     8.0344

*** Psi4 exiting successfully. Buy a developer a beer!
