                               Psi4 1.4a3.dev225

  ==> Input File <==

--------------------------------------------------------------------------
#psi4
#
memory 32 gb

molecule  {
-1 1
  O        1.1351350    -0.6918790     0.0330860
  O        0.1531200     1.3913640    -0.1728610
  O        2.4463690    -0.1041220     0.2385550
  C       -1.1465760    -0.6228910    -0.4018730
  C       -2.2980290    -0.0223870     0.3984860
  C        0.1924386     0.1816739    -0.1508811
  H       -1.3784130    -0.5614030    -1.4734780
  H       -0.9935530    -1.6784970    -0.1594820
  H       -3.2561770    -0.4998690     0.1615910
  H       -2.3644390     1.0456200     0.1820980
  H       -2.1175180    -0.1345730     1.4722280
units angstrom
no_reorient  #important for SAPT in psi4, default
symmetry c1  #important for SAPT in psi4, default
}

set PROPERTIES_ORIGIN ["COM"]
properties('MP2/aug-cc-pvtz', properties = ['dipole'])
--------------------------------------------------------------------------

    Molecular point group: c1
  Charge       = -1
  Multiplicity = 1
  Basis Set: AUG-CC-PVTZ
    Blend: AUG-CC-PVTZ
  Basis Set: (AUG-CC-PVTZ AUX)
    Blend: AUG-CC-PVTZ-JKFIT

    Orbital Energies [Eh]
    ---------------------

    Doubly Occupied:

       1A    -20.415106     2A    -20.350895     3A    -20.301584
       4A    -11.186470     5A    -11.091692     6A    -11.087769
       7A     -1.267407     8A     -1.176997     9A     -0.938064
      10A     -0.887681    11A     -0.722110    12A     -0.568031
      13A     -0.505887    14A     -0.488056    15A     -0.460951
      16A     -0.440446    17A     -0.413146    18A     -0.373997
      19A     -0.360703    20A     -0.313350    21A     -0.299710
      22A     -0.244411    23A     -0.193138    24A     -0.168976

  @DF-RHF Final Energy:  -341.13924647662787

   => Energetics <=

    Nuclear Repulsion Energy =            231.7077373498286192
    One-Electron Energy =                -937.1808194335297912
    Two-Electron Energy =                 364.3338356070733539
    Total Energy =                       -341.1392464766278749
  Basis Set: (AUG-CC-PVTZ AUX)
    Blend: AUG-CC-PVTZ-RI
    Molecular point group: c1

    Geometry (in Angstrom), charge = -1, multiplicity = 1:

       Center              X                  Y                   Z               Mass
    ------------   -----------------  -----------------  -----------------  -----------------
         O            1.016966878645    -0.715653515390     0.034061591046    15.994914619570
         O            0.034951878645     1.367589484610    -0.171885408954    15.994914619570
         O            2.328200878645    -0.127896515390     0.239530591046    15.994914619570
         C           -1.264744121355    -0.646665515390    -0.400897408954    12.000000000000
         C           -2.416197121355    -0.046161515390     0.399461591046    12.000000000000
         C            0.074270478645     0.157899384610    -0.149905508954    12.000000000000
         H           -1.496581121355    -0.585177515390    -1.472502408954     1.007825032230
         H           -1.111721121355    -1.702271515390    -0.158506408954     1.007825032230
         H           -3.374345121355    -0.523643515390     0.162566591046     1.007825032230
         H           -2.482607121355     1.021845484610     0.183073591046     1.007825032230
         H           -2.235686121355    -0.158347515390     1.473203591046     1.007825032230

  Basis Set: AUG-CC-PVTZ
    Blend: AUG-CC-PVTZ
  Basis Set: (AUG-CC-PVTZ AUX)
    Blend: AUG-CC-PVTZ-JKFIT
	 Reference Energy          =    -341.1392464766278749 [Eh]
	 Singles Energy            =      -0.0000000000000000 [Eh]
	 Same-Spin Energy          =      -0.3287901055624524 [Eh]
	 Opposite-Spin Energy      =      -1.0171383934691327 [Eh]
	 Correlation Energy        =      -1.3459284990315852 [Eh]
	 Total Energy              =    -342.4851749756594472 [Eh]

	 ================> DF-SCS-MP2 Energies <==================
	-----------------------------------------------------------
	 SCS Same-Spin Scale       =       0.3333333333333333 [-]
	 SCS Opposite-Spin Scale   =       1.2000000000000000 [-]
	 SCS Same-Spin Energy      =      -0.1095967018541508 [Eh]
	 SCS Opposite-Spin Energy  =      -1.2205660721629592 [Eh]
	 SCS Correlation Energy    =      -1.3301627740171100 [Eh]
	 SCS Total Energy          =    -342.4694092506449579 [Eh]
	-----------------------------------------------------------

  Dipole Moment: [D]
     X:    -7.5799      Y:    -1.6287      Z:    -0.6921     Total:     7.7838

*** Psi4 exiting successfully. Buy a developer a beer!
