                               Psi4 1.4a3.dev225

  ==> Input File <==

--------------------------------------------------------------------------
#psi4
#
memory 32 gb

molecule  {
-1 1
  O        1.1351350    -0.6918790     0.0330860
  O        0.1531200     1.3913640    -0.1728610
  O        2.4463690    -0.1041220     0.2385550
  C       -1.1465760    -0.6228910    -0.4018730
  C       -2.2980290    -0.0223870     0.3984860
  C        0.1501230     0.1562480    -0.1588130
  H       -1.3784130    -0.5614030    -1.4734780
  H       -0.9935530    -1.6784970    -0.1594820
  H       -3.2736546    -0.5085788     0.1572698
  H       -2.3644390     1.0456200     0.1820980
  H       -2.1175180    -0.1345730     1.4722280
units angstrom
no_reorient  #important for SAPT in psi4, default
symmetry c1  #important for SAPT in psi4, default
}

set PROPERTIES_ORIGIN ["COM"]
properties('MP2/aug-cc-pvtz', properties = ['dipole'])
--------------------------------------------------------------------------

    Molecular point group: c1
  Charge       = -1
  Multiplicity = 1
  Basis Set: AUG-CC-PVTZ
    Blend: AUG-CC-PVTZ
  Basis Set: (AUG-CC-PVTZ AUX)
    Blend: AUG-CC-PVTZ-JKFIT

    Orbital Energies [Eh]
    ---------------------

    Doubly Occupied:

       1A    -20.412470     2A    -20.347712     3A    -20.300897
       4A    -11.187281     5A    -11.097746     6A    -11.092645
       7A     -1.257134     8A     -1.159845     9A     -0.939228
      10A     -0.891585    11A     -0.731087    12A     -0.568640
      13A     -0.505376    14A     -0.492194    15A     -0.454148
      16A     -0.435405    17A     -0.409446    18A     -0.376257
      19A     -0.363478    20A     -0.311249    21A     -0.290940
      22A     -0.251759    23A     -0.190630    24A     -0.166044

  @DF-RHF Final Energy:  -341.13898027594394

   => Energetics <=

    Nuclear Repulsion Energy =            231.3964346273727983
    One-Electron Energy =                -936.6044387130746145
    Two-Electron Energy =                 364.0690238097578231
    Total Energy =                       -341.1389802759439362
  Basis Set: (AUG-CC-PVTZ AUX)
    Blend: AUG-CC-PVTZ-RI
    Molecular point group: c1

    Geometry (in Angstrom), charge = -1, multiplicity = 1:

       Center              X                  Y                   Z               Mass
    ------------   -----------------  -----------------  -----------------  -----------------
         O            1.022868684178    -0.712127621066     0.035179693579    15.994914619570
         O            0.040853684178     1.371115378934    -0.170767306421    15.994914619570
         O            2.334102684178    -0.124370621066     0.240648693579    15.994914619570
         C           -1.258842315822    -0.643139621066    -0.399779306421    12.000000000000
         C           -2.410295315822    -0.042635621066     0.400579693579    12.000000000000
         C            0.037856684178     0.135999378934    -0.156719306421    12.000000000000
         H           -1.490679315822    -0.581651621066    -1.471384306421     1.007825032230
         H           -1.105819315822    -1.698745621066    -0.157388306421     1.007825032230
         H           -3.385920915822    -0.528827421066     0.159363493579     1.007825032230
         H           -2.476705315822     1.025371378934     0.184191693579     1.007825032230
         H           -2.229784315822    -0.154821621066     1.474321693579     1.007825032230

  Basis Set: AUG-CC-PVTZ
    Blend: AUG-CC-PVTZ
  Basis Set: (AUG-CC-PVTZ AUX)
    Blend: AUG-CC-PVTZ-JKFIT
	 Reference Energy          =    -341.1389802759439362 [Eh]
	 Singles Energy            =      -0.0000000000000000 [Eh]
	 Same-Spin Energy          =      -0.3294856341108834 [Eh]
	 Opposite-Spin Energy      =      -1.0186101019036389 [Eh]
	 Correlation Energy        =      -1.3480957360145223 [Eh]
	 Total Energy              =    -342.4870760119584361 [Eh]

	 ================> DF-SCS-MP2 Energies <==================
	-----------------------------------------------------------
	 SCS Same-Spin Scale       =       0.3333333333333333 [-]
	 SCS Opposite-Spin Scale   =       1.2000000000000000 [-]
	 SCS Same-Spin Energy      =      -0.1098285447036278 [Eh]
	 SCS Opposite-Spin Energy  =      -1.2223321222843666 [Eh]
	 SCS Correlation Energy    =      -1.3321606669879944 [Eh]
	 SCS Total Energy          =    -342.4711409429319247 [Eh]
	-----------------------------------------------------------

  Dipole Moment: [D]
     X:    -7.7782      Y:    -1.8050      Z:    -0.7197     Total:     8.0173

*** Psi4 exiting successfully. Buy a developer a beer!
