                               Psi4 1.4a3.dev225

  ==> Input File <==

--------------------------------------------------------------------------
#psi4
#
memory 32 gb

molecule  {
-1 1
  O        1.1351350    -0.6918790     0.0330860
  O        0.1531200     1.3913640    -0.1728610
  O        2.4463690    -0.1041220     0.2385550
  C       -1.1465760    -0.6228910    -0.4018730
  C       -2.2980290    -0.0223870     0.3984860
  C        0.3000575     0.0271496    -0.1296029
  H       -1.3784130    -0.5614030    -1.4734780
  H       -0.9935530    -1.6784970    -0.1594820
  H       -3.2561770    -0.4998690     0.1615910
  H       -2.3644390     1.0456200     0.1820980
  H       -2.1175180    -0.1345730     1.4722280
units angstrom
no_reorient  #important for SAPT in psi4, default
symmetry c1  #important for SAPT in psi4, default
}

set PROPERTIES_ORIGIN ["COM"]
properties('MP2/aug-cc-pvtz', properties = ['dipole'])
--------------------------------------------------------------------------

    Molecular point group: c1
  Charge       = -1
  Multiplicity = 1
  Basis Set: AUG-CC-PVTZ
    Blend: AUG-CC-PVTZ
  Basis Set: (AUG-CC-PVTZ AUX)
    Blend: AUG-CC-PVTZ-JKFIT

    Orbital Energies [Eh]
    ---------------------

    Doubly Occupied:

       1A    -20.454793     2A    -20.338475     3A    -20.305459
       4A    -11.180160     5A    -11.085365     6A    -11.084753
       7A     -1.379112     8A     -1.067568     9A     -0.997233
      10A     -0.883764    11A     -0.718396    12A     -0.599352
      13A     -0.520077    14A     -0.503967    15A     -0.473333
      16A     -0.450458    17A     -0.413957    18A     -0.370380
      19A     -0.351798    20A     -0.282037    21A     -0.250471
      22A     -0.236588    23A     -0.204512    24A     -0.203314

  @DF-RHF Final Energy:  -341.07527226052622

   => Energetics <=

    Nuclear Repulsion Energy =            232.5354426466225561
    One-Electron Energy =                -938.5107802539647537
    Two-Electron Energy =                 364.9000653468160067
    Total Energy =                       -341.0752722605262193
  Basis Set: (AUG-CC-PVTZ AUX)
    Blend: AUG-CC-PVTZ-RI
    Molecular point group: c1

    Geometry (in Angstrom), charge = -1, multiplicity = 1:

       Center              X                  Y                   Z               Mass
    ------------   -----------------  -----------------  -----------------  -----------------
         O            1.002460355684    -0.694824364507     0.031193389486    15.994914619570
         O            0.020445355684     1.388418635493    -0.174753610514    15.994914619570
         O            2.313694355684    -0.107067364507     0.236662389486    15.994914619570
         C           -1.279250644316    -0.625836364507    -0.403765610514    12.000000000000
         C           -2.430703644316    -0.025332364507     0.396593389486    12.000000000000
         C            0.167382855684     0.024204235493    -0.131495510514    12.000000000000
         H           -1.511087644316    -0.564348364507    -1.475370610514     1.007825032230
         H           -1.126227644316    -1.681442364507    -0.161374610514     1.007825032230
         H           -3.388851644316    -0.502814364507     0.159698389486     1.007825032230
         H           -2.497113644316     1.042674635493     0.180205389486     1.007825032230
         H           -2.250192644316    -0.137518364507     1.470335389486     1.007825032230

  Basis Set: AUG-CC-PVTZ
    Blend: AUG-CC-PVTZ
  Basis Set: (AUG-CC-PVTZ AUX)
    Blend: AUG-CC-PVTZ-JKFIT
	 Reference Energy          =    -341.0752722605262193 [Eh]
	 Singles Energy            =      -0.0000000000000000 [Eh]
	 Same-Spin Energy          =      -0.3272604031655412 [Eh]
	 Opposite-Spin Energy      =      -1.0137799055438557 [Eh]
	 Correlation Energy        =      -1.3410403087093967 [Eh]
	 Total Energy              =    -342.4163125692356289 [Eh]

	 ================> DF-SCS-MP2 Energies <==================
	-----------------------------------------------------------
	 SCS Same-Spin Scale       =       0.3333333333333333 [-]
	 SCS Opposite-Spin Scale   =       1.2000000000000000 [-]
	 SCS Same-Spin Energy      =      -0.1090868010551804 [Eh]
	 SCS Opposite-Spin Energy  =      -1.2165358866526268 [Eh]
	 SCS Correlation Energy    =      -1.3256226877078072 [Eh]
	 SCS Total Energy          =    -342.4008949482340540 [Eh]
	-----------------------------------------------------------

  Dipole Moment: [D]
     X:    -6.2395      Y:    -3.0234      Z:    -0.4382     Total:     6.9472

*** Psi4 exiting successfully. Buy a developer a beer!
