                               Psi4 1.4a3.dev225

  ==> Input File <==

--------------------------------------------------------------------------
#psi4
#
memory 32 gb

molecule  {
-1 1
  O        1.1351350    -0.6918790     0.0330860
  O        0.1531200     1.3913640    -0.1728610
  O        2.4463690    -0.1041220     0.2385550
  C       -1.1465760    -0.6228910    -0.4018730
  C       -2.2980290    -0.0223870     0.3984860
  C        0.1501230     0.1562480    -0.1588130
  H       -1.3784130    -0.5614030    -1.4734780
  H       -0.9935530    -1.6784970    -0.1594820
  H       -3.0814008    -0.4127713     0.2048031
  H       -2.3644390     1.0456200     0.1820980
  H       -2.1175180    -0.1345730     1.4722280
units angstrom
no_reorient  #important for SAPT in psi4, default
symmetry c1  #important for SAPT in psi4, default
}

set PROPERTIES_ORIGIN ["COM"]
properties('MP2/aug-cc-pvtz', properties = ['dipole'])
--------------------------------------------------------------------------

    Molecular point group: c1
  Charge       = -1
  Multiplicity = 1
  Basis Set: AUG-CC-PVTZ
    Blend: AUG-CC-PVTZ
  Basis Set: (AUG-CC-PVTZ AUX)
    Blend: AUG-CC-PVTZ-JKFIT

    Orbital Energies [Eh]
    ---------------------

    Doubly Occupied:

       1A    -20.410821     2A    -20.345606     3A    -20.299493
       4A    -11.185146     5A    -11.090291     6A    -11.068125
       7A     -1.255400     8A     -1.157851     9A     -0.940225
      10A     -0.902006    11A     -0.750858    12A     -0.566987
      13A     -0.515325    14A     -0.492074    15A     -0.452286
      16A     -0.445703    17A     -0.424801    18A     -0.374178
      19A     -0.361218    20A     -0.310692    21A     -0.289215
      22A     -0.250284    23A     -0.189219    24A     -0.164622

  @DF-RHF Final Energy:  -341.10597491519241

   => Energetics <=

    Nuclear Repulsion Energy =            232.4765334798443916
    One-Electron Energy =                -938.6801661386476781
    Two-Electron Energy =                 365.0976577436108528
    Total Energy =                       -341.1059749151924052
  Basis Set: (AUG-CC-PVTZ AUX)
    Blend: AUG-CC-PVTZ-RI
    Molecular point group: c1

    Geometry (in Angstrom), charge = -1, multiplicity = 1:

       Center              X                  Y                   Z               Mass
    ------------   -----------------  -----------------  -----------------  -----------------
         O            1.020692209550    -0.713212242503     0.034641576666    15.994914619570
         O            0.038677209550     1.370030757497    -0.171305423334    15.994914619570
         O            2.331926209550    -0.125455242503     0.240110576666    15.994914619570
         C           -1.261018790450    -0.644224242503    -0.400317423334    12.000000000000
         C           -2.412471790450    -0.043720242503     0.400041576666    12.000000000000
         C            0.035680209550     0.134914757497    -0.157257423334    12.000000000000
         H           -1.492855790450    -0.582736242503    -1.471922423334     1.007825032230
         H           -1.107995790450    -1.699830242503    -0.157926423334     1.007825032230
         H           -3.195843590450    -0.434104542503     0.206358676666     1.007825032230
         H           -2.478881790450     1.024286757497     0.183653576666     1.007825032230
         H           -2.231960790450    -0.155906242503     1.473783576666     1.007825032230

  Basis Set: AUG-CC-PVTZ
    Blend: AUG-CC-PVTZ
  Basis Set: (AUG-CC-PVTZ AUX)
    Blend: AUG-CC-PVTZ-JKFIT
	 Reference Energy          =    -341.1059749151924052 [Eh]
	 Singles Energy            =      -0.0000000000000000 [Eh]
	 Same-Spin Energy          =      -0.3297971502901205 [Eh]
	 Opposite-Spin Energy      =      -1.0180630059434439 [Eh]
	 Correlation Energy        =      -1.3478601562335644 [Eh]
	 Total Energy              =    -342.4538350714259423 [Eh]

	 ================> DF-SCS-MP2 Energies <==================
	-----------------------------------------------------------
	 SCS Same-Spin Scale       =       0.3333333333333333 [-]
	 SCS Opposite-Spin Scale   =       1.2000000000000000 [-]
	 SCS Same-Spin Energy      =      -0.1099323834300402 [Eh]
	 SCS Opposite-Spin Energy  =      -1.2216756071321326 [Eh]
	 SCS Correlation Energy    =      -1.3316079905621727 [Eh]
	 SCS Total Energy          =    -342.4375829057545957 [Eh]
	-----------------------------------------------------------

  Dipole Moment: [D]
     X:    -7.9874      Y:    -1.8580      Z:    -0.7269     Total:     8.2328

*** Psi4 exiting successfully. Buy a developer a beer!
