                               Psi4 1.4a3.dev225

  ==> Input File <==

--------------------------------------------------------------------------
#psi4
#
memory 32 gb

molecule  {
-1 1
  O        1.1351350    -0.6918790     0.0330860
  O        0.1531200     1.3913640    -0.1728610
  O        2.4463690    -0.1041220     0.2385550
  C       -1.1228982    -0.6361764    -0.3560693
  C       -2.2980290    -0.0223870     0.3984860
  C        0.1501230     0.1562480    -0.1588130
  H       -1.3784130    -0.5614030    -1.4734780
  H       -0.9935530    -1.6784970    -0.1594820
  H       -3.2561770    -0.4998690     0.1615910
  H       -2.3644390     1.0456200     0.1820980
  H       -2.1175180    -0.1345730     1.4722280
units angstrom
no_reorient  #important for SAPT in psi4, default
symmetry c1  #important for SAPT in psi4, default
}

set PROPERTIES_ORIGIN ["COM"]
properties('MP2/aug-cc-pvtz', properties = ['dipole'])
--------------------------------------------------------------------------

    Molecular point group: c1
  Charge       = -1
  Multiplicity = 1
  Basis Set: AUG-CC-PVTZ
    Blend: AUG-CC-PVTZ
  Basis Set: (AUG-CC-PVTZ AUX)
    Blend: AUG-CC-PVTZ-JKFIT

    Orbital Energies [Eh]
    ---------------------

    Doubly Occupied:

       1A    -20.411917     2A    -20.347811     3A    -20.300307
       4A    -11.186712     5A    -11.095654     6A    -11.094225
       7A     -1.257542     8A     -1.159856     9A     -0.941056
      10A     -0.891895    11A     -0.733597    12A     -0.570249
      13A     -0.509220    14A     -0.488757    15A     -0.455619
      16A     -0.434790    17A     -0.414091    18A     -0.379694
      19A     -0.354260    20A     -0.311004    21A     -0.290010
      22A     -0.254200    23A     -0.190146    24A     -0.165506

  @DF-RHF Final Energy:  -341.13628998906881

   => Energetics <=

    Nuclear Repulsion Energy =            231.8165469474608074
    One-Electron Energy =                -937.4294375566695408
    Two-Electron Energy =                 364.4766006201399478
    Total Energy =                       -341.1362899890688141
  Basis Set: (AUG-CC-PVTZ AUX)
    Blend: AUG-CC-PVTZ-RI
    Molecular point group: c1

    Geometry (in Angstrom), charge = -1, multiplicity = 1:

       Center              X                  Y                   Z               Mass
    ------------   -----------------  -----------------  -----------------  -----------------
         O            1.019479166669    -0.710435413715     0.028956650034    15.994914619570
         O            0.037464166669     1.372807586285    -0.176990349966    15.994914619570
         O            2.330713166669    -0.122678413715     0.234425650034    15.994914619570
         C           -1.238554033331    -0.654732813715    -0.360198649966    12.000000000000
         C           -2.413684833331    -0.040943413715     0.394356650034    12.000000000000
         C            0.034467166669     0.137691586285    -0.162942349966    12.000000000000
         H           -1.494068833331    -0.579959413715    -1.477607349966     1.007825032230
         H           -1.109208833331    -1.697053413715    -0.163611349966     1.007825032230
         H           -3.371832833331    -0.518425413715     0.157461650034     1.007825032230
         H           -2.480094833331     1.027063586285     0.177968650034     1.007825032230
         H           -2.233173833331    -0.153129413715     1.468098650034     1.007825032230

  Basis Set: AUG-CC-PVTZ
    Blend: AUG-CC-PVTZ
  Basis Set: (AUG-CC-PVTZ AUX)
    Blend: AUG-CC-PVTZ-JKFIT
	 Reference Energy          =    -341.1362899890688141 [Eh]
	 Singles Energy            =      -0.0000000000000000 [Eh]
	 Same-Spin Energy          =      -0.3297307153624013 [Eh]
	 Opposite-Spin Energy      =      -1.0188716845970138 [Eh]
	 Correlation Energy        =      -1.3486023999594152 [Eh]
	 Total Energy              =    -342.4848923890282322 [Eh]

	 ================> DF-SCS-MP2 Energies <==================
	-----------------------------------------------------------
	 SCS Same-Spin Scale       =       0.3333333333333333 [-]
	 SCS Opposite-Spin Scale   =       1.2000000000000000 [-]
	 SCS Same-Spin Energy      =      -0.1099102384541338 [Eh]
	 SCS Opposite-Spin Energy  =      -1.2226460215164165 [Eh]
	 SCS Correlation Energy    =      -1.3325562599705503 [Eh]
	 SCS Total Energy          =    -342.4688462490393590 [Eh]
	-----------------------------------------------------------

  Dipole Moment: [D]
     X:    -7.8139      Y:    -1.8493      Z:    -0.6543     Total:     8.0564

*** Psi4 exiting successfully. Buy a developer a beer!
