                               Psi4 1.4a3.dev225

  ==> Input File <==

--------------------------------------------------------------------------
#psi4
#
memory 32 gb

molecule  {
-1 1
  O        1.1351350    -0.6918790     0.0330860
  O        0.1531200     1.3913640    -0.1728610
  O        2.4463690    -0.1041220     0.2385550
  C       -1.1465760    -0.6228910    -0.4018730
  C       -2.2980290    -0.0223870     0.3984860
  C        0.1501230     0.1562480    -0.1588130
  H       -1.3889691    -0.5586033    -1.5222707
  H       -0.9935530    -1.6784970    -0.1594820
  H       -3.2561770    -0.4998690     0.1615910
  H       -2.3644390     1.0456200     0.1820980
  H       -2.1175180    -0.1345730     1.4722280
units angstrom
no_reorient  #important for SAPT in psi4, default
symmetry c1  #important for SAPT in psi4, default
}

set PROPERTIES_ORIGIN ["COM"]
properties('MP2/aug-cc-pvtz', properties = ['dipole'])
--------------------------------------------------------------------------

    Molecular point group: c1
  Charge       = -1
  Multiplicity = 1
  Basis Set: AUG-CC-PVTZ
    Blend: AUG-CC-PVTZ
  Basis Set: (AUG-CC-PVTZ AUX)
    Blend: AUG-CC-PVTZ-JKFIT

    Orbital Energies [Eh]
    ---------------------

    Doubly Occupied:

       1A    -20.412653     2A    -20.347683     3A    -20.301079
       4A    -11.187594     5A    -11.098746     6A    -11.095638
       7A     -1.257260     8A     -1.159852     9A     -0.938854
      10A     -0.891147    11A     -0.730073    12A     -0.567208
      13A     -0.506144    14A     -0.488350    15A     -0.454238
      16A     -0.435915    17A     -0.412123    18A     -0.375560
      19A     -0.359811    20A     -0.311221    21A     -0.290616
      22A     -0.251986    23A     -0.190800    24A     -0.166151

  @DF-RHF Final Energy:  -341.13739254225470

   => Energetics <=

    Nuclear Repulsion Energy =            231.2539424538952915
    One-Electron Energy =                -936.3212690158513851
    Two-Electron Energy =                 363.9299340197013635
    Total Energy =                       -341.1373925422547018
  Basis Set: (AUG-CC-PVTZ AUX)
    Blend: AUG-CC-PVTZ-RI
    Molecular point group: c1

    Geometry (in Angstrom), charge = -1, multiplicity = 1:

       Center              X                  Y                   Z               Mass
    ------------   -----------------  -----------------  -----------------  -----------------
         O            1.022790326980    -0.712257918281     0.035683148343    15.994914619570
         O            0.040775326980     1.370985081719    -0.170263851657    15.994914619570
         O            2.334024326980    -0.124500918281     0.241152148343    15.994914619570
         C           -1.258920673020    -0.643269918281    -0.399275851657    12.000000000000
         C           -2.410373673020    -0.042765918281     0.401083148343    12.000000000000
         C            0.037778326980     0.135869081719    -0.156215851657    12.000000000000
         H           -1.501313773020    -0.578982218281    -1.519673551657     1.007825032230
         H           -1.105897673020    -1.698875918281    -0.156884851657     1.007825032230
         H           -3.368521673020    -0.520247918281     0.164188148343     1.007825032230
         H           -2.476783673020     1.025241081719     0.184695148343     1.007825032230
         H           -2.229862673020    -0.154951918281     1.474825148343     1.007825032230

  Basis Set: AUG-CC-PVTZ
    Blend: AUG-CC-PVTZ
  Basis Set: (AUG-CC-PVTZ AUX)
    Blend: AUG-CC-PVTZ-JKFIT
	 Reference Energy          =    -341.1373925422547018 [Eh]
	 Singles Energy            =      -0.0000000000000000 [Eh]
	 Same-Spin Energy          =      -0.3294949906845134 [Eh]
	 Opposite-Spin Energy      =      -1.0188074837666135 [Eh]
	 Correlation Energy        =      -1.3483024744511269 [Eh]
	 Total Energy              =    -342.4856950167058471 [Eh]

	 ================> DF-SCS-MP2 Energies <==================
	-----------------------------------------------------------
	 SCS Same-Spin Scale       =       0.3333333333333333 [-]
	 SCS Opposite-Spin Scale   =       1.2000000000000000 [-]
	 SCS Same-Spin Energy      =      -0.1098316635615045 [Eh]
	 SCS Opposite-Spin Energy  =      -1.2225689805199360 [Eh]
	 SCS Correlation Energy    =      -1.3324006440814404 [Eh]
	 SCS Total Energy          =    -342.4697931863361191 [Eh]
	-----------------------------------------------------------

  Dipole Moment: [D]
     X:    -7.7859      Y:    -1.8043      Z:    -0.6800     Total:     8.0211

*** Psi4 exiting successfully. Buy a developer a beer!
