                               Psi4 1.4a2.dev612

  ==> Input File <==

--------------------------------------------------------------------------
#psi4
#
memory 32 gb

molecule  {
-1 1
  O        1.0802400    -0.9868790     0.8533170
  O        1.7774660     0.6142500    -0.6014300
  C       -0.5851617     0.3004261    -0.3056634
  C       -1.1221580     1.2656510     0.5365530
  C       -1.4484110    -1.0520220    -0.3893470
  C        0.8937330    -0.0971070    -0.0318180
  H       -0.5710850     0.6138500    -1.4298350
  H       -0.5071020     2.1704490     0.4966500
  H       -2.1534840     1.5416890     0.2872720
  H       -1.1096840     0.8890950     1.5649870
  H       -1.0556840    -1.8232910    -1.0601830
  H       -2.4751420    -0.8237670    -0.6995200
  H       -1.4750130    -1.4711080     0.6193320
units angstrom
no_reorient  #important for SAPT in psi4, default
symmetry c1  #important for SAPT in psi4, default
}

set PROPERTIES_ORIGIN ["COM"]
properties('MP2/aug-cc-pvtz', properties = ['dipole'])
--------------------------------------------------------------------------

    Molecular point group: c1
  Charge       = -1
  Multiplicity = 1
  Basis Set: AUG-CC-PVTZ
    Blend: AUG-CC-PVTZ
  Basis Set: (AUG-CC-PVTZ AUX)
    Blend: AUG-CC-PVTZ-JKFIT

    Orbital Energies [Eh]
    ---------------------

    Doubly Occupied:

       1A    -20.292624     2A    -20.292204     3A    -11.136381
       4A    -11.069935     5A    -11.069374     6A    -11.068231
       7A     -1.160330     8A     -1.058996     9A     -0.926373
      10A     -0.786275    11A     -0.667138    12A     -0.520380
      13A     -0.475067    14A     -0.453590    15A     -0.431150
      16A     -0.392597    17A     -0.391165    18A     -0.376827
      19A     -0.351098    20A     -0.321806    21A     -0.284417
      22A     -0.205072    23A     -0.193921    24A     -0.190337

  @DF-RHF Final Energy:  -305.39867364079504

   => Energetics <=

    Nuclear Repulsion Energy =            236.7271004178216174
    One-Electron Energy =                -896.0209709708663013
    Two-Electron Energy =                 353.8951969122496735
    Total Energy =                       -305.3986736407950389
  Basis Set: (AUG-CC-PVTZ AUX)
    Blend: AUG-CC-PVTZ-RI
    Molecular point group: c1

    Geometry (in Angstrom), charge = -1, multiplicity = 1:

       Center              X                  Y                   Z               Mass
    ------------   -----------------  -----------------  -----------------  -----------------
         O            0.975185183108    -0.988587418023     0.835825076038    15.994914619570
         O            1.672411183108     0.612541581977    -0.618921923962    15.994914619570
         C           -0.690216516892     0.298717681977    -0.323155323962    12.000000000000
         C           -1.227212816892     1.263942581977     0.519061076038    12.000000000000
         C           -1.553465816892    -1.053730418023    -0.406838923962    12.000000000000
         C            0.788678183108    -0.098815418023    -0.049309923962    12.000000000000
         H           -0.676139816892     0.612141581977    -1.447326923962     1.007825032230
         H           -0.612156816892     2.168740581977     0.479158076038     1.007825032230
         H           -2.258538816892     1.539980581977     0.269780076038     1.007825032230
         H           -1.214738816892     0.887386581977     1.547495076038     1.007825032230
         H           -1.160738816892    -1.824999418023    -1.077674923962     1.007825032230
         H           -2.580196816892    -0.825475418023    -0.717011923962     1.007825032230
         H           -1.580067816892    -1.472816418023     0.601840076038     1.007825032230

  Basis Set: AUG-CC-PVTZ
    Blend: AUG-CC-PVTZ
  Basis Set: (AUG-CC-PVTZ AUX)
    Blend: AUG-CC-PVTZ-JKFIT
	 Reference Energy          =    -305.3986736407950389 [Eh]
	 Singles Energy            =      -0.0000000000000000 [Eh]
	 Same-Spin Energy          =      -0.3111142076740619 [Eh]
	 Opposite-Spin Energy      =      -0.9886833041298482 [Eh]
	 Correlation Energy        =      -1.2997975118039102 [Eh]
	 Total Energy              =    -306.6984711525989269 [Eh]

	 ================> DF-SCS-MP2 Energies <==================
	-----------------------------------------------------------
	 SCS Same-Spin Scale       =       0.3333333333333333 [-]
	 SCS Opposite-Spin Scale   =       1.2000000000000000 [-]
	 SCS Same-Spin Energy      =      -0.1037047358913540 [Eh]
	 SCS Opposite-Spin Energy  =      -1.1864199649558178 [Eh]
	 SCS Correlation Energy    =      -1.2901247008471719 [Eh]
	 SCS Total Energy          =    -306.6887983416422117 [Eh]
	-----------------------------------------------------------

  Dipole Moment: [D]
     X:    -5.6247      Y:     0.9637      Z:    -0.4906     Total:     5.7278

*** Psi4 exiting successfully. Buy a developer a beer!
