                               Psi4 1.4a2.dev612

  ==> Input File <==

--------------------------------------------------------------------------
#psi4
#
memory 32 gb

molecule  {
-1 1
  O        1.0802400    -0.9868790     0.8533170
  O        1.7774660     0.6142500    -0.6014300
  C       -0.5755730     0.1974970    -0.4143540
  C       -1.1221580     1.2656510     0.5365530
  C       -1.4484110    -1.0520220    -0.3893470
  C        0.8937330    -0.0971070    -0.0318180
  H       -0.5710850     0.6138500    -1.4298350
  H       -0.5071020     2.1704490     0.4966500
  H       -2.1534840     1.5416890     0.2872720
  H       -1.1096840     0.8890950     1.5649870
  H       -1.0556840    -1.8232910    -1.0601830
  H       -2.4751420    -0.8237670    -0.6995200
  H       -1.4750130    -1.4711080     0.6193320
units angstrom
no_reorient  #important for SAPT in psi4, default
symmetry c1  #important for SAPT in psi4, default
}

set PROPERTIES_ORIGIN ["COM"]
properties('MP2/aug-cc-pvtz', properties = ['dipole'])
--------------------------------------------------------------------------

    Molecular point group: c1
  Charge       = -1
  Multiplicity = 1
  Basis Set: AUG-CC-PVTZ
    Blend: AUG-CC-PVTZ
  Basis Set: (AUG-CC-PVTZ AUX)
    Blend: AUG-CC-PVTZ-JKFIT

    Orbital Energies [Eh]
    ---------------------

    Doubly Occupied:

       1A    -20.291223     2A    -20.290634     3A    -11.134351
       4A    -11.074010     5A    -11.067786     6A    -11.065072
       7A     -1.159148     8A     -1.057810     9A     -0.909870
      10A     -0.784215    11A     -0.673825    12A     -0.522703
      13A     -0.466838    14A     -0.448899    15A     -0.422109
      16A     -0.393778    17A     -0.389448    18A     -0.369775
      19A     -0.348534    20A     -0.321046    21A     -0.308251
      22A     -0.205501    23A     -0.195472    24A     -0.189920

  @DF-RHF Final Energy:  -305.42305635452533

   => Energetics <=

    Nuclear Repulsion Energy =            236.2523542533469936
    One-Electron Energy =                -895.1703837434237130
    Two-Electron Energy =                 353.4949731355513904
    Total Energy =                       -305.4230563545253290
  Basis Set: (AUG-CC-PVTZ AUX)
    Blend: AUG-CC-PVTZ-RI
    Molecular point group: c1

    Geometry (in Angstrom), charge = -1, multiplicity = 1:

       Center              X                  Y                   Z               Mass
    ------------   -----------------  -----------------  -----------------  -----------------
         O            0.973863281529    -0.974397575843     0.850809200649    15.994914619570
         O            1.671089281529     0.626731424157    -0.603937799351    15.994914619570
         C           -0.681949718471     0.209978424157    -0.416861799351    12.000000000000
         C           -1.228534718471     1.278132424157     0.534045200649    12.000000000000
         C           -1.554787718471    -1.039540575843    -0.391854799351    12.000000000000
         C            0.787356281529    -0.084625575843    -0.034325799351    12.000000000000
         H           -0.677461718471     0.626331424157    -1.432342799351     1.007825032230
         H           -0.613478718471     2.182930424157     0.494142200649     1.007825032230
         H           -2.259860718471     1.554170424157     0.284764200649     1.007825032230
         H           -1.216060718471     0.901576424157     1.562479200649     1.007825032230
         H           -1.162060718471    -1.810809575843    -1.062690799351     1.007825032230
         H           -2.581518718471    -0.811285575843    -0.702027799351     1.007825032230
         H           -1.581389718471    -1.458626575843     0.616824200649     1.007825032230

  Basis Set: AUG-CC-PVTZ
    Blend: AUG-CC-PVTZ
  Basis Set: (AUG-CC-PVTZ AUX)
    Blend: AUG-CC-PVTZ-JKFIT
	 Reference Energy          =    -305.4230563545253290 [Eh]
	 Singles Energy            =      -0.0000000000000000 [Eh]
	 Same-Spin Energy          =      -0.3098850763807262 [Eh]
	 Opposite-Spin Energy      =      -0.9865726301597753 [Eh]
	 Correlation Energy        =      -1.2964577065405014 [Eh]
	 Total Energy              =    -306.7195140610658086 [Eh]

	 ================> DF-SCS-MP2 Energies <==================
	-----------------------------------------------------------
	 SCS Same-Spin Scale       =       0.3333333333333333 [-]
	 SCS Opposite-Spin Scale   =       1.2000000000000000 [-]
	 SCS Same-Spin Energy      =      -0.1032950254602421 [Eh]
	 SCS Opposite-Spin Energy  =      -1.1838871561917303 [Eh]
	 SCS Correlation Energy    =      -1.2871821816519724 [Eh]
	 SCS Total Energy          =    -306.7102385361773145 [Eh]
	-----------------------------------------------------------

  Dipole Moment: [D]
     X:    -5.7195      Y:     0.7877      Z:    -0.6926     Total:     5.8149

*** Psi4 exiting successfully. Buy a developer a beer!
