                               Psi4 1.4a2.dev612

  ==> Input File <==

--------------------------------------------------------------------------
#psi4
#
memory 32 gb

molecule  {
-1 1
  O        1.0802400    -0.9868790     0.8533170
  O        1.7774660     0.6142500    -0.6014300
  C       -0.5915542     0.3690456    -0.2332030
  C       -1.1221580     1.2656510     0.5365530
  C       -1.4484110    -1.0520220    -0.3893470
  C        0.8937330    -0.0971070    -0.0318180
  H       -0.5710850     0.6138500    -1.4298350
  H       -0.5071020     2.1704490     0.4966500
  H       -2.1534840     1.5416890     0.2872720
  H       -1.1096840     0.8890950     1.5649870
  H       -1.0556840    -1.8232910    -1.0601830
  H       -2.4751420    -0.8237670    -0.6995200
  H       -1.4750130    -1.4711080     0.6193320
units angstrom
no_reorient  #important for SAPT in psi4, default
symmetry c1  #important for SAPT in psi4, default
}

set PROPERTIES_ORIGIN ["COM"]
properties('MP2/aug-cc-pvtz', properties = ['dipole'])
--------------------------------------------------------------------------

    Molecular point group: c1
  Charge       = -1
  Multiplicity = 1
  Basis Set: AUG-CC-PVTZ
    Blend: AUG-CC-PVTZ
  Basis Set: (AUG-CC-PVTZ AUX)
    Blend: AUG-CC-PVTZ-JKFIT

    Orbital Energies [Eh]
    ---------------------

    Doubly Occupied:

       1A    -20.294291     2A    -20.293981     3A    -11.139916
       4A    -11.073062     5A    -11.071126     6A    -11.064761
       7A     -1.161669     8A     -1.060441     9A     -0.948029
      10A     -0.785108    11A     -0.661263    12A     -0.523122
      13A     -0.483878    14A     -0.460614    15A     -0.441056
      16A     -0.394573    17A     -0.390635    18A     -0.382883
      19A     -0.348975    20A     -0.320784    21A     -0.259917
      22A     -0.204284    23A     -0.191424    24A     -0.190347

  @DF-RHF Final Energy:  -305.35056516131920

   => Energetics <=

    Nuclear Repulsion Energy =            237.0868717195631348
    One-Electron Energy =                -896.5825913789049082
    Two-Electron Energy =                 354.1451544980226345
    Total Energy =                       -305.3505651613191958
  Basis Set: (AUG-CC-PVTZ AUX)
    Blend: AUG-CC-PVTZ-RI
    Molecular point group: c1

    Geometry (in Angstrom), charge = -1, multiplicity = 1:

       Center              X                  Y                   Z               Mass
    ------------   -----------------  -----------------  -----------------  -----------------
         O            0.976066455422    -0.998047326596     0.825835659631    15.994914619570
         O            1.673292455422     0.603081673404    -0.628911340369    15.994914619570
         C           -0.695727744578     0.357877273404    -0.260684340369    12.000000000000
         C           -1.226331544578     1.254482673404     0.509071659631    12.000000000000
         C           -1.552584544578    -1.063190326596    -0.416828340369    12.000000000000
         C            0.789559455422    -0.108275326596    -0.059299340369    12.000000000000
         H           -0.675258544578     0.602681673404    -1.457316340369     1.007825032230
         H           -0.611275544578     2.159280673404     0.469168659631     1.007825032230
         H           -2.257657544578     1.530520673404     0.259790659631     1.007825032230
         H           -1.213857544578     0.877926673404     1.537505659631     1.007825032230
         H           -1.159857544578    -1.834459326596    -1.087664340369     1.007825032230
         H           -2.579315544578    -0.834935326596    -0.727001340369     1.007825032230
         H           -1.579186544578    -1.482276326596     0.591850659631     1.007825032230

  Basis Set: AUG-CC-PVTZ
    Blend: AUG-CC-PVTZ
  Basis Set: (AUG-CC-PVTZ AUX)
    Blend: AUG-CC-PVTZ-JKFIT
	 Reference Energy          =    -305.3505651613191958 [Eh]
	 Singles Energy            =      -0.0000000000000000 [Eh]
	 Same-Spin Energy          =      -0.3130548299375547 [Eh]
	 Opposite-Spin Energy      =      -0.9919413087165105 [Eh]
	 Correlation Energy        =      -1.3049961386540652 [Eh]
	 Total Energy              =    -306.6555612999732716 [Eh]

	 ================> DF-SCS-MP2 Energies <==================
	-----------------------------------------------------------
	 SCS Same-Spin Scale       =       0.3333333333333333 [-]
	 SCS Opposite-Spin Scale   =       1.2000000000000000 [-]
	 SCS Same-Spin Energy      =      -0.1043516099791849 [Eh]
	 SCS Opposite-Spin Energy  =      -1.1903295704598127 [Eh]
	 SCS Correlation Energy    =      -1.2946811804389977 [Eh]
	 SCS Total Energy          =    -306.6452463417581953 [Eh]
	-----------------------------------------------------------

  Dipole Moment: [D]
     X:    -5.5160      Y:     1.0830      Z:    -0.3317     Total:     5.6311

*** Psi4 exiting successfully. Buy a developer a beer!
