                               Psi4 1.4a2.dev612

  ==> Input File <==

--------------------------------------------------------------------------
#psi4
#
memory 32 gb

molecule  {
-1 1
  O        1.0802400    -0.9868790     0.8533170
  O        1.7774660     0.6142500    -0.6014300
  C       -0.5883580     0.3347359    -0.2694332
  C       -1.1221580     1.2656510     0.5365530
  C       -1.4484110    -1.0520220    -0.3893470
  C        0.8937330    -0.0971070    -0.0318180
  H       -0.5710850     0.6138500    -1.4298350
  H       -0.5071020     2.1704490     0.4966500
  H       -2.1534840     1.5416890     0.2872720
  H       -1.1096840     0.8890950     1.5649870
  H       -1.0556840    -1.8232910    -1.0601830
  H       -2.4751420    -0.8237670    -0.6995200
  H       -1.4750130    -1.4711080     0.6193320
units angstrom
no_reorient  #important for SAPT in psi4, default
symmetry c1  #important for SAPT in psi4, default
}

set PROPERTIES_ORIGIN ["COM"]
properties('MP2/aug-cc-pvtz', properties = ['dipole'])
--------------------------------------------------------------------------

    Molecular point group: c1
  Charge       = -1
  Multiplicity = 1
  Basis Set: AUG-CC-PVTZ
    Blend: AUG-CC-PVTZ
  Basis Set: (AUG-CC-PVTZ AUX)
    Blend: AUG-CC-PVTZ-JKFIT

    Orbital Energies [Eh]
    ---------------------

    Doubly Occupied:

       1A    -20.293377     2A    -20.293012     3A    -11.137928
       4A    -11.070935     5A    -11.070459     6A    -11.066781
       7A     -1.160938     8A     -1.059648     9A     -0.936106
      10A     -0.785951    11A     -0.664352    12A     -0.521214
      13A     -0.479105    14A     -0.456473    15A     -0.436135
      16A     -0.393462    17A     -0.390970    18A     -0.380158
      19A     -0.350056    20A     -0.322008    21A     -0.272057
      22A     -0.204801    23A     -0.192736    24A     -0.190524

  @DF-RHF Final Energy:  -305.37835172726733

   => Energetics <=

    Nuclear Repulsion Energy =            236.8995950977240739
    One-Electron Energy =                -896.2975171435173252
    Two-Electron Energy =                 354.0195703185259504
    Total Energy =                       -305.3783517272673294
  Basis Set: (AUG-CC-PVTZ AUX)
    Blend: AUG-CC-PVTZ-RI
    Molecular point group: c1

    Geometry (in Angstrom), charge = -1, multiplicity = 1:

       Center              X                  Y                   Z               Mass
    ------------   -----------------  -----------------  -----------------  -----------------
         O            0.975625826158    -0.993317379203     0.830830367834    15.994914619570
         O            1.672851826158     0.607811620797    -0.623916632166    15.994914619570
         C           -0.692972173842     0.328297520797    -0.291919832166    12.000000000000
         C           -1.226772173842     1.259212620797     0.514066367834    12.000000000000
         C           -1.553025173842    -1.058460379203    -0.411833632166    12.000000000000
         C            0.789118826158    -0.103545379203    -0.054304632166    12.000000000000
         H           -0.675699173842     0.607411620797    -1.452321632166     1.007825032230
         H           -0.611716173842     2.164010620797     0.474163367834     1.007825032230
         H           -2.258098173842     1.535250620797     0.264785367834     1.007825032230
         H           -1.214298173842     0.882656620797     1.542500367834     1.007825032230
         H           -1.160298173842    -1.829729379203    -1.082669632166     1.007825032230
         H           -2.579756173842    -0.830205379203    -0.722006632166     1.007825032230
         H           -1.579627173842    -1.477546379203     0.596845367834     1.007825032230

  Basis Set: AUG-CC-PVTZ
    Blend: AUG-CC-PVTZ
  Basis Set: (AUG-CC-PVTZ AUX)
    Blend: AUG-CC-PVTZ-JKFIT
	 Reference Energy          =    -305.3783517272673294 [Eh]
	 Singles Energy            =      -0.0000000000000000 [Eh]
	 Same-Spin Energy          =      -0.3119612162327763 [Eh]
	 Opposite-Spin Energy      =      -0.9901189179035212 [Eh]
	 Correlation Energy        =      -1.3020801341362975 [Eh]
	 Total Energy              =    -306.6804318614036333 [Eh]

	 ================> DF-SCS-MP2 Energies <==================
	-----------------------------------------------------------
	 SCS Same-Spin Scale       =       0.3333333333333333 [-]
	 SCS Opposite-Spin Scale   =       1.2000000000000000 [-]
	 SCS Same-Spin Energy      =      -0.1039870720775921 [Eh]
	 SCS Opposite-Spin Energy  =      -1.1881427014842254 [Eh]
	 SCS Correlation Energy    =      -1.2921297735618176 [Eh]
	 SCS Total Energy          =    -306.6704815008291689 [Eh]
	-----------------------------------------------------------

  Dipole Moment: [D]
     X:    -5.5755      Y:     1.0221      Z:    -0.4145     Total:     5.6836

*** Psi4 exiting successfully. Buy a developer a beer!
