                               Psi4 1.4a2.dev612

  ==> Input File <==

--------------------------------------------------------------------------
#psi4
#
memory 32 gb

molecule  {
-1 1
  O        1.0802400    -0.9868790     0.8533170
  O        1.7774660     0.6142500    -0.6014300
  C       -0.5819655     0.2661164    -0.3418936
  C       -1.1221580     1.2656510     0.5365530
  C       -1.4484110    -1.0520220    -0.3893470
  C        0.8937330    -0.0971070    -0.0318180
  H       -0.5710850     0.6138500    -1.4298350
  H       -0.5071020     2.1704490     0.4966500
  H       -2.1534840     1.5416890     0.2872720
  H       -1.1096840     0.8890950     1.5649870
  H       -1.0556840    -1.8232910    -1.0601830
  H       -2.4751420    -0.8237670    -0.6995200
  H       -1.4750130    -1.4711080     0.6193320
units angstrom
no_reorient  #important for SAPT in psi4, default
symmetry c1  #important for SAPT in psi4, default
}

set PROPERTIES_ORIGIN ["COM"]
properties('MP2/aug-cc-pvtz', properties = ['dipole'])
--------------------------------------------------------------------------

    Molecular point group: c1
  Charge       = -1
  Multiplicity = 1
  Basis Set: AUG-CC-PVTZ
    Blend: AUG-CC-PVTZ
  Basis Set: (AUG-CC-PVTZ AUX)
    Blend: AUG-CC-PVTZ-JKFIT

    Orbital Energies [Eh]
    ---------------------

    Doubly Occupied:

       1A    -20.292019     2A    -20.291544     3A    -11.135271
       4A    -11.070901     5A    -11.069163     6A    -11.067012
       7A     -1.159832     8A     -1.058476     9A     -0.918829
      10A     -0.786071    11A     -0.669632    12A     -0.520471
      13A     -0.471716    14A     -0.451541    15A     -0.426872
      16A     -0.392524    17A     -0.390792    18A     -0.373374
      19A     -0.351480    20A     -0.320015    21A     -0.296587
      22A     -0.205231    23A     -0.194757    24A     -0.190141

  @DF-RHF Final Energy:  -305.41241338652401

   => Energetics <=

    Nuclear Repulsion Energy =            236.5646758049897187
    One-Electron Energy =                -895.7456787356260293
    Two-Electron Energy =                 353.7685895441122739
    Total Energy =                       -305.4124133865240083
  Basis Set: (AUG-CC-PVTZ AUX)
    Blend: AUG-CC-PVTZ-RI
    Molecular point group: c1

    Geometry (in Angstrom), charge = -1, multiplicity = 1:

       Center              X                  Y                   Z               Mass
    ------------   -----------------  -----------------  -----------------  -----------------
         O            0.974744553844    -0.983857470630     0.840819784241    15.994914619570
         O            1.671970553844     0.617271529370    -0.613927215759    15.994914619570
         C           -0.687460946156     0.269137929370    -0.354390815759    12.000000000000
         C           -1.227653446156     1.268672529370     0.524055784241    12.000000000000
         C           -1.553906446156    -1.049000470630    -0.401844215759    12.000000000000
         C            0.788237553844    -0.094085470630    -0.044315215759    12.000000000000
         H           -0.676580446156     0.616871529370    -1.442332215759     1.007825032230
         H           -0.612597446156     2.173470529370     0.484152784241     1.007825032230
         H           -2.258979446156     1.544710529370     0.274774784241     1.007825032230
         H           -1.215179446156     0.892116529370     1.552489784241     1.007825032230
         H           -1.161179446156    -1.820269470630    -1.072680215759     1.007825032230
         H           -2.580637446156    -0.820745470630    -0.712017215759     1.007825032230
         H           -1.580508446156    -1.468086470630     0.606834784241     1.007825032230

  Basis Set: AUG-CC-PVTZ
    Blend: AUG-CC-PVTZ
  Basis Set: (AUG-CC-PVTZ AUX)
    Blend: AUG-CC-PVTZ-JKFIT
	 Reference Energy          =    -305.4124133865240083 [Eh]
	 Singles Energy            =      -0.0000000000000000 [Eh]
	 Same-Spin Energy          =      -0.3104965134078474 [Eh]
	 Opposite-Spin Energy      =      -0.9876225393754772 [Eh]
	 Correlation Energy        =      -1.2981190527833246 [Eh]
	 Total Energy              =    -306.7105324393073147 [Eh]

	 ================> DF-SCS-MP2 Energies <==================
	-----------------------------------------------------------
	 SCS Same-Spin Scale       =       0.3333333333333333 [-]
	 SCS Opposite-Spin Scale   =       1.2000000000000000 [-]
	 SCS Same-Spin Energy      =      -0.1034988378026158 [Eh]
	 SCS Opposite-Spin Energy  =      -1.1851470472505725 [Eh]
	 SCS Correlation Energy    =      -1.2886458850531883 [Eh]
	 SCS Total Energy          =    -306.7010592715772077 [Eh]
	-----------------------------------------------------------

  Dipole Moment: [D]
     X:    -5.6647      Y:     0.9062      Z:    -0.5614     Total:     5.7641

*** Psi4 exiting successfully. Buy a developer a beer!
