                               Psi4 1.4a2.dev612

  ==> Input File <==

--------------------------------------------------------------------------
#psi4
#
memory 32 gb

molecule  {
-1 1
  O        1.0802400    -0.9868790     0.8533170
  O        1.7774660     0.6142500    -0.6014300
  C       -0.5947504     0.4033553    -0.1969728
  C       -1.1221580     1.2656510     0.5365530
  C       -1.4484110    -1.0520220    -0.3893470
  C        0.8937330    -0.0971070    -0.0318180
  H       -0.5710850     0.6138500    -1.4298350
  H       -0.5071020     2.1704490     0.4966500
  H       -2.1534840     1.5416890     0.2872720
  H       -1.1096840     0.8890950     1.5649870
  H       -1.0556840    -1.8232910    -1.0601830
  H       -2.4751420    -0.8237670    -0.6995200
  H       -1.4750130    -1.4711080     0.6193320
units angstrom
no_reorient  #important for SAPT in psi4, default
symmetry c1  #important for SAPT in psi4, default
}

set PROPERTIES_ORIGIN ["COM"]
properties('MP2/aug-cc-pvtz', properties = ['dipole'])
--------------------------------------------------------------------------

    Molecular point group: c1
  Charge       = -1
  Multiplicity = 1
  Basis Set: AUG-CC-PVTZ
    Blend: AUG-CC-PVTZ
  Basis Set: (AUG-CC-PVTZ AUX)
    Blend: AUG-CC-PVTZ-JKFIT

    Orbital Energies [Eh]
    ---------------------

    Doubly Occupied:

       1A    -20.295385     2A    -20.295130     3A    -11.142352
       4A    -11.075561     5A    -11.071507     6A    -11.062798
       7A     -1.162541     8A     -1.061392     9A     -0.962039
      10A     -0.783776    11A     -0.657873    12A     -0.526186
      13A     -0.489429    14A     -0.466351    15A     -0.445245
      16A     -0.395688    17A     -0.390261    18A     -0.384990
      19A     -0.348246    20A     -0.318287    21A     -0.248538
      22A     -0.203322    23A     -0.190959    24A     -0.188555

  @DF-RHF Final Energy:  -305.31426134991131

   => Energetics <=

    Nuclear Repulsion Energy =            237.2938937893672176
    One-Electron Energy =                -896.8834860310468002
    Two-Electron Energy =                 354.2753308917683057
    Total Energy =                       -305.3142613499113054
  Basis Set: (AUG-CC-PVTZ AUX)
    Blend: AUG-CC-PVTZ-RI
    Molecular point group: c1

    Geometry (in Angstrom), charge = -1, multiplicity = 1:

       Center              X                  Y                   Z               Mass
    ------------   -----------------  -----------------  -----------------  -----------------
         O            0.976507084686    -1.002777273990     0.820840951427    15.994914619570
         O            1.673733084686     0.598351726010    -0.633906048573    15.994914619570
         C           -0.698483315314     0.387457026010    -0.229448848573    12.000000000000
         C           -1.225890915314     1.249752726010     0.504076951427    12.000000000000
         C           -1.552143915314    -1.067920273990    -0.421823048573    12.000000000000
         C            0.790000084686    -0.113005273990    -0.064294048573    12.000000000000
         H           -0.674817915314     0.597951726010    -1.462311048573     1.007825032230
         H           -0.610834915314     2.154550726010     0.464173951427     1.007825032230
         H           -2.257216915314     1.525790726010     0.254795951427     1.007825032230
         H           -1.213416915314     0.873196726010     1.532510951427     1.007825032230
         H           -1.159416915314    -1.839189273990    -1.092659048573     1.007825032230
         H           -2.578874915314    -0.839665273990    -0.731996048573     1.007825032230
         H           -1.578745915314    -1.487006273990     0.586855951427     1.007825032230

  Basis Set: AUG-CC-PVTZ
    Blend: AUG-CC-PVTZ
  Basis Set: (AUG-CC-PVTZ AUX)
    Blend: AUG-CC-PVTZ-JKFIT
	 Reference Energy          =    -305.3142613499113054 [Eh]
	 Singles Energy            =      -0.0000000000000000 [Eh]
	 Same-Spin Energy          =      -0.3144119755027656 [Eh]
	 Opposite-Spin Energy      =      -0.9941587540981267 [Eh]
	 Correlation Energy        =      -1.3085707296008924 [Eh]
	 Total Energy              =    -306.6228320795121931 [Eh]

	 ================> DF-SCS-MP2 Energies <==================
	-----------------------------------------------------------
	 SCS Same-Spin Scale       =       0.3333333333333333 [-]
	 SCS Opposite-Spin Scale   =       1.2000000000000000 [-]
	 SCS Same-Spin Energy      =      -0.1048039918342552 [Eh]
	 SCS Opposite-Spin Energy  =      -1.1929905049177520 [Eh]
	 SCS Correlation Energy    =      -1.2977944967520072 [Eh]
	 SCS Total Energy          =    -306.6120558466633383 [Eh]
	-----------------------------------------------------------

  Dipole Moment: [D]
     X:    -5.4450      Y:     1.1482      Z:    -0.2405     Total:     5.5700

*** Psi4 exiting successfully. Buy a developer a beer!
