                               Psi4 1.4a2.dev612

  ==> Input File <==

--------------------------------------------------------------------------
#psi4
#
memory 32 gb

molecule  {
-1 1
  O        1.0802400    -0.9868790     0.8533170
  O        1.7774660     0.6142500    -0.6014300
  C       -0.5787692     0.2318067    -0.3781238
  C       -1.1221580     1.2656510     0.5365530
  C       -1.4484110    -1.0520220    -0.3893470
  C        0.8937330    -0.0971070    -0.0318180
  H       -0.5710850     0.6138500    -1.4298350
  H       -0.5071020     2.1704490     0.4966500
  H       -2.1534840     1.5416890     0.2872720
  H       -1.1096840     0.8890950     1.5649870
  H       -1.0556840    -1.8232910    -1.0601830
  H       -2.4751420    -0.8237670    -0.6995200
  H       -1.4750130    -1.4711080     0.6193320
units angstrom
no_reorient  #important for SAPT in psi4, default
symmetry c1  #important for SAPT in psi4, default
}

set PROPERTIES_ORIGIN ["COM"]
properties('MP2/aug-cc-pvtz', properties = ['dipole'])
--------------------------------------------------------------------------

    Molecular point group: c1
  Charge       = -1
  Multiplicity = 1
  Basis Set: AUG-CC-PVTZ
    Blend: AUG-CC-PVTZ
  Basis Set: (AUG-CC-PVTZ AUX)
    Blend: AUG-CC-PVTZ-JKFIT

    Orbital Energies [Eh]
    ---------------------

    Doubly Occupied:

       1A    -20.291553     2A    -20.291022     3A    -11.134595
       4A    -11.072573     5A    -11.068434     6A    -11.065824
       7A     -1.159440     8A     -1.058082     9A     -0.913382
      10A     -0.785365    11A     -0.671852    12A     -0.521307
      13A     -0.468994    14A     -0.450033    15A     -0.423792
      16A     -0.393045    17A     -0.390099    18A     -0.370804
      19A     -0.350587    20A     -0.316795    21A     -0.307732
      22A     -0.205358    23A     -0.195265    24A     -0.189995

  @DF-RHF Final Energy:  -305.42032290568613

   => Energetics <=

    Nuclear Repulsion Energy =            236.4078465108619014
    One-Electron Energy =                -895.4644782118400599
    Two-Electron Energy =                 353.6363087952920523
    Total Energy =                       -305.4203229056861346
  Basis Set: (AUG-CC-PVTZ AUX)
    Blend: AUG-CC-PVTZ-RI
    Molecular point group: c1

    Geometry (in Angstrom), charge = -1, multiplicity = 1:

       Center              X                  Y                   Z               Mass
    ------------   -----------------  -----------------  -----------------  -----------------
         O            0.974303910793    -0.979127523236     0.845814492445    15.994914619570
         O            1.671529910793     0.622001476764    -0.608932507555    15.994914619570
         C           -0.684705289207     0.239558176764    -0.385626307555    12.000000000000
         C           -1.228094089207     1.273402476764     0.529050492445    12.000000000000
         C           -1.554347089207    -1.044270523236    -0.396849507555    12.000000000000
         C            0.787796910793    -0.089355523236    -0.039320507555    12.000000000000
         H           -0.677021089207     0.621601476764    -1.437337507555     1.007825032230
         H           -0.613038089207     2.178200476764     0.489147492445     1.007825032230
         H           -2.259420089207     1.549440476764     0.279769492445     1.007825032230
         H           -1.215620089207     0.896846476764     1.557484492445     1.007825032230
         H           -1.161620089207    -1.815539523236    -1.067685507555     1.007825032230
         H           -2.581078089207    -0.816015523236    -0.707022507555     1.007825032230
         H           -1.580949089207    -1.463356523236     0.611829492445     1.007825032230

  Basis Set: AUG-CC-PVTZ
    Blend: AUG-CC-PVTZ
  Basis Set: (AUG-CC-PVTZ AUX)
    Blend: AUG-CC-PVTZ-JKFIT
	 Reference Energy          =    -305.4203229056861346 [Eh]
	 Singles Energy            =      -0.0000000000000000 [Eh]
	 Same-Spin Energy          =      -0.3100917246045964 [Eh]
	 Opposite-Spin Energy      =      -0.9869233096030222 [Eh]
	 Correlation Energy        =      -1.2970150342076185 [Eh]
	 Total Energy              =    -306.7173379398937527 [Eh]

	 ================> DF-SCS-MP2 Energies <==================
	-----------------------------------------------------------
	 SCS Same-Spin Scale       =       0.3333333333333333 [-]
	 SCS Opposite-Spin Scale   =       1.2000000000000000 [-]
	 SCS Same-Spin Energy      =      -0.1033639082015321 [Eh]
	 SCS Opposite-Spin Energy  =      -1.1843079715236267 [Eh]
	 SCS Correlation Energy    =      -1.2876718797251587 [Eh]
	 SCS Total Energy          =    -306.7079947854113016 [Eh]
	-----------------------------------------------------------

  Dipole Moment: [D]
     X:    -5.6961      Y:     0.8479      Z:    -0.6283     Total:     5.7931

*** Psi4 exiting successfully. Buy a developer a beer!
