                               Psi4 1.3.2 release

  ==> Input File <==

--------------------------------------------------------------------------
#psi4
#
memory 32 gb

molecule  {
0 1
  O       -1.5495636     1.0163879     0.0942199
  O        1.4540340    -1.7305240     0.0480640
  N        0.6983760     0.4234810    -0.0768570
  C       -0.6387160     0.0037620    -0.0484130
  C        0.9338190     1.8669200    -0.1039590
  C        1.7048000    -0.5240370     0.0213290
  C       -1.2931220    -1.2007390    -0.1216240
  C       -2.6835930    -0.8875750    -0.0182810
  C        3.1317020    -0.0168610     0.0830780
  C       -2.7843930     0.4654540     0.1083230
  H        0.3040530     2.3204240    -0.8701650
  H        1.9743570     2.0597570    -0.3491110
  H        0.6954160     2.3257170     0.8600750
  H       -0.8317010    -2.1668680    -0.2305290
  H       -3.5070380    -1.5886770    -0.0382780
  H        3.2875770     0.6796840     0.9111130
  H        3.4247710     0.4818120    -0.8454740
  H        3.7649310    -0.8918910     0.2258400
  H       -3.6032960     1.1610050     0.2088840
units angstrom
no_reorient  #important for SAPT in psi4, default
symmetry c1  #important for SAPT in psi4, default
}

set PROPERTIES_ORIGIN ["COM"]
properties('MP2/aug-cc-pvtz', properties = ['dipole'])
--------------------------------------------------------------------------

    Molecular point group: c1
  Charge       = 0
  Multiplicity = 1
  Basis Set: AUG-CC-PVTZ
    Blend: AUG-CC-PVTZ
  Basis Set: (AUG-CC-PVTZ AUX)
    Blend: AUG-CC-PVTZ-JKFIT

    Orbital Energies [Eh]
    ---------------------

    Doubly Occupied:

       1A    -20.625280     2A    -20.528561     3A    -15.617992
       4A    -11.365845     5A    -11.331512     6A    -11.279685
       7A    -11.279157     8A    -11.247045     9A    -11.226398
      10A    -11.215404    11A     -1.469066    12A     -1.385257
      13A     -1.263672    14A     -1.078398    15A     -1.033044
      16A     -0.991967    17A     -0.956766    18A     -0.835923
      19A     -0.796917    20A     -0.751286    21A     -0.703933
      22A     -0.680302    23A     -0.673968    24A     -0.652528
      25A     -0.625764    26A     -0.593582    27A     -0.590420
      28A     -0.588357    29A     -0.565994    30A     -0.562810
      31A     -0.550277    32A     -0.538419    33A     -0.527410
      34A     -0.435326    35A     -0.431672    36A     -0.389393
      37A     -0.287270

  @DF-RHF Final Energy:  -474.63493740952589

   => Energetics <=

    Nuclear Repulsion Energy =            528.2814748390570685
    One-Electron Energy =               -1694.4796204052984194
    Two-Electron Energy =                 691.5632081567154046
    Total Energy =                       -474.6349374095258327
  Basis Set: (AUG-CC-PVTZ AUX)
    Blend: AUG-CC-PVTZ-RI
    Molecular point group: c1

    Geometry (in Angstrom), charge = 0, multiplicity = 1:

       Center              X                  Y                   Z               Mass
    ------------   -----------------  -----------------  -----------------  -----------------
         O           -1.508212408460     1.049424488693     0.093383038489    15.994914619570
         O            1.495385191540    -1.697487411307     0.047227138489    15.994914619570
         N            0.739727191540     0.456517588693    -0.077693861511    14.003074004430
         C           -0.597364808460     0.036798588693    -0.049249861511    12.000000000000
         C            0.975170191540     1.899956588693    -0.104795861511    12.000000000000
         C            1.746151191540    -0.491000411307     0.020492138489    12.000000000000
         C           -1.251770808460    -1.167702411307    -0.122460861511    12.000000000000
         C           -2.642241808460    -0.854538411307    -0.019117861511    12.000000000000
         C            3.173053191540     0.016175588693     0.082241138489    12.000000000000
         C           -2.743041808460     0.498490588693     0.107486138489    12.000000000000
         H            0.345404191540     2.353460588693    -0.871001861511     1.007825032230
         H            2.015708191540     2.092793588693    -0.349947861511     1.007825032230
         H            0.736767191540     2.358753588693     0.859238138489     1.007825032230
         H           -0.790349808460    -2.133831411307    -0.231365861511     1.007825032230
         H           -3.465686808460    -1.555640411307    -0.039114861511     1.007825032230
         H            3.328928191540     0.712720588693     0.910276138489     1.007825032230
         H            3.466122191540     0.514848588693    -0.846310861511     1.007825032230
         H            3.806282191540    -0.858854411307     0.225003138489     1.007825032230
         H           -3.561944808460     1.194041588693     0.208047138489     1.007825032230

  Basis Set: AUG-CC-PVTZ
    Blend: AUG-CC-PVTZ
  Basis Set: (AUG-CC-PVTZ AUX)
    Blend: AUG-CC-PVTZ-JKFIT
	 Reference Energy          =    -474.6349374095258895 [Eh]
	 Singles Energy            =      -0.0000000000000000 [Eh]
	 Same-Spin Energy          =      -0.4918468157483532 [Eh]
	 Opposite-Spin Energy      =      -1.5275602095165610 [Eh]
	 Correlation Energy        =      -2.0194070252649143 [Eh]
	 Total Energy              =    -476.6543444347908007 [Eh]

	 ================> DF-SCS-MP2 Energies <==================
	-----------------------------------------------------------
	 SCS Same-Spin Scale       =       0.3333333333333333 [-]
	 SCS Opposite-Spin Scale   =       1.2000000000000000 [-]
	 SCS Same-Spin Energy      =      -0.1639489385827844 [Eh]
	 SCS Opposite-Spin Energy  =      -1.8330722514198732 [Eh]
	 SCS Correlation Energy    =      -1.9970211900026575 [Eh]
	 SCS Total Energy          =    -476.6319585995285593 [Eh]
	-----------------------------------------------------------

  Dipole Moment: [D]
     X:     0.6857      Y:     3.3502      Z:    -0.1266     Total:     3.4220

*** Psi4 exiting successfully. Buy a developer a beer!
