                               Psi4 1.3.2 release

  ==> Input File <==

--------------------------------------------------------------------------
#psi4
#
memory 32 gb

molecule  {
0 1
  O       -1.5316190     1.0321650     0.0948010
  O        1.4540340    -1.7305240     0.0480640
  N        0.6661579     0.5153638    -0.0672763
  C       -0.6387160     0.0037620    -0.0484130
  C        0.9338190     1.8669200    -0.1039590
  C        1.7048000    -0.5240370     0.0213290
  C       -1.2931220    -1.2007390    -0.1216240
  C       -2.6835930    -0.8875750    -0.0182810
  C        3.1317020    -0.0168610     0.0830780
  C       -2.7843930     0.4654540     0.1083230
  H        0.3040530     2.3204240    -0.8701650
  H        1.9743570     2.0597570    -0.3491110
  H        0.6954160     2.3257170     0.8600750
  H       -0.8317010    -2.1668680    -0.2305290
  H       -3.5070380    -1.5886770    -0.0382780
  H        3.2875770     0.6796840     0.9111130
  H        3.4247710     0.4818120    -0.8454740
  H        3.7649310    -0.8918910     0.2258400
  H       -3.6032960     1.1610050     0.2088840
units angstrom
no_reorient  #important for SAPT in psi4, default
symmetry c1  #important for SAPT in psi4, default
}

set PROPERTIES_ORIGIN ["COM"]
properties('MP2/aug-cc-pvtz', properties = ['dipole'])
--------------------------------------------------------------------------

    Molecular point group: c1
  Charge       = 0
  Multiplicity = 1
  Basis Set: AUG-CC-PVTZ
    Blend: AUG-CC-PVTZ
  Basis Set: (AUG-CC-PVTZ AUX)
    Blend: AUG-CC-PVTZ-JKFIT

    Orbital Energies [Eh]
    ---------------------

    Doubly Occupied:

       1A    -20.619867     2A    -20.545577     3A    -15.612795
       4A    -11.379340     5A    -11.332505     6A    -11.277498
       7A    -11.268764     8A    -11.250500     9A    -11.228130
      10A    -11.215320    11A     -1.460082    12A     -1.389298
      13A     -1.269103    14A     -1.079064    15A     -1.032188
      16A     -0.999336    17A     -0.940688    18A     -0.830562
      19A     -0.787327    20A     -0.750007    21A     -0.713058
      22A     -0.685011    23A     -0.674842    24A     -0.646276
      25A     -0.621541    26A     -0.601674    27A     -0.596115
      28A     -0.581895    29A     -0.566719    30A     -0.563981
      31A     -0.551073    32A     -0.540799    33A     -0.523246
      34A     -0.437494    35A     -0.432383    36A     -0.390348
      37A     -0.283688

  @DF-RHF Final Energy:  -474.61912023012758

   => Energetics <=

    Nuclear Repulsion Energy =            527.6521887847958396
    One-Electron Energy =               -1693.1864283177619654
    Two-Electron Energy =                 690.9151193028386615
    Total Energy =                       -474.6191202301275780
  Basis Set: (AUG-CC-PVTZ AUX)
    Blend: AUG-CC-PVTZ-RI
    Molecular point group: c1

    Geometry (in Angstrom), charge = 0, multiplicity = 1:

       Center              X                  Y                   Z               Mass
    ------------   -----------------  -----------------  -----------------  -----------------
         O           -1.489087554144     1.054134724181     0.092932566057    15.994914619570
         O            1.496565445856    -1.708554275819     0.046195566057    15.994914619570
         N            0.708689345856     0.537333524181    -0.069144733943    14.003074004430
         C           -0.596184554144     0.025731724181    -0.050281433943    12.000000000000
         C            0.976350445856     1.888889724181    -0.105827433943    12.000000000000
         C            1.747331445856    -0.502067275819     0.019460566057    12.000000000000
         C           -1.250590554144    -1.178769275819    -0.123492433943    12.000000000000
         C           -2.641061554144    -0.865605275819    -0.020149433943    12.000000000000
         C            3.174233445856     0.005108724181     0.081209566057    12.000000000000
         C           -2.741861554144     0.487423724181     0.106454566057    12.000000000000
         H            0.346584445856     2.342393724181    -0.872033433943     1.007825032230
         H            2.016888445856     2.081726724181    -0.350979433943     1.007825032230
         H            0.737947445856     2.347686724181     0.858206566057     1.007825032230
         H           -0.789169554144    -2.144898275819    -0.232397433943     1.007825032230
         H           -3.464506554144    -1.566707275819    -0.040146433943     1.007825032230
         H            3.330108445856     0.701653724181     0.909244566057     1.007825032230
         H            3.467302445856     0.503781724181    -0.847342433943     1.007825032230
         H            3.807462445856    -0.869921275819     0.223971566057     1.007825032230
         H           -3.560764554144     1.182974724181     0.207015566057     1.007825032230

  Basis Set: AUG-CC-PVTZ
    Blend: AUG-CC-PVTZ
  Basis Set: (AUG-CC-PVTZ AUX)
    Blend: AUG-CC-PVTZ-JKFIT
	 Reference Energy          =    -474.6191202301275780 [Eh]
	 Singles Energy            =      -0.0000000000000000 [Eh]
	 Same-Spin Energy          =      -0.4930927887644192 [Eh]
	 Opposite-Spin Energy      =      -1.5303426798151296 [Eh]
	 Correlation Energy        =      -2.0234354685795486 [Eh]
	 Total Energy              =    -476.6425556987070991 [Eh]

	 ================> DF-SCS-MP2 Energies <==================
	-----------------------------------------------------------
	 SCS Same-Spin Scale       =       0.3333333333333333 [-]
	 SCS Opposite-Spin Scale   =       1.2000000000000000 [-]
	 SCS Same-Spin Energy      =      -0.1643642629214730 [Eh]
	 SCS Opposite-Spin Energy  =      -1.8364112157781554 [Eh]
	 SCS Correlation Energy    =      -2.0007754786996284 [Eh]
	 SCS Total Energy          =    -476.6198957088271868 [Eh]
	-----------------------------------------------------------

  Dipole Moment: [D]
     X:     1.0089      Y:     2.8370      Z:    -0.1341     Total:     3.0141

*** Psi4 exiting successfully. Buy a developer a beer!
