                               Psi4 1.3.2 release

  ==> Input File <==

--------------------------------------------------------------------------
#psi4
#
memory 32 gb

molecule  {
0 1
  O       -1.5495561     1.0163747     0.0943615
  O        1.4540340    -1.7305240     0.0480640
  N        0.6983760     0.4234810    -0.0768570
  C       -0.6387160     0.0037620    -0.0484130
  C        0.9338190     1.8669200    -0.1039590
  C        1.7048000    -0.5240370     0.0213290
  C       -1.2931220    -1.2007390    -0.1216240
  C       -2.6835930    -0.8875750    -0.0182810
  C        3.1317020    -0.0168610     0.0830780
  C       -2.7843930     0.4654540     0.1083230
  H        0.3040530     2.3204240    -0.8701650
  H        1.9743570     2.0597570    -0.3491110
  H        0.6954160     2.3257170     0.8600750
  H       -0.8317010    -2.1668680    -0.2305290
  H       -3.5070380    -1.5886770    -0.0382780
  H        3.2875770     0.6796840     0.9111130
  H        3.4247710     0.4818120    -0.8454740
  H        3.7649310    -0.8918910     0.2258400
  H       -3.6032960     1.1610050     0.2088840
units angstrom
no_reorient  #important for SAPT in psi4, default
symmetry c1  #important for SAPT in psi4, default
}

set PROPERTIES_ORIGIN ["COM"]
properties('MP2/aug-cc-pvtz', properties = ['dipole'])
--------------------------------------------------------------------------

    Molecular point group: c1
  Charge       = 0
  Multiplicity = 1
  Basis Set: AUG-CC-PVTZ
    Blend: AUG-CC-PVTZ
  Basis Set: (AUG-CC-PVTZ AUX)
    Blend: AUG-CC-PVTZ-JKFIT

    Orbital Energies [Eh]
    ---------------------

    Doubly Occupied:

       1A    -20.625280     2A    -20.528561     3A    -15.617991
       4A    -11.365845     5A    -11.331512     6A    -11.279685
       7A    -11.279158     8A    -11.247045     9A    -11.226398
      10A    -11.215404    11A     -1.469066    12A     -1.385257
      13A     -1.263672    14A     -1.078398    15A     -1.033044
      16A     -0.991968    17A     -0.956766    18A     -0.835923
      19A     -0.796918    20A     -0.751286    21A     -0.703933
      22A     -0.680304    23A     -0.673965    24A     -0.652528
      25A     -0.625764    26A     -0.593583    27A     -0.590419
      28A     -0.588357    29A     -0.565994    30A     -0.562810
      31A     -0.550278    32A     -0.538420    33A     -0.527409
      34A     -0.435325    35A     -0.431672    36A     -0.389393
      37A     -0.287271

  @DF-RHF Final Energy:  -474.63493733153592

   => Energetics <=

    Nuclear Repulsion Energy =            528.2814894214702690
    One-Electron Energy =               -1694.4796549139912258
    Two-Electron Energy =                 691.5632281609850907
    Total Energy =                       -474.6349373315358662
  Basis Set: (AUG-CC-PVTZ AUX)
    Blend: AUG-CC-PVTZ-RI
    Molecular point group: c1

    Geometry (in Angstrom), charge = 0, multiplicity = 1:

       Center              X                  Y                   Z               Mass
    ------------   -----------------  -----------------  -----------------  -----------------
         O           -1.508205771102     1.049412806943     0.093508351809    15.994914619570
         O            1.495384328898    -1.697485893057     0.047210851809    15.994914619570
         N            0.739726328898     0.456519106943    -0.077710148191    14.003074004430
         C           -0.597365671102     0.036800106943    -0.049266148191    12.000000000000
         C            0.975169328898     1.899958106943    -0.104812148191    12.000000000000
         C            1.746150328898    -0.490998893057     0.020475851809    12.000000000000
         C           -1.251771671102    -1.167700893057    -0.122477148191    12.000000000000
         C           -2.642242671102    -0.854536893057    -0.019134148191    12.000000000000
         C            3.173052328898     0.016177106943     0.082224851809    12.000000000000
         C           -2.743042671102     0.498492106943     0.107469851809    12.000000000000
         H            0.345403328898     2.353462106943    -0.871018148191     1.007825032230
         H            2.015707328898     2.092795106943    -0.349964148191     1.007825032230
         H            0.736766328898     2.358755106943     0.859221851809     1.007825032230
         H           -0.790350671102    -2.133829893057    -0.231382148191     1.007825032230
         H           -3.465687671102    -1.555638893057    -0.039131148191     1.007825032230
         H            3.328927328898     0.712722106943     0.910259851809     1.007825032230
         H            3.466121328898     0.514850106943    -0.846327148191     1.007825032230
         H            3.806281328898    -0.858852893057     0.224986851809     1.007825032230
         H           -3.561945671102     1.194043106943     0.208030851809     1.007825032230

  Basis Set: AUG-CC-PVTZ
    Blend: AUG-CC-PVTZ
  Basis Set: (AUG-CC-PVTZ AUX)
    Blend: AUG-CC-PVTZ-JKFIT
	 Reference Energy          =    -474.6349373315359230 [Eh]
	 Singles Energy            =      -0.0000000000000000 [Eh]
	 Same-Spin Energy          =      -0.4918468075830394 [Eh]
	 Opposite-Spin Energy      =      -1.5275602106255559 [Eh]
	 Correlation Energy        =      -2.0194070182085953 [Eh]
	 Total Energy              =    -476.6543443497445196 [Eh]

	 ================> DF-SCS-MP2 Energies <==================
	-----------------------------------------------------------
	 SCS Same-Spin Scale       =       0.3333333333333333 [-]
	 SCS Opposite-Spin Scale   =       1.2000000000000000 [-]
	 SCS Same-Spin Energy      =      -0.1639489358610131 [Eh]
	 SCS Opposite-Spin Energy  =      -1.8330722527506671 [Eh]
	 SCS Correlation Energy    =      -1.9970211886116802 [Eh]
	 SCS Total Energy          =    -476.6319585201475775 [Eh]
	-----------------------------------------------------------

  Dipole Moment: [D]
     X:     0.6857      Y:     3.3502      Z:    -0.1266     Total:     3.4220

*** Psi4 exiting successfully. Buy a developer a beer!
