                               Psi4 1.3.2 release

  ==> Input File <==

--------------------------------------------------------------------------
#psi4
#
memory 32 gb

molecule  {
0 1
  O       -1.5316190     1.0321650     0.0948010
  O        1.4540340    -1.7305240     0.0480640
  N        0.6983760     0.4234810    -0.0768570
  C       -0.6525773     0.0504639    -0.0529507
  C        0.9338190     1.8669200    -0.1039590
  C        1.7048000    -0.5240370     0.0213290
  C       -1.2931220    -1.2007390    -0.1216240
  C       -2.6835930    -0.8875750    -0.0182810
  C        3.1317020    -0.0168610     0.0830780
  C       -2.7843930     0.4654540     0.1083230
  H        0.3040530     2.3204240    -0.8701650
  H        1.9743570     2.0597570    -0.3491110
  H        0.6954160     2.3257170     0.8600750
  H       -0.8317010    -2.1668680    -0.2305290
  H       -3.5070380    -1.5886770    -0.0382780
  H        3.2875770     0.6796840     0.9111130
  H        3.4247710     0.4818120    -0.8454740
  H        3.7649310    -0.8918910     0.2258400
  H       -3.6032960     1.1610050     0.2088840
units angstrom
no_reorient  #important for SAPT in psi4, default
symmetry c1  #important for SAPT in psi4, default
}

set PROPERTIES_ORIGIN ["COM"]
properties('MP2/aug-cc-pvtz', properties = ['dipole'])
--------------------------------------------------------------------------

    Molecular point group: c1
  Charge       = 0
  Multiplicity = 1
  Basis Set: AUG-CC-PVTZ
    Blend: AUG-CC-PVTZ
  Basis Set: (AUG-CC-PVTZ AUX)
    Blend: AUG-CC-PVTZ-JKFIT

    Orbital Energies [Eh]
    ---------------------

    Doubly Occupied:

       1A    -20.632128     2A    -20.528593     3A    -15.617658
       4A    -11.366543     5A    -11.335850     6A    -11.278986
       7A    -11.278010     8A    -11.247472     9A    -11.230222
      10A    -11.215506    11A     -1.481008    12A     -1.384796
      13A     -1.263823    14A     -1.077114    15A     -1.033256
      16A     -0.990860    17A     -0.955735    18A     -0.836312
      19A     -0.798713    20A     -0.755190    21A     -0.703083
      22A     -0.681665    23A     -0.676501    24A     -0.652585
      25A     -0.628413    26A     -0.594035    27A     -0.591978
      28A     -0.589408    29A     -0.569872    30A     -0.559160
      31A     -0.553156    32A     -0.534728    33A     -0.526474
      34A     -0.433540    35A     -0.430818    36A     -0.391622
      37A     -0.282749

  @DF-RHF Final Energy:  -474.63211162030774

   => Energetics <=

    Nuclear Repulsion Energy =            528.1750269835548579
    One-Electron Energy =               -1694.1991467194841334
    Two-Electron Energy =                 691.3920081156213655
    Total Energy =                       -474.6321116203077963
  Basis Set: (AUG-CC-PVTZ AUX)
    Blend: AUG-CC-PVTZ-RI
    Molecular point group: c1

    Geometry (in Angstrom), charge = 0, multiplicity = 1:

       Center              X                  Y                   Z               Mass
    ------------   -----------------  -----------------  -----------------  -----------------
         O           -1.491135663028     1.059356940963     0.094288866479    15.994914619570
         O            1.494517336972    -1.703332059037     0.047551866479    15.994914619570
         N            0.738859336972     0.450672940963    -0.077369133521    14.003074004430
         C           -0.612093963028     0.077655840963    -0.053462833521    12.000000000000
         C            0.974302336972     1.894111940963    -0.104471133521    12.000000000000
         C            1.745283336972    -0.496845059037     0.020816866479    12.000000000000
         C           -1.252638663028    -1.173547059037    -0.122136133521    12.000000000000
         C           -2.643109663028    -0.860383059037    -0.018793133521    12.000000000000
         C            3.172185336972     0.010330940963     0.082565866479    12.000000000000
         C           -2.743909663028     0.492645940963     0.107810866479    12.000000000000
         H            0.344536336972     2.347615940963    -0.870677133521     1.007825032230
         H            2.014840336972     2.086948940963    -0.349623133521     1.007825032230
         H            0.735899336972     2.352908940963     0.859562866479     1.007825032230
         H           -0.791217663028    -2.139676059037    -0.231041133521     1.007825032230
         H           -3.466554663028    -1.561485059037    -0.038790133521     1.007825032230
         H            3.328060336972     0.706875940963     0.910600866479     1.007825032230
         H            3.465254336972     0.509003940963    -0.845986133521     1.007825032230
         H            3.805414336972    -0.864699059037     0.225327866479     1.007825032230
         H           -3.562812663028     1.188196940963     0.208371866479     1.007825032230

  Basis Set: AUG-CC-PVTZ
    Blend: AUG-CC-PVTZ
  Basis Set: (AUG-CC-PVTZ AUX)
    Blend: AUG-CC-PVTZ-JKFIT
	 Reference Energy          =    -474.6321116203077395 [Eh]
	 Singles Energy            =      -0.0000000000000000 [Eh]
	 Same-Spin Energy          =      -0.4922460052821819 [Eh]
	 Opposite-Spin Energy      =      -1.5278722226137478 [Eh]
	 Correlation Energy        =      -2.0201182278959298 [Eh]
	 Total Energy              =    -476.6522298482036604 [Eh]

	 ================> DF-SCS-MP2 Energies <==================
	-----------------------------------------------------------
	 SCS Same-Spin Scale       =       0.3333333333333333 [-]
	 SCS Opposite-Spin Scale   =       1.2000000000000000 [-]
	 SCS Same-Spin Energy      =      -0.1640820017607273 [Eh]
	 SCS Opposite-Spin Energy  =      -1.8334466671364973 [Eh]
	 SCS Correlation Energy    =      -1.9975286688972247 [Eh]
	 SCS Total Energy          =    -476.6296402892049855 [Eh]
	-----------------------------------------------------------

  Dipole Moment: [D]
     X:     0.6052      Y:     3.3638      Z:    -0.1167     Total:     3.4198

*** Psi4 exiting successfully. Buy a developer a beer!
