                               Psi4 1.3.2 release

  ==> Input File <==

--------------------------------------------------------------------------
#psi4
#
memory 32 gb

molecule  {
0 1
  O       -1.5316190     1.0321650     0.0948010
  O        1.4540340    -1.7305240     0.0480640
  N        0.6983760     0.4234810    -0.0768570
  C       -0.6387160     0.0037620    -0.0484130
  C        0.9338190     1.8669200    -0.1039590
  C        1.7048000    -0.5240370     0.0213290
  C       -1.2672037    -1.0539151    -0.1095685
  C       -2.6835930    -0.8875750    -0.0182810
  C        3.1317020    -0.0168610     0.0830780
  C       -2.7843930     0.4654540     0.1083230
  H        0.3040530     2.3204240    -0.8701650
  H        1.9743570     2.0597570    -0.3491110
  H        0.6954160     2.3257170     0.8600750
  H       -0.8317010    -2.1668680    -0.2305290
  H       -3.5070380    -1.5886770    -0.0382780
  H        3.2875770     0.6796840     0.9111130
  H        3.4247710     0.4818120    -0.8454740
  H        3.7649310    -0.8918910     0.2258400
  H       -3.6032960     1.1610050     0.2088840
units angstrom
no_reorient  #important for SAPT in psi4, default
symmetry c1  #important for SAPT in psi4, default
}

set PROPERTIES_ORIGIN ["COM"]
properties('MP2/aug-cc-pvtz', properties = ['dipole'])
--------------------------------------------------------------------------

    Molecular point group: c1
  Charge       = 0
  Multiplicity = 1
  Basis Set: AUG-CC-PVTZ
    Blend: AUG-CC-PVTZ
  Basis Set: (AUG-CC-PVTZ AUX)
    Blend: AUG-CC-PVTZ-JKFIT

    Orbital Energies [Eh]
    ---------------------

    Doubly Occupied:

       1A    -20.614283     2A    -20.525152     3A    -15.612753
       4A    -11.363386     5A    -11.307282     6A    -11.285506
       7A    -11.276787     8A    -11.245036     9A    -11.228217
      10A    -11.205123    11A     -1.462980    12A     -1.382207
      13A     -1.259409    14A     -1.096486    15A     -1.033740
      16A     -0.996610    17A     -0.956235    18A     -0.837652
      19A     -0.801829    20A     -0.736417    21A     -0.703143
      22A     -0.678280    23A     -0.672739    24A     -0.650430
      25A     -0.623553    26A     -0.595142    27A     -0.590692
      28A     -0.585745    29A     -0.573102    30A     -0.557384
      31A     -0.544562    32A     -0.525757    33A     -0.511004
      34A     -0.437896    35A     -0.425008    36A     -0.393805
      37A     -0.305316

  @DF-RHF Final Energy:  -474.60370355706067

   => Energetics <=

    Nuclear Repulsion Energy =            531.1993375961250194
    One-Electron Energy =               -1700.4047821213564475
    Two-Electron Energy =                 694.6017409681708159
    Total Energy =                       -474.6037035570607259
  Basis Set: (AUG-CC-PVTZ AUX)
    Blend: AUG-CC-PVTZ-RI
    Molecular point group: c1

    Geometry (in Angstrom), charge = 0, multiplicity = 1:

       Center              X                  Y                   Z               Mass
    ------------   -----------------  -----------------  -----------------  -----------------
         O           -1.494568309183     1.050717251315     0.092857012358    15.994914619570
         O            1.491084690817    -1.711971748685     0.046120012358    15.994914619570
         N            0.735426690817     0.442033251315    -0.078800987642    14.003074004430
         C           -0.601665309183     0.022314251315    -0.050356987642    12.000000000000
         C            0.970869690817     1.885472251315    -0.105902987642    12.000000000000
         C            1.741850690817    -0.505484748685     0.019385012358    12.000000000000
         C           -1.230153009183    -1.035362848685    -0.111512487642    12.000000000000
         C           -2.646542309183    -0.869022748685    -0.020224987642    12.000000000000
         C            3.168752690817     0.001691251315     0.081134012358    12.000000000000
         C           -2.747342309183     0.484006251315     0.106379012358    12.000000000000
         H            0.341103690817     2.338976251315    -0.872108987642     1.007825032230
         H            2.011407690817     2.078309251315    -0.351054987642     1.007825032230
         H            0.732466690817     2.344269251315     0.858131012358     1.007825032230
         H           -0.794650309183    -2.148315748685    -0.232472987642     1.007825032230
         H           -3.469987309183    -1.570124748685    -0.040221987642     1.007825032230
         H            3.324627690817     0.698236251315     0.909169012358     1.007825032230
         H            3.461821690817     0.500364251315    -0.847417987642     1.007825032230
         H            3.801981690817    -0.873338748685     0.223896012358     1.007825032230
         H           -3.566245309183     1.179557251315     0.206940012358     1.007825032230

  Basis Set: AUG-CC-PVTZ
    Blend: AUG-CC-PVTZ
  Basis Set: (AUG-CC-PVTZ AUX)
    Blend: AUG-CC-PVTZ-JKFIT
	 Reference Energy          =    -474.6037035570606690 [Eh]
	 Singles Energy            =      -0.0000000000000000 [Eh]
	 Same-Spin Energy          =      -0.4904254918516653 [Eh]
	 Opposite-Spin Energy      =      -1.5259371354919007 [Eh]
	 Correlation Energy        =      -2.0163626273435660 [Eh]
	 Total Energy              =    -476.6200661844042088 [Eh]

	 ================> DF-SCS-MP2 Energies <==================
	-----------------------------------------------------------
	 SCS Same-Spin Scale       =       0.3333333333333333 [-]
	 SCS Opposite-Spin Scale   =       1.2000000000000000 [-]
	 SCS Same-Spin Energy      =      -0.1634751639505551 [Eh]
	 SCS Opposite-Spin Energy  =      -1.8311245625902808 [Eh]
	 SCS Correlation Energy    =      -1.9945997265408359 [Eh]
	 SCS Total Energy          =    -476.5983032836015241 [Eh]
	-----------------------------------------------------------

  Dipole Moment: [D]
     X:     0.4691      Y:     3.1666      Z:    -0.1342     Total:     3.2040

*** Psi4 exiting successfully. Buy a developer a beer!
