                               Psi4 1.3.2 release

  ==> Input File <==

--------------------------------------------------------------------------
#psi4
#
memory 32 gb

molecule  {
0 1
  O       -1.5316190     1.0321650     0.0948010
  O        1.4540340    -1.7305240     0.0480640
  N        0.6983760     0.4234810    -0.0768570
  C       -0.6232413    -0.0426500    -0.0479151
  C        0.9338190     1.8669200    -0.1039590
  C        1.7048000    -0.5240370     0.0213290
  C       -1.2931220    -1.2007390    -0.1216240
  C       -2.6835930    -0.8875750    -0.0182810
  C        3.1317020    -0.0168610     0.0830780
  C       -2.7843930     0.4654540     0.1083230
  H        0.3040530     2.3204240    -0.8701650
  H        1.9743570     2.0597570    -0.3491110
  H        0.6954160     2.3257170     0.8600750
  H       -0.8317010    -2.1668680    -0.2305290
  H       -3.5070380    -1.5886770    -0.0382780
  H        3.2875770     0.6796840     0.9111130
  H        3.4247710     0.4818120    -0.8454740
  H        3.7649310    -0.8918910     0.2258400
  H       -3.6032960     1.1610050     0.2088840
units angstrom
no_reorient  #important for SAPT in psi4, default
symmetry c1  #important for SAPT in psi4, default
}

set PROPERTIES_ORIGIN ["COM"]
properties('MP2/aug-cc-pvtz', properties = ['dipole'])
--------------------------------------------------------------------------

    Molecular point group: c1
  Charge       = 0
  Multiplicity = 1
  Basis Set: AUG-CC-PVTZ
    Blend: AUG-CC-PVTZ
  Basis Set: (AUG-CC-PVTZ AUX)
    Blend: AUG-CC-PVTZ-JKFIT

    Orbital Energies [Eh]
    ---------------------

    Doubly Occupied:

       1A    -20.617313     2A    -20.528675     3A    -15.617532
       4A    -11.364928     5A    -11.329746     6A    -11.282561
       7A    -11.279344     8A    -11.246320     9A    -11.228251
      10A    -11.215213    11A     -1.444728    12A     -1.385238
      13A     -1.261873    14A     -1.084113    15A     -1.030726
      16A     -0.990682    17A     -0.954822    18A     -0.835704
      19A     -0.792446    20A     -0.746407    21A     -0.702695
      22A     -0.679509    23A     -0.669709    24A     -0.645629
      25A     -0.616980    26A     -0.591963    27A     -0.587913
      28A     -0.587620    29A     -0.568533    30A     -0.560974
      31A     -0.548056    32A     -0.541982    33A     -0.527675
      34A     -0.436695    35A     -0.431773    36A     -0.392186
      37A     -0.291961

  @DF-RHF Final Energy:  -474.63135873787530

   => Energetics <=

    Nuclear Repulsion Energy =            527.8186670908346514
    One-Electron Energy =               -1693.6630974118077120
    Two-Electron Energy =                 691.2130715830977579
    Total Energy =                       -474.6313587378753027
  Basis Set: (AUG-CC-PVTZ AUX)
    Blend: AUG-CC-PVTZ-RI
    Molecular point group: c1

    Geometry (in Angstrom), charge = 0, multiplicity = 1:

       Center              X                  Y                   Z               Mass
    ------------   -----------------  -----------------  -----------------  -----------------
         O           -1.493667114013     1.067391890305     0.093854336393    15.994914619570
         O            1.491985885987    -1.695297109695     0.047117336393    15.994914619570
         N            0.736327885987     0.458707890305    -0.077803663607    14.003074004430
         C           -0.585289414013    -0.007423109695    -0.048861763607    12.000000000000
         C            0.971770885987     1.902146890305    -0.104905663607    12.000000000000
         C            1.742751885987    -0.488810109695     0.020382336393    12.000000000000
         C           -1.255170114013    -1.165512109695    -0.122570663607    12.000000000000
         C           -2.645641114013    -0.852348109695    -0.019227663607    12.000000000000
         C            3.169653885987     0.018365890305     0.082131336393    12.000000000000
         C           -2.746441114013     0.500680890305     0.107376336393    12.000000000000
         H            0.342004885987     2.355650890305    -0.871111663607     1.007825032230
         H            2.012308885987     2.094983890305    -0.350057663607     1.007825032230
         H            0.733367885987     2.360943890305     0.859128336393     1.007825032230
         H           -0.793749114013    -2.131641109695    -0.231475663607     1.007825032230
         H           -3.469086114013    -1.553450109695    -0.039224663607     1.007825032230
         H            3.325528885987     0.714910890305     0.910166336393     1.007825032230
         H            3.462722885987     0.517038890305    -0.846420663607     1.007825032230
         H            3.802882885987    -0.856664109695     0.224893336393     1.007825032230
         H           -3.565344114013     1.196231890305     0.207937336393     1.007825032230

  Basis Set: AUG-CC-PVTZ
    Blend: AUG-CC-PVTZ
  Basis Set: (AUG-CC-PVTZ AUX)
    Blend: AUG-CC-PVTZ-JKFIT
	 Reference Energy          =    -474.6313587378753027 [Eh]
	 Singles Energy            =      -0.0000000000000000 [Eh]
	 Same-Spin Energy          =      -0.4916017443602955 [Eh]
	 Opposite-Spin Energy      =      -1.5286711613307435 [Eh]
	 Correlation Energy        =      -2.0202729056910389 [Eh]
	 Total Energy              =    -476.6516316435663612 [Eh]

	 ================> DF-SCS-MP2 Energies <==================
	-----------------------------------------------------------
	 SCS Same-Spin Scale       =       0.3333333333333333 [-]
	 SCS Opposite-Spin Scale   =       1.2000000000000000 [-]
	 SCS Same-Spin Energy      =      -0.1638672481200985 [Eh]
	 SCS Opposite-Spin Energy  =      -1.8344053935968923 [Eh]
	 SCS Correlation Energy    =      -1.9982726417169907 [Eh]
	 SCS Total Energy          =    -476.6296313795922970 [Eh]
	-----------------------------------------------------------

  Dipole Moment: [D]
     X:     0.6767      Y:     3.2072      Z:    -0.1446     Total:     3.2810

*** Psi4 exiting successfully. Buy a developer a beer!
