                               Psi4 1.3.2 release

  ==> Input File <==

--------------------------------------------------------------------------
#psi4
#
memory 32 gb

molecule  {
0 1
  O       -1.5316190     1.0321650     0.0948010
  O        1.4540340    -1.7305240     0.0480640
  N        0.6983760     0.4234810    -0.0768570
  C       -0.6387160     0.0037620    -0.0484130
  C        0.9338190     1.8669200    -0.1039590
  C        1.7048000    -0.5240370     0.0213290
  C       -1.2877346    -1.1764636    -0.1196900
  C       -2.6835930    -0.8875750    -0.0182810
  C        3.1317020    -0.0168610     0.0830780
  C       -2.7843930     0.4654540     0.1083230
  H        0.3040530     2.3204240    -0.8701650
  H        1.9743570     2.0597570    -0.3491110
  H        0.6954160     2.3257170     0.8600750
  H       -0.8317010    -2.1668680    -0.2305290
  H       -3.5070380    -1.5886770    -0.0382780
  H        3.2875770     0.6796840     0.9111130
  H        3.4247710     0.4818120    -0.8454740
  H        3.7649310    -0.8918910     0.2258400
  H       -3.6032960     1.1610050     0.2088840
units angstrom
no_reorient  #important for SAPT in psi4, default
symmetry c1  #important for SAPT in psi4, default
}

set PROPERTIES_ORIGIN ["COM"]
properties('MP2/aug-cc-pvtz', properties = ['dipole'])
--------------------------------------------------------------------------

    Molecular point group: c1
  Charge       = 0
  Multiplicity = 1
  Basis Set: AUG-CC-PVTZ
    Blend: AUG-CC-PVTZ
  Basis Set: (AUG-CC-PVTZ AUX)
    Blend: AUG-CC-PVTZ-JKFIT

    Orbital Energies [Eh]
    ---------------------

    Doubly Occupied:

       1A    -20.623047     2A    -20.527909     3A    -15.616534
       4A    -11.365164     5A    -11.328426     6A    -11.281313
       7A    -11.278622     8A    -11.246472     9A    -11.228939
      10A    -11.213775    11A     -1.461991    12A     -1.384439
      13A     -1.262050    14A     -1.082552    15A     -1.032076
      16A     -0.991427    17A     -0.955136    18A     -0.835837
      19A     -0.796104    20A     -0.748702    21A     -0.702779
      22A     -0.679416    23A     -0.672803    24A     -0.648804
      25A     -0.622802    26A     -0.592686    27A     -0.590111
      28A     -0.587996    29A     -0.566814    30A     -0.559232
      31A     -0.549834    32A     -0.540047    33A     -0.526776
      34A     -0.434737    35A     -0.430708    36A     -0.392058
      37A     -0.290433

  @DF-RHF Final Energy:  -474.63463021573216

   => Energetics <=

    Nuclear Repulsion Energy =            528.5016462166723841
    One-Electron Energy =               -1694.9754484188756578
    Two-Electron Energy =                 691.8391719864712286
    Total Energy =                       -474.6346302157321588
  Basis Set: (AUG-CC-PVTZ AUX)
    Blend: AUG-CC-PVTZ-RI
    Molecular point group: c1

    Geometry (in Angstrom), charge = 0, multiplicity = 1:

       Center              X                  Y                   Z               Mass
    ------------   -----------------  -----------------  -----------------  -----------------
         O           -1.492796664547     1.061292159995     0.093730412997    15.994914619570
         O            1.492856335453    -1.701396840005     0.046993412997    15.994914619570
         N            0.737198335453     0.452608159995    -0.077927587003    14.003074004430
         C           -0.599893664547     0.032889159995    -0.049483587003    12.000000000000
         C            0.972641335453     1.896047159995    -0.105029587003    12.000000000000
         C            1.743622335453    -0.494909840005     0.020258412997    12.000000000000
         C           -1.248912264547    -1.147336440005    -0.120760587003    12.000000000000
         C           -2.644770664547    -0.858447840005    -0.019351587003    12.000000000000
         C            3.170524335453     0.012266159995     0.082007412997    12.000000000000
         C           -2.745570664547     0.494581159995     0.107252412997    12.000000000000
         H            0.342875335453     2.349551159995    -0.871235587003     1.007825032230
         H            2.013179335453     2.088884159995    -0.350181587003     1.007825032230
         H            0.734238335453     2.354844159995     0.859004412997     1.007825032230
         H           -0.792878664547    -2.137740840005    -0.231599587003     1.007825032230
         H           -3.468215664547    -1.559549840005    -0.039348587003     1.007825032230
         H            3.326399335453     0.708811159995     0.910042412997     1.007825032230
         H            3.463593335453     0.510939159995    -0.846544587003     1.007825032230
         H            3.803753335453    -0.862763840005     0.224769412997     1.007825032230
         H           -3.564473664547     1.190132159995     0.207813412997     1.007825032230

  Basis Set: AUG-CC-PVTZ
    Blend: AUG-CC-PVTZ
  Basis Set: (AUG-CC-PVTZ AUX)
    Blend: AUG-CC-PVTZ-JKFIT
	 Reference Energy          =    -474.6346302157321588 [Eh]
	 Singles Energy            =      -0.0000000000000000 [Eh]
	 Same-Spin Energy          =      -0.4915294541541983 [Eh]
	 Opposite-Spin Energy      =      -1.5275970980068974 [Eh]
	 Correlation Energy        =      -2.0191265521610955 [Eh]
	 Total Energy              =    -476.6537567678932419 [Eh]

	 ================> DF-SCS-MP2 Energies <==================
	-----------------------------------------------------------
	 SCS Same-Spin Scale       =       0.3333333333333333 [-]
	 SCS Opposite-Spin Scale   =       1.2000000000000000 [-]
	 SCS Same-Spin Energy      =      -0.1638431513847328 [Eh]
	 SCS Opposite-Spin Energy  =      -1.8331165176082767 [Eh]
	 SCS Correlation Energy    =      -1.9969596689930094 [Eh]
	 SCS Total Energy          =    -476.6315898847251447 [Eh]
	-----------------------------------------------------------

  Dipole Moment: [D]
     X:     0.6108      Y:     3.2636      Z:    -0.1316     Total:     3.3229

*** Psi4 exiting successfully. Buy a developer a beer!
