                               Psi4 1.3.2 release

  ==> Input File <==

--------------------------------------------------------------------------
#psi4
#
memory 32 gb

molecule  {
0 1
  O       -1.5316190     1.0321650     0.0948010
  O        1.4540340    -1.7305240     0.0480640
  N        0.6983760     0.4234810    -0.0768570
  C       -0.7243295     0.0459526    -0.0399852
  C        0.9338190     1.8669200    -0.1039590
  C        1.7048000    -0.5240370     0.0213290
  C       -1.2931220    -1.2007390    -0.1216240
  C       -2.6835930    -0.8875750    -0.0182810
  C        3.1317020    -0.0168610     0.0830780
  C       -2.7843930     0.4654540     0.1083230
  H        0.3040530     2.3204240    -0.8701650
  H        1.9743570     2.0597570    -0.3491110
  H        0.6954160     2.3257170     0.8600750
  H       -0.8317010    -2.1668680    -0.2305290
  H       -3.5070380    -1.5886770    -0.0382780
  H        3.2875770     0.6796840     0.9111130
  H        3.4247710     0.4818120    -0.8454740
  H        3.7649310    -0.8918910     0.2258400
  H       -3.6032960     1.1610050     0.2088840
units angstrom
no_reorient  #important for SAPT in psi4, default
symmetry c1  #important for SAPT in psi4, default
}

set PROPERTIES_ORIGIN ["COM"]
properties('MP2/aug-cc-pvtz', properties = ['dipole'])
--------------------------------------------------------------------------

    Molecular point group: c1
  Charge       = 0
  Multiplicity = 1
  Basis Set: AUG-CC-PVTZ
    Blend: AUG-CC-PVTZ
  Basis Set: (AUG-CC-PVTZ AUX)
    Blend: AUG-CC-PVTZ-JKFIT

    Orbital Energies [Eh]
    ---------------------

    Doubly Occupied:

       1A    -20.640852     2A    -20.522858     3A    -15.611220
       4A    -11.361925     5A    -11.335747     6A    -11.280431
       7A    -11.274513     8A    -11.244189     9A    -11.234451
      10A    -11.214137    11A     -1.507049    12A     -1.378226
      13A     -1.245692    14A     -1.090407    15A     -1.028843
      16A     -0.991047    17A     -0.951960    18A     -0.830916
      19A     -0.799913    20A     -0.765970    21A     -0.700280
      22A     -0.684050    23A     -0.673724    24A     -0.649695
      25A     -0.632729    26A     -0.592651    27A     -0.590563
      28A     -0.588925    29A     -0.576527    30A     -0.559453
      31A     -0.553610    32A     -0.531657    33A     -0.521150
      34A     -0.427588    35A     -0.421113    36A     -0.397692
      37A     -0.292582

  @DF-RHF Final Energy:  -474.62659452255588

   => Energetics <=

    Nuclear Repulsion Energy =            528.2930004707565104
    One-Electron Energy =               -1694.4305141290417396
    Two-Electron Energy =                 691.5109191357291820
    Total Energy =                       -474.6265945225559335
  Basis Set: (AUG-CC-PVTZ AUX)
    Blend: AUG-CC-PVTZ-RI
    Molecular point group: c1

    Geometry (in Angstrom), charge = 0, multiplicity = 1:

       Center              X                  Y                   Z               Mass
    ------------   -----------------  -----------------  -----------------  -----------------
         O           -1.484944049400     1.059746228352     0.093170052470    15.994914619570
         O            1.500708950600    -1.702942771648     0.046433052470    15.994914619570
         N            0.745050950600     0.451062228352    -0.078487947530    14.003074004430
         C           -0.677654549400     0.073533828352    -0.041616147530    12.000000000000
         C            0.980493950600     1.894501228352    -0.105589947530    12.000000000000
         C            1.751474950600    -0.496455771648     0.019698052470    12.000000000000
         C           -1.246447049400    -1.173157771648    -0.123254947530    12.000000000000
         C           -2.636918049400    -0.859993771648    -0.019911947530    12.000000000000
         C            3.178376950600     0.010720228352     0.081447052470    12.000000000000
         C           -2.737718049400     0.493035228352     0.106692052470    12.000000000000
         H            0.350727950600     2.348005228352    -0.871795947530     1.007825032230
         H            2.021031950600     2.087338228352    -0.350741947530     1.007825032230
         H            0.742090950600     2.353298228352     0.858444052470     1.007825032230
         H           -0.785026049400    -2.139286771648    -0.232159947530     1.007825032230
         H           -3.460363049400    -1.561095771648    -0.039908947530     1.007825032230
         H            3.334251950600     0.707265228352     0.909482052470     1.007825032230
         H            3.471445950600     0.509393228352    -0.847104947530     1.007825032230
         H            3.811605950600    -0.864309771648     0.224209052470     1.007825032230
         H           -3.556621049400     1.188586228352     0.207253052470     1.007825032230

  Basis Set: AUG-CC-PVTZ
    Blend: AUG-CC-PVTZ
  Basis Set: (AUG-CC-PVTZ AUX)
    Blend: AUG-CC-PVTZ-JKFIT
	 Reference Energy          =    -474.6265945225558767 [Eh]
	 Singles Energy            =      -0.0000000000000000 [Eh]
	 Same-Spin Energy          =      -0.4912458943824755 [Eh]
	 Opposite-Spin Energy      =      -1.5262952170593040 [Eh]
	 Correlation Energy        =      -2.0175411114417794 [Eh]
	 Total Energy              =    -476.6441356339976778 [Eh]

	 ================> DF-SCS-MP2 Energies <==================
	-----------------------------------------------------------
	 SCS Same-Spin Scale       =       0.3333333333333333 [-]
	 SCS Opposite-Spin Scale   =       1.2000000000000000 [-]
	 SCS Same-Spin Energy      =      -0.1637486314608252 [Eh]
	 SCS Opposite-Spin Energy  =      -1.8315542604711648 [Eh]
	 SCS Correlation Energy    =      -1.9953028919319900 [Eh]
	 SCS Total Energy          =    -476.6218974144878757 [Eh]
	-----------------------------------------------------------

  Dipole Moment: [D]
     X:     0.2075      Y:     3.3018      Z:    -0.1092     Total:     3.3101

*** Psi4 exiting successfully. Buy a developer a beer!
