                               Psi4 1.3.2 release

  ==> Input File <==

--------------------------------------------------------------------------
#psi4
#
memory 32 gb

molecule  {
0 1
  O       -1.5316190     1.0321650     0.0948010
  O        1.4540340    -1.7305240     0.0480640
  N        0.6983760     0.4234810    -0.0768570
  C       -0.6598410     0.0148759    -0.0463555
  C        0.9338190     1.8669200    -0.1039590
  C        1.7048000    -0.5240370     0.0213290
  C       -1.2931220    -1.2007390    -0.1216240
  C       -2.6835930    -0.8875750    -0.0182810
  C        3.1317020    -0.0168610     0.0830780
  C       -2.7843930     0.4654540     0.1083230
  H        0.3040530     2.3204240    -0.8701650
  H        1.9743570     2.0597570    -0.3491110
  H        0.6954160     2.3257170     0.8600750
  H       -0.8317010    -2.1668680    -0.2305290
  H       -3.5070380    -1.5886770    -0.0382780
  H        3.2875770     0.6796840     0.9111130
  H        3.4247710     0.4818120    -0.8454740
  H        3.7649310    -0.8918910     0.2258400
  H       -3.6032960     1.1610050     0.2088840
units angstrom
no_reorient  #important for SAPT in psi4, default
symmetry c1  #important for SAPT in psi4, default
}

set PROPERTIES_ORIGIN ["COM"]
properties('MP2/aug-cc-pvtz', properties = ['dipole'])
--------------------------------------------------------------------------

    Molecular point group: c1
  Charge       = 0
  Multiplicity = 1
  Basis Set: AUG-CC-PVTZ
    Blend: AUG-CC-PVTZ
  Basis Set: (AUG-CC-PVTZ AUX)
    Blend: AUG-CC-PVTZ-JKFIT

    Orbital Energies [Eh]
    ---------------------

    Doubly Occupied:

       1A    -20.628847     2A    -20.527082     3A    -15.615965
       4A    -11.364692     5A    -11.332964     6A    -11.280488
       7A    -11.277881     8A    -11.246169     9A    -11.230539
      10A    -11.215105    11A     -1.472423    12A     -1.383230
      13A     -1.258344    14A     -1.082445    15A     -1.031108
      16A     -0.990471    17A     -0.954420    18A     -0.833827
      19A     -0.797003    20A     -0.754373    21A     -0.702147
      22A     -0.679140    23A     -0.673428    24A     -0.649244
      25A     -0.625947    26A     -0.592541    27A     -0.590036
      28A     -0.588040    29A     -0.567541    30A     -0.563429
      31A     -0.551638    32A     -0.539555    33A     -0.525583
      34A     -0.432336    35A     -0.429401    36A     -0.393205
      37A     -0.288878

  @DF-RHF Final Energy:  -474.63464764584427

   => Energetics <=

    Nuclear Repulsion Energy =            528.0484918270917660
    One-Electron Energy =               -1694.0273495332771745
    Two-Electron Energy =                 691.3442100603410836
    Total Energy =                       -474.6346476458443249
  Basis Set: (AUG-CC-PVTZ AUX)
    Blend: AUG-CC-PVTZ-RI
    Molecular point group: c1

    Geometry (in Angstrom), charge = 0, multiplicity = 1:

       Center              X                  Y                   Z               Mass
    ------------   -----------------  -----------------  -----------------  -----------------
         O           -1.490508866582     1.062427887161     0.093719755982    15.994914619570
         O            1.495144133418    -1.700261112839     0.046982755982    15.994914619570
         N            0.739486133418     0.453743887161    -0.077938244018    14.003074004430
         C           -0.618730866582     0.045138787161    -0.047436744018    12.000000000000
         C            0.974929133418     1.897182887161    -0.105040244018    12.000000000000
         C            1.745910133418    -0.493774112839     0.020247755982    12.000000000000
         C           -1.252011866582    -1.170476112839    -0.122705244018    12.000000000000
         C           -2.642482866582    -0.857312112839    -0.019362244018    12.000000000000
         C            3.172812133418     0.013401887161     0.081996755982    12.000000000000
         C           -2.743282866582     0.495716887161     0.107241755982    12.000000000000
         H            0.345163133418     2.350686887161    -0.871246244018     1.007825032230
         H            2.015467133418     2.090019887161    -0.350192244018     1.007825032230
         H            0.736526133418     2.355979887161     0.858993755982     1.007825032230
         H           -0.790590866582    -2.136605112839    -0.231610244018     1.007825032230
         H           -3.465927866582    -1.558414112839    -0.039359244018     1.007825032230
         H            3.328687133418     0.709946887161     0.910031755982     1.007825032230
         H            3.465881133418     0.512074887161    -0.846555244018     1.007825032230
         H            3.806041133418    -0.861628112839     0.224758755982     1.007825032230
         H           -3.562185866582     1.191267887161     0.207802755982     1.007825032230

  Basis Set: AUG-CC-PVTZ
    Blend: AUG-CC-PVTZ
  Basis Set: (AUG-CC-PVTZ AUX)
    Blend: AUG-CC-PVTZ-JKFIT
	 Reference Energy          =    -474.6346476458442680 [Eh]
	 Singles Energy            =      -0.0000000000000000 [Eh]
	 Same-Spin Energy          =      -0.4916570304737170 [Eh]
	 Opposite-Spin Energy      =      -1.5276076610311613 [Eh]
	 Correlation Energy        =      -2.0192646915048784 [Eh]
	 Total Energy              =    -476.6539123373491407 [Eh]

	 ================> DF-SCS-MP2 Energies <==================
	-----------------------------------------------------------
	 SCS Same-Spin Scale       =       0.3333333333333333 [-]
	 SCS Opposite-Spin Scale   =       1.2000000000000000 [-]
	 SCS Same-Spin Energy      =      -0.1638856768245723 [Eh]
	 SCS Opposite-Spin Energy  =      -1.8331291932373934 [Eh]
	 SCS Correlation Energy    =      -1.9970148700619657 [Eh]
	 SCS Total Energy          =    -476.6316625159062141 [Eh]
	-----------------------------------------------------------

  Dipole Moment: [D]
     X:     0.5278      Y:     3.2877      Z:    -0.1253     Total:     3.3321

*** Psi4 exiting successfully. Buy a developer a beer!
