                               Psi4 1.4a3.dev225

  ==> Input File <==

--------------------------------------------------------------------------
#psi4
#
memory 32 gb

molecule  {
0 1
  O       -1.5316190     1.0321650     0.0948010
  O        1.4540340    -1.7305240     0.0480640
  N        0.6983760     0.4234810    -0.0768570
  C       -0.5910209     0.0187337    -0.0494276
  C        0.9338190     1.8669200    -0.1039590
  C        1.7048000    -0.5240370     0.0213290
  C       -1.2931220    -1.2007390    -0.1216240
  C       -2.6835930    -0.8875750    -0.0182810
  C        3.1317020    -0.0168610     0.0830780
  C       -2.7843930     0.4654540     0.1083230
  H        0.3040530     2.3204240    -0.8701650
  H        1.9743570     2.0597570    -0.3491110
  H        0.6954160     2.3257170     0.8600750
  H       -0.8317010    -2.1668680    -0.2305290
  H       -3.5070380    -1.5886770    -0.0382780
  H        3.2875770     0.6796840     0.9111130
  H        3.4247710     0.4818120    -0.8454740
  H        3.7649310    -0.8918910     0.2258400
  H       -3.6032960     1.1610050     0.2088840
units angstrom
no_reorient  #important for SAPT in psi4, default
symmetry c1  #important for SAPT in psi4, default
}

set PROPERTIES_ORIGIN ["COM"]
properties('MP2/aug-cc-pvtz', properties = ['dipole'])
--------------------------------------------------------------------------

    Molecular point group: c1
  Charge       = 0
  Multiplicity = 1
  Basis Set: AUG-CC-PVTZ
    Blend: AUG-CC-PVTZ
  Basis Set: (AUG-CC-PVTZ AUX)
    Blend: AUG-CC-PVTZ-JKFIT

    Orbital Energies [Eh]
    ---------------------

    Doubly Occupied:

       1A    -20.620535     2A    -20.532862     3A    -15.621644
       4A    -11.369144     5A    -11.334848     6A    -11.282544
       7A    -11.277800     8A    -11.249347     9A    -11.226812
      10A    -11.216728    11A     -1.451970    12A     -1.389922
      13A     -1.277442    14A     -1.070631    15A     -1.036378
      16A     -0.992318    17A     -0.955983    18A     -0.844969
      19A     -0.791034    20A     -0.744990    21A     -0.705600
      22A     -0.683428    23A     -0.676539    24A     -0.651914
      25A     -0.619025    26A     -0.595255    27A     -0.593475
      28A     -0.590934    29A     -0.569477    30A     -0.554350
      31A     -0.549444    32A     -0.535148    33A     -0.530315
      34A     -0.441460    35A     -0.435751    36A     -0.387446
      37A     -0.278442

  @DF-RHF Final Energy:  -474.62826272682713

   => Energetics <=

    Nuclear Repulsion Energy =            528.0540102106601807
    One-Electron Energy =               -1693.9927408962603295
    Two-Electron Energy =                 691.3104679587730743
    Total Energy =                       -474.6282627268270744
  Basis Set: (AUG-CC-PVTZ AUX)
    Blend: AUG-CC-PVTZ-RI
    Molecular point group: c1

    Geometry (in Angstrom), charge = 0, multiplicity = 1:

       Center              X                  Y                   Z               Mass
    ------------   -----------------  -----------------  -----------------  -----------------
         O           -1.496447464548     1.062094991347     0.093984852470    15.994914619570
         O            1.489205535452    -1.700594008653     0.047247852470    15.994914619570
         N            0.733547535452     0.453410991347    -0.077673147530    14.003074004430
         C           -0.555849364548     0.048663691347    -0.050243747530    12.000000000000
         C            0.968990535452     1.896849991347    -0.104775147530    12.000000000000
         C            1.739971535452    -0.494107008653     0.020512852470    12.000000000000
         C           -1.257950464548    -1.170809008653    -0.122440147530    12.000000000000
         C           -2.648421464548    -0.857645008653    -0.019097147530    12.000000000000
         C            3.166873535452     0.013068991347     0.082261852470    12.000000000000
         C           -2.749221464548     0.495383991347     0.107506852470    12.000000000000
         H            0.339224535452     2.350353991347    -0.870981147530     1.007825032230
         H            2.009528535452     2.089686991347    -0.349927147530     1.007825032230
         H            0.730587535452     2.355646991347     0.859258852470     1.007825032230
         H           -0.796529464548    -2.136938008653    -0.231345147530     1.007825032230
         H           -3.471866464548    -1.558747008653    -0.039094147530     1.007825032230
         H            3.322748535452     0.709613991347     0.910296852470     1.007825032230
         H            3.459942535452     0.511741991347    -0.846290147530     1.007825032230
         H            3.800102535452    -0.861961008653     0.225023852470     1.007825032230
         H           -3.568124464548     1.190934991347     0.208067852470     1.007825032230

  Basis Set: AUG-CC-PVTZ
    Blend: AUG-CC-PVTZ
  Basis Set: (AUG-CC-PVTZ AUX)
    Blend: AUG-CC-PVTZ-JKFIT
	 Reference Energy          =    -474.6282627268271312 [Eh]
	 Singles Energy            =      -0.0000000000000000 [Eh]
	 Same-Spin Energy          =      -0.4930283869337305 [Eh]
	 Opposite-Spin Energy      =      -1.5297819242288928 [Eh]
	 Correlation Energy        =      -2.0228103111626234 [Eh]
	 Total Energy              =    -476.6510730379897609 [Eh]

	 ================> DF-SCS-MP2 Energies <==================
	-----------------------------------------------------------
	 SCS Same-Spin Scale       =       0.3333333333333333 [-]
	 SCS Opposite-Spin Scale   =       1.2000000000000000 [-]
	 SCS Same-Spin Energy      =      -0.1643427956445768 [Eh]
	 SCS Opposite-Spin Energy  =      -1.8357383090746713 [Eh]
	 SCS Correlation Energy    =      -2.0000811047192482 [Eh]
	 SCS Total Energy          =    -476.6283438315463741 [Eh]
	-----------------------------------------------------------

  Dipole Moment: [D]
     X:     0.9125      Y:     3.3601      Z:    -0.1306     Total:     3.4842

*** Psi4 exiting successfully. Buy a developer a beer!
