                               Psi4 1.3.2 release

  ==> Input File <==

--------------------------------------------------------------------------
#psi4
#
memory 32 gb

molecule  {
0 1
  O       -1.5316190     1.0321650     0.0948010
  O        1.4540340    -1.7305240     0.0480640
  N        0.6983760     0.4234810    -0.0768570
  C       -0.6031104     0.0356359    -0.0473269
  C        0.9338190     1.8669200    -0.1039590
  C        1.7048000    -0.5240370     0.0213290
  C       -1.2931220    -1.2007390    -0.1216240
  C       -2.6835930    -0.8875750    -0.0182810
  C        3.1317020    -0.0168610     0.0830780
  C       -2.7843930     0.4654540     0.1083230
  H        0.3040530     2.3204240    -0.8701650
  H        1.9743570     2.0597570    -0.3491110
  H        0.6954160     2.3257170     0.8600750
  H       -0.8317010    -2.1668680    -0.2305290
  H       -3.5070380    -1.5886770    -0.0382780
  H        3.2875770     0.6796840     0.9111130
  H        3.4247710     0.4818120    -0.8454740
  H        3.7649310    -0.8918910     0.2258400
  H       -3.6032960     1.1610050     0.2088840
units angstrom
no_reorient  #important for SAPT in psi4, default
symmetry c1  #important for SAPT in psi4, default
}

set PROPERTIES_ORIGIN ["COM"]
properties('MP2/aug-cc-pvtz', properties = ['dipole'])
--------------------------------------------------------------------------

    Molecular point group: c1
  Charge       = 0
  Multiplicity = 1
  Basis Set: AUG-CC-PVTZ
    Blend: AUG-CC-PVTZ
  Basis Set: (AUG-CC-PVTZ AUX)
    Blend: AUG-CC-PVTZ-JKFIT

    Orbital Energies [Eh]
    ---------------------

    Doubly Occupied:

       1A    -20.624123     2A    -20.532303     3A    -15.621201
       4A    -11.369035     5A    -11.335675     6A    -11.282019
       7A    -11.277184     8A    -11.249270     9A    -11.227504
      10A    -11.216435    11A     -1.460289    12A     -1.389243
      13A     -1.275892    14A     -1.070694    15A     -1.036266
      16A     -0.991973    17A     -0.956299    18A     -0.843782
      19A     -0.792978    20A     -0.747416    21A     -0.705296
      22A     -0.683313    23A     -0.677181    24A     -0.652938
      25A     -0.621942    26A     -0.595447    27A     -0.593626
      28A     -0.590992    29A     -0.569567    30A     -0.554134
      31A     -0.551150    32A     -0.534695    33A     -0.529591
      34A     -0.439892    35A     -0.435222    36A     -0.387931
      37A     -0.277787

  @DF-RHF Final Energy:  -474.62908240816893

   => Energetics <=

    Nuclear Repulsion Energy =            528.1158124571001053
    One-Electron Energy =               -1694.0892148913903839
    Two-Electron Energy =                 691.3443200261211814
    Total Energy =                       -474.6290824081689834
  Basis Set: (AUG-CC-PVTZ AUX)
    Blend: AUG-CC-PVTZ-RI
    Molecular point group: c1

    Geometry (in Angstrom), charge = 0, multiplicity = 1:

       Center              X                  Y                   Z               Mass
    ------------   -----------------  -----------------  -----------------  -----------------
         O           -1.495404242000     1.060636473115     0.093803579662    15.994914619570
         O            1.490248758000    -1.702052526885     0.047066579662    15.994914619570
         N            0.734590758000     0.451952473115    -0.077854420338    14.003074004430
         C           -0.566895642000     0.064107373115    -0.048324320338    12.000000000000
         C            0.970033758000     1.895391473115    -0.104956420338    12.000000000000
         C            1.741014758000    -0.495565526885     0.020331579662    12.000000000000
         C           -1.256907242000    -1.172267526885    -0.122621420338    12.000000000000
         C           -2.647378242000    -0.859103526885    -0.019278420338    12.000000000000
         C            3.167916758000     0.011610473115     0.082080579662    12.000000000000
         C           -2.748178242000     0.493925473115     0.107325579662    12.000000000000
         H            0.340267758000     2.348895473115    -0.871162420338     1.007825032230
         H            2.010571758000     2.088228473115    -0.350108420338     1.007825032230
         H            0.731630758000     2.354188473115     0.859077579662     1.007825032230
         H           -0.795486242000    -2.138396526885    -0.231526420338     1.007825032230
         H           -3.470823242000    -1.560205526885    -0.039275420338     1.007825032230
         H            3.323791758000     0.708155473115     0.910115579662     1.007825032230
         H            3.460985758000     0.510283473115    -0.846471420338     1.007825032230
         H            3.801145758000    -0.863419526885     0.224842579662     1.007825032230
         H           -3.567081242000     1.189476473115     0.207886579662     1.007825032230

  Basis Set: AUG-CC-PVTZ
    Blend: AUG-CC-PVTZ
  Basis Set: (AUG-CC-PVTZ AUX)
    Blend: AUG-CC-PVTZ-JKFIT
	 Reference Energy          =    -474.6290824081689266 [Eh]
	 Singles Energy            =      -0.0000000000000000 [Eh]
	 Same-Spin Energy          =      -0.4929898620506957 [Eh]
	 Opposite-Spin Energy      =      -1.5293838783581775 [Eh]
	 Correlation Energy        =      -2.0223737404088733 [Eh]
	 Total Energy              =    -476.6514561485777790 [Eh]

	 ================> DF-SCS-MP2 Energies <==================
	-----------------------------------------------------------
	 SCS Same-Spin Scale       =       0.3333333333333333 [-]
	 SCS Opposite-Spin Scale   =       1.2000000000000000 [-]
	 SCS Same-Spin Energy      =      -0.1643299540168986 [Eh]
	 SCS Opposite-Spin Energy  =      -1.8352606540298129 [Eh]
	 SCS Correlation Energy    =      -1.9995906080467114 [Eh]
	 SCS Total Energy          =    -476.6286730162156573 [Eh]
	-----------------------------------------------------------

  Dipole Moment: [D]
     X:     0.8605      Y:     3.3806      Z:    -0.1245     Total:     3.4906

*** Psi4 exiting successfully. Buy a developer a beer!
