                               Psi4 1.3.2 release

  ==> Input File <==

--------------------------------------------------------------------------
#psi4
#
memory 32 gb

molecule  {
0 1
  O       -1.5316190     1.0321650     0.0948010
  O        1.4540340    -1.7305240     0.0480640
  N        0.7054181     0.4001731    -0.0792323
  C       -0.6387160     0.0037620    -0.0484130
  C        0.9338190     1.8669200    -0.1039590
  C        1.7048000    -0.5240370     0.0213290
  C       -1.2931220    -1.2007390    -0.1216240
  C       -2.6835930    -0.8875750    -0.0182810
  C        3.1317020    -0.0168610     0.0830780
  C       -2.7843930     0.4654540     0.1083230
  H        0.3040530     2.3204240    -0.8701650
  H        1.9743570     2.0597570    -0.3491110
  H        0.6954160     2.3257170     0.8600750
  H       -0.8317010    -2.1668680    -0.2305290
  H       -3.5070380    -1.5886770    -0.0382780
  H        3.2875770     0.6796840     0.9111130
  H        3.4247710     0.4818120    -0.8454740
  H        3.7649310    -0.8918910     0.2258400
  H       -3.6032960     1.1610050     0.2088840
units angstrom
no_reorient  #important for SAPT in psi4, default
symmetry c1  #important for SAPT in psi4, default
}

set PROPERTIES_ORIGIN ["COM"]
properties('MP2/aug-cc-pvtz', properties = ['dipole'])
--------------------------------------------------------------------------

    Molecular point group: c1
  Charge       = 0
  Multiplicity = 1
  Basis Set: AUG-CC-PVTZ
    Blend: AUG-CC-PVTZ
  Basis Set: (AUG-CC-PVTZ AUX)
    Blend: AUG-CC-PVTZ-JKFIT

    Orbital Energies [Eh]
    ---------------------

    Doubly Occupied:

       1A    -20.626120     2A    -20.523980     3A    -15.618261
       4A    -11.361820     5A    -11.332680     6A    -11.281583
       7A    -11.281297     8A    -11.245928     9A    -11.229668
      10A    -11.215662    11A     -1.462760    12A     -1.384387
      13A     -1.261490    14A     -1.080561    15A     -1.032113
      16A     -0.988635    17A     -0.958426    18A     -0.837844
      19A     -0.796863    20A     -0.751155    21A     -0.700139
      22A     -0.678811    23A     -0.672652    24A     -0.649799
      25A     -0.623246    26A     -0.593175    27A     -0.590745
      28A     -0.586144    29A     -0.565847    30A     -0.562360
      31A     -0.550421    32A     -0.539225    33A     -0.528525
      34A     -0.433859    35A     -0.429658    36A     -0.392214
      37A     -0.288540

  @DF-RHF Final Energy:  -474.63434539555800

   => Energetics <=

    Nuclear Repulsion Energy =            528.1034882434666997
    One-Electron Energy =               -1694.1624760983891065
    Two-Electron Energy =                 691.4246424593644633
    Total Energy =                       -474.6343453955579434
  Basis Set: (AUG-CC-PVTZ AUX)
    Blend: AUG-CC-PVTZ-RI
    Molecular point group: c1

    Geometry (in Angstrom), charge = 0, multiplicity = 1:

       Center              X                  Y                   Z               Mass
    ------------   -----------------  -----------------  -----------------  -----------------
         O           -1.493040885995     1.065733928038     0.094136483399    15.994914619570
         O            1.492612114005    -1.696955071962     0.047399483399    15.994914619570
         N            0.743996214005     0.433742028038    -0.079896816601    14.003074004430
         C           -0.600137885995     0.037330928038    -0.049077516601    12.000000000000
         C            0.972397114005     1.900488928038    -0.104623516601    12.000000000000
         C            1.743378114005    -0.490468071962     0.020664483399    12.000000000000
         C           -1.254543885995    -1.167170071962    -0.122288516601    12.000000000000
         C           -2.645014885995    -0.854006071962    -0.018945516601    12.000000000000
         C            3.170280114005     0.016707928038     0.082413483399    12.000000000000
         C           -2.745814885995     0.499022928038     0.107658483399    12.000000000000
         H            0.342631114005     2.353992928038    -0.870829516601     1.007825032230
         H            2.012935114005     2.093325928038    -0.349775516601     1.007825032230
         H            0.733994114005     2.359285928038     0.859410483399     1.007825032230
         H           -0.793122885995    -2.133299071962    -0.231193516601     1.007825032230
         H           -3.468459885995    -1.555108071962    -0.038942516601     1.007825032230
         H            3.326155114005     0.713252928038     0.910448483399     1.007825032230
         H            3.463349114005     0.515380928038    -0.846138516601     1.007825032230
         H            3.803509114005    -0.858322071962     0.225175483399     1.007825032230
         H           -3.564717885995     1.194573928038     0.208219483399     1.007825032230

  Basis Set: AUG-CC-PVTZ
    Blend: AUG-CC-PVTZ
  Basis Set: (AUG-CC-PVTZ AUX)
    Blend: AUG-CC-PVTZ-JKFIT
	 Reference Energy          =    -474.6343453955580003 [Eh]
	 Singles Energy            =      -0.0000000000000000 [Eh]
	 Same-Spin Energy          =      -0.4917014127367645 [Eh]
	 Opposite-Spin Energy      =      -1.5279120873046759 [Eh]
	 Correlation Energy        =      -2.0196135000414404 [Eh]
	 Total Energy              =    -476.6539588955994304 [Eh]

	 ================> DF-SCS-MP2 Energies <==================
	-----------------------------------------------------------
	 SCS Same-Spin Scale       =       0.3333333333333333 [-]
	 SCS Opposite-Spin Scale   =       1.2000000000000000 [-]
	 SCS Same-Spin Energy      =      -0.1639004709122548 [Eh]
	 SCS Opposite-Spin Energy  =      -1.8334945047656110 [Eh]
	 SCS Correlation Energy    =      -1.9973949756778659 [Eh]
	 SCS Total Energy          =    -476.6317403712358782 [Eh]
	-----------------------------------------------------------

  Dipole Moment: [D]
     X:     0.5418      Y:     3.3920      Z:    -0.1305     Total:     3.4375

*** Psi4 exiting successfully. Buy a developer a beer!
