                               Psi4 1.3.2 release

  ==> Input File <==

--------------------------------------------------------------------------
#psi4
#
memory 32 gb

molecule  {
0 1
  O       -1.4949193     1.0627747     0.0958322
  O        1.4540340    -1.7305240     0.0480640
  N        0.6983760     0.4234810    -0.0768570
  C       -0.6387160     0.0037620    -0.0484130
  C        0.9338190     1.8669200    -0.1039590
  C        1.7048000    -0.5240370     0.0213290
  C       -1.2931220    -1.2007390    -0.1216240
  C       -2.6835930    -0.8875750    -0.0182810
  C        3.1317020    -0.0168610     0.0830780
  C       -2.7843930     0.4654540     0.1083230
  H        0.3040530     2.3204240    -0.8701650
  H        1.9743570     2.0597570    -0.3491110
  H        0.6954160     2.3257170     0.8600750
  H       -0.8317010    -2.1668680    -0.2305290
  H       -3.5070380    -1.5886770    -0.0382780
  H        3.2875770     0.6796840     0.9111130
  H        3.4247710     0.4818120    -0.8454740
  H        3.7649310    -0.8918910     0.2258400
  H       -3.6032960     1.1610050     0.2088840
units angstrom
no_reorient  #important for SAPT in psi4, default
symmetry c1  #important for SAPT in psi4, default
}

set PROPERTIES_ORIGIN ["COM"]
properties('MP2/aug-cc-pvtz', properties = ['dipole'])
--------------------------------------------------------------------------

    Molecular point group: c1
  Charge       = 0
  Multiplicity = 1
  Basis Set: AUG-CC-PVTZ
    Blend: AUG-CC-PVTZ
  Basis Set: (AUG-CC-PVTZ AUX)
    Blend: AUG-CC-PVTZ-JKFIT

    Orbital Energies [Eh]
    ---------------------

    Doubly Occupied:

       1A    -20.623806     2A    -20.528291     3A    -15.616141
       4A    -11.364977     5A    -11.334394     6A    -11.283291
       7A    -11.277710     8A    -11.246262     9A    -11.235012
      10A    -11.215734    11A     -1.449850    12A     -1.384082
      13A     -1.260440    14A     -1.084044    15A     -1.030030
      16A     -0.988332    17A     -0.951347    18A     -0.836397
      19A     -0.792085    20A     -0.749257    21A     -0.701055
      22A     -0.678938    23A     -0.671082    24A     -0.642667
      25A     -0.617424    26A     -0.591883    27A     -0.588863
      28A     -0.588524    29A     -0.566425    30A     -0.562642
      31A     -0.549707    32A     -0.543837    33A     -0.526256
      34A     -0.433345    35A     -0.430650    36A     -0.396704
      37A     -0.288118

  @DF-RHF Final Energy:  -474.63045984034568

   => Energetics <=

    Nuclear Repulsion Energy =            527.4607137058616217
    One-Electron Energy =               -1692.9231475453325402
    Two-Electron Energy =                 690.8319739991253527
    Total Energy =                       -474.6304598403456794
  Basis Set: (AUG-CC-PVTZ AUX)
    Blend: AUG-CC-PVTZ-RI
    Molecular point group: c1

    Geometry (in Angstrom), charge = 0, multiplicity = 1:

       Center              X                  Y                   Z               Mass
    ------------   -----------------  -----------------  -----------------  -----------------
         O           -1.459853237129     1.090475928802     0.094809893475    15.994914619570
         O            1.489100062871    -1.702822771198     0.047041693475    15.994914619570
         N            0.733442062871     0.451182228802    -0.077879306525    14.003074004430
         C           -0.603649937129     0.031463228802    -0.049435306525    12.000000000000
         C            0.968885062871     1.894621228802    -0.104981306525    12.000000000000
         C            1.739866062871    -0.496335771198     0.020306693475    12.000000000000
         C           -1.258055937129    -1.173037771198    -0.122646306525    12.000000000000
         C           -2.648526937129    -0.859873771198    -0.019303306525    12.000000000000
         C            3.166768062871     0.010840228802     0.082055693475    12.000000000000
         C           -2.749326937129     0.493155228802     0.107300693475    12.000000000000
         H            0.339119062871     2.348125228802    -0.871187306525     1.007825032230
         H            2.009423062871     2.087458228802    -0.350133306525     1.007825032230
         H            0.730482062871     2.353418228802     0.859052693475     1.007825032230
         H           -0.796634937129    -2.139166771198    -0.231551306525     1.007825032230
         H           -3.471971937129    -1.560975771198    -0.039300306525     1.007825032230
         H            3.322643062871     0.707385228802     0.910090693475     1.007825032230
         H            3.459837062871     0.509513228802    -0.846496306525     1.007825032230
         H            3.799997062871    -0.864189771198     0.224817693475     1.007825032230
         H           -3.568229937129     1.188706228802     0.207861693475     1.007825032230

  Basis Set: AUG-CC-PVTZ
    Blend: AUG-CC-PVTZ
  Basis Set: (AUG-CC-PVTZ AUX)
    Blend: AUG-CC-PVTZ-JKFIT
	 Reference Energy          =    -474.6304598403456794 [Eh]
	 Singles Energy            =      -0.0000000000000000 [Eh]
	 Same-Spin Energy          =      -0.4919906126112146 [Eh]
	 Opposite-Spin Energy      =      -1.5295274804918968 [Eh]
	 Correlation Energy        =      -2.0215180931031114 [Eh]
	 Total Energy              =    -476.6519779334487907 [Eh]

	 ================> DF-SCS-MP2 Energies <==================
	-----------------------------------------------------------
	 SCS Same-Spin Scale       =       0.3333333333333333 [-]
	 SCS Opposite-Spin Scale   =       1.2000000000000000 [-]
	 SCS Same-Spin Energy      =      -0.1639968708704048 [Eh]
	 SCS Opposite-Spin Energy  =      -1.8354329765902762 [Eh]
	 SCS Correlation Energy    =      -1.9994298474606811 [Eh]
	 SCS Total Energy          =    -476.6298896878063829 [Eh]
	-----------------------------------------------------------

  Dipole Moment: [D]
     X:     0.5275      Y:     3.1611      Z:    -0.1378     Total:     3.2078

*** Psi4 exiting successfully. Buy a developer a beer!
