                               Psi4 1.3.2 release

  ==> Input File <==

--------------------------------------------------------------------------
#psi4
#
memory 32 gb

molecule  {
0 1
  O       -1.5316190     1.0321650     0.0948010
  O        1.4540340    -1.7305240     0.0480640
  N        0.6983760     0.4234810    -0.0768570
  C       -0.5163732    -0.0704999    -0.0612041
  C        0.9338190     1.8669200    -0.1039590
  C        1.7048000    -0.5240370     0.0213290
  C       -1.2931220    -1.2007390    -0.1216240
  C       -2.6835930    -0.8875750    -0.0182810
  C        3.1317020    -0.0168610     0.0830780
  C       -2.7843930     0.4654540     0.1083230
  H        0.3040530     2.3204240    -0.8701650
  H        1.9743570     2.0597570    -0.3491110
  H        0.6954160     2.3257170     0.8600750
  H       -0.8317010    -2.1668680    -0.2305290
  H       -3.5070380    -1.5886770    -0.0382780
  H        3.2875770     0.6796840     0.9111130
  H        3.4247710     0.4818120    -0.8454740
  H        3.7649310    -0.8918910     0.2258400
  H       -3.6032960     1.1610050     0.2088840
units angstrom
no_reorient  #important for SAPT in psi4, default
symmetry c1  #important for SAPT in psi4, default
}

set PROPERTIES_ORIGIN ["COM"]
properties('MP2/aug-cc-pvtz', properties = ['dipole'])
--------------------------------------------------------------------------

    Molecular point group: c1
  Charge       = 0
  Multiplicity = 1
  Basis Set: AUG-CC-PVTZ
    Blend: AUG-CC-PVTZ
  Basis Set: (AUG-CC-PVTZ AUX)
    Blend: AUG-CC-PVTZ-JKFIT

    Orbital Energies [Eh]
    ---------------------

    Doubly Occupied:

       1A    -20.599592     2A    -20.537287     3A    -15.625423
       4A    -11.371132     5A    -11.333813     6A    -11.286543
       7A    -11.279591     8A    -11.250605     9A    -11.222439
      10A    -11.218749    11A     -1.417552    12A     -1.390756
      13A     -1.288386    14A     -1.070546    15A     -1.037728
      16A     -0.996069    17A     -0.955091    18A     -0.852490
      19A     -0.783212    20A     -0.732332    21A     -0.708418
      22A     -0.686614    23A     -0.677325    24A     -0.646646
      25A     -0.606967    26A     -0.596436    27A     -0.594489
      28A     -0.587120    29A     -0.572213    30A     -0.551564
      31A     -0.547736    32A     -0.536360    33A     -0.515413
      34A     -0.451376    35A     -0.439338    36A     -0.384500
      37A     -0.279552

  @DF-RHF Final Energy:  -474.60782858892850

   => Energetics <=

    Nuclear Repulsion Energy =            527.8150781560027553
    One-Electron Energy =               -1693.5830010443721676
    Two-Electron Energy =                 691.1600942994409706
    Total Energy =                       -474.6078285889284416
  Basis Set: (AUG-CC-PVTZ AUX)
    Blend: AUG-CC-PVTZ-RI
    Molecular point group: c1

    Geometry (in Angstrom), charge = 0, multiplicity = 1:

       Center              X                  Y                   Z               Mass
    ------------   -----------------  -----------------  -----------------  -----------------
         O           -1.502888935563     1.069795103312     0.095001065741    15.994914619570
         O            1.482764064437    -1.692893896688     0.048264065741    15.994914619570
         N            0.727106064437     0.461111103312    -0.076656934259    14.003074004430
         C           -0.487643135563    -0.032869796688    -0.061004034259    12.000000000000
         C            0.962549064437     1.904550103312    -0.103758934259    12.000000000000
         C            1.733530064437    -0.486406896688     0.021529065741    12.000000000000
         C           -1.264391935563    -1.163108896688    -0.121423934259    12.000000000000
         C           -2.654862935563    -0.849944896688    -0.018080934259    12.000000000000
         C            3.160432064437     0.020769103312     0.083278065741    12.000000000000
         C           -2.755662935563     0.503084103312     0.108523065741    12.000000000000
         H            0.332783064437     2.358054103312    -0.869964934259     1.007825032230
         H            2.003087064437     2.097387103312    -0.348910934259     1.007825032230
         H            0.724146064437     2.363347103312     0.860275065741     1.007825032230
         H           -0.802970935563    -2.129237896688    -0.230328934259     1.007825032230
         H           -3.478307935563    -1.551046896688    -0.038077934259     1.007825032230
         H            3.316307064437     0.717314103312     0.911313065741     1.007825032230
         H            3.453501064437     0.519442103312    -0.845273934259     1.007825032230
         H            3.793661064437    -0.854260896688     0.226040065741     1.007825032230
         H           -3.574565935563     1.198635103312     0.209084065741     1.007825032230

  Basis Set: AUG-CC-PVTZ
    Blend: AUG-CC-PVTZ
  Basis Set: (AUG-CC-PVTZ AUX)
    Blend: AUG-CC-PVTZ-JKFIT
	 Reference Energy          =    -474.6078285889284984 [Eh]
	 Singles Energy            =      -0.0000000000000000 [Eh]
	 Same-Spin Energy          =      -0.4939002810750146 [Eh]
	 Opposite-Spin Energy      =      -1.5328565431197201 [Eh]
	 Correlation Energy        =      -2.0267568241947345 [Eh]
	 Total Energy              =    -476.6345854131232045 [Eh]

	 ================> DF-SCS-MP2 Energies <==================
	-----------------------------------------------------------
	 SCS Same-Spin Scale       =       0.3333333333333333 [-]
	 SCS Opposite-Spin Scale   =       1.2000000000000000 [-]
	 SCS Same-Spin Energy      =      -0.1646334270250049 [Eh]
	 SCS Opposite-Spin Energy  =      -1.8394278517436640 [Eh]
	 SCS Correlation Energy    =      -2.0040612787686687 [Eh]
	 SCS Total Energy          =    -476.6118898676971867 [Eh]
	-----------------------------------------------------------

  Dipole Moment: [D]
     X:     1.2779      Y:     3.2738      Z:    -0.1617     Total:     3.5181

*** Psi4 exiting successfully. Buy a developer a beer!
