                               Psi4 1.3.2 release

  ==> Input File <==

--------------------------------------------------------------------------
#psi4
#
memory 32 gb

molecule  {
0 1
  O       -1.6349734     0.9328960     0.0915150
  O        1.4540340    -1.7305240     0.0480640
  N        0.6983760     0.4234810    -0.0768570
  C       -0.6387160     0.0037620    -0.0484130
  C        0.9338190     1.8669200    -0.1039590
  C        1.7048000    -0.5240370     0.0213290
  C       -1.2931220    -1.2007390    -0.1216240
  C       -2.6835930    -0.8875750    -0.0182810
  C        3.1317020    -0.0168610     0.0830780
  C       -2.7843930     0.4654540     0.1083230
  H        0.3040530     2.3204240    -0.8701650
  H        1.9743570     2.0597570    -0.3491110
  H        0.6954160     2.3257170     0.8600750
  H       -0.8317010    -2.1668680    -0.2305290
  H       -3.5070380    -1.5886770    -0.0382780
  H        3.2875770     0.6796840     0.9111130
  H        3.4247710     0.4818120    -0.8454740
  H        3.7649310    -0.8918910     0.2258400
  H       -3.6032960     1.1610050     0.2088840
units angstrom
no_reorient  #important for SAPT in psi4, default
symmetry c1  #important for SAPT in psi4, default
}

set PROPERTIES_ORIGIN ["COM"]
properties('MP2/aug-cc-pvtz', properties = ['dipole'])
--------------------------------------------------------------------------

    Molecular point group: c1
  Charge       = 0
  Multiplicity = 1
  Basis Set: AUG-CC-PVTZ
    Blend: AUG-CC-PVTZ
  Basis Set: (AUG-CC-PVTZ AUX)
    Blend: AUG-CC-PVTZ-JKFIT

    Orbital Energies [Eh]
    ---------------------

    Doubly Occupied:

       1A    -20.626937     2A    -20.528636     3A    -15.620703
       4A    -11.366902     5A    -11.326705     6A    -11.282646
       7A    -11.273710     8A    -11.248088     9A    -11.215151
      10A    -11.210939    11A     -1.511822    12A     -1.386363
      13A     -1.267826    14A     -1.072348    15A     -1.038861
      16A     -0.999884    17A     -0.965193    18A     -0.834645
      19A     -0.809357    20A     -0.752153    21A     -0.712022
      22A     -0.686766    23A     -0.680228    24A     -0.668560
      25A     -0.641341    26A     -0.596299    27A     -0.591847
      28A     -0.588624    29A     -0.565991    30A     -0.562360
      31A     -0.546009    32A     -0.529969    33A     -0.521937
      34A     -0.439035    35A     -0.432500    36A     -0.377618
      37A     -0.285106

  @DF-RHF Final Energy:  -474.61865884016976

   => Energetics <=

    Nuclear Repulsion Energy =            530.0294482260140967
    One-Electron Energy =               -1697.7660525473520465
    Two-Electron Energy =                 693.1179454811681353
    Total Energy =                       -474.6186588401697009
  Basis Set: (AUG-CC-PVTZ AUX)
    Blend: AUG-CC-PVTZ-RI
    Molecular point group: c1

    Geometry (in Angstrom), charge = 0, multiplicity = 1:

       Center              X                  Y                   Z               Mass
    ------------   -----------------  -----------------  -----------------  -----------------
         O           -1.583798465040     0.975535737317     0.090989253180    15.994914619570
         O            1.505208934960    -1.687884262683     0.047538253180    15.994914619570
         N            0.749550934960     0.466120737317    -0.077382746820    14.003074004430
         C           -0.587541065040     0.046401737317    -0.048938746820    12.000000000000
         C            0.984993934960     1.909559737317    -0.104484746820    12.000000000000
         C            1.755974934960    -0.481397262683     0.020803253180    12.000000000000
         C           -1.241947065040    -1.158099262683    -0.122149746820    12.000000000000
         C           -2.632418065040    -0.844935262683    -0.018806746820    12.000000000000
         C            3.182876934960     0.025778737317     0.082552253180    12.000000000000
         C           -2.733218065040     0.508093737317     0.107797253180    12.000000000000
         H            0.355227934960     2.363063737317    -0.870690746820     1.007825032230
         H            2.025531934960     2.102396737317    -0.349636746820     1.007825032230
         H            0.746590934960     2.368356737317     0.859549253180     1.007825032230
         H           -0.780526065040    -2.124228262683    -0.231054746820     1.007825032230
         H           -3.455863065040    -1.546037262683    -0.038803746820     1.007825032230
         H            3.338751934960     0.722323737317     0.910587253180     1.007825032230
         H            3.475945934960     0.524451737317    -0.845999746820     1.007825032230
         H            3.816105934960    -0.849251262683     0.225314253180     1.007825032230
         H           -3.552121065040     1.203644737317     0.208358253180     1.007825032230

  Basis Set: AUG-CC-PVTZ
    Blend: AUG-CC-PVTZ
  Basis Set: (AUG-CC-PVTZ AUX)
    Blend: AUG-CC-PVTZ-JKFIT
	 Reference Energy          =    -474.6186588401697577 [Eh]
	 Singles Energy            =      -0.0000000000000000 [Eh]
	 Same-Spin Energy          =      -0.4920748765823545 [Eh]
	 Opposite-Spin Energy      =      -1.5250184835306446 [Eh]
	 Correlation Energy        =      -2.0170933601129990 [Eh]
	 Total Energy              =    -476.6357522002827523 [Eh]

	 ================> DF-SCS-MP2 Energies <==================
	-----------------------------------------------------------
	 SCS Same-Spin Scale       =       0.3333333333333333 [-]
	 SCS Opposite-Spin Scale   =       1.2000000000000000 [-]
	 SCS Same-Spin Energy      =      -0.1640249588607848 [Eh]
	 SCS Opposite-Spin Energy  =      -1.8300221802367735 [Eh]
	 SCS Correlation Energy    =      -1.9940471390975585 [Eh]
	 SCS Total Energy          =    -476.6127059792673322 [Eh]
	-----------------------------------------------------------

  Dipole Moment: [D]
     X:     0.9386      Y:     3.7204      Z:    -0.1023     Total:     3.8383

*** Psi4 exiting successfully. Buy a developer a beer!
