                               Psi4 1.3.2 release

  ==> Input File <==

--------------------------------------------------------------------------
#psi4
#
memory 32 gb

molecule  {
0 1
  O       -1.5316190     1.0321650     0.0948010
  O        1.4540340    -1.7305240     0.0480640
  N        0.6983760     0.4234810    -0.0768570
  C       -0.6177904    -0.0077188    -0.0504928
  C        0.9338190     1.8669200    -0.1039590
  C        1.7048000    -0.5240370     0.0213290
  C       -1.2931220    -1.2007390    -0.1216240
  C       -2.6835930    -0.8875750    -0.0182810
  C        3.1317020    -0.0168610     0.0830780
  C       -2.7843930     0.4654540     0.1083230
  H        0.3040530     2.3204240    -0.8701650
  H        1.9743570     2.0597570    -0.3491110
  H        0.6954160     2.3257170     0.8600750
  H       -0.8317010    -2.1668680    -0.2305290
  H       -3.5070380    -1.5886770    -0.0382780
  H        3.2875770     0.6796840     0.9111130
  H        3.4247710     0.4818120    -0.8454740
  H        3.7649310    -0.8918910     0.2258400
  H       -3.6032960     1.1610050     0.2088840
units angstrom
no_reorient  #important for SAPT in psi4, default
symmetry c1  #important for SAPT in psi4, default
}

set PROPERTIES_ORIGIN ["COM"]
properties('MP2/aug-cc-pvtz', properties = ['dipole'])
--------------------------------------------------------------------------

    Molecular point group: c1
  Charge       = 0
  Multiplicity = 1
  Basis Set: AUG-CC-PVTZ
    Blend: AUG-CC-PVTZ
  Basis Set: (AUG-CC-PVTZ AUX)
    Blend: AUG-CC-PVTZ-JKFIT

    Orbital Energies [Eh]
    ---------------------

    Doubly Occupied:

       1A    -20.620807     2A    -20.529910     3A    -15.618776
       4A    -11.366460     5A    -11.332203     6A    -11.280431
       7A    -11.280233     8A    -11.247422     9A    -11.228136
      10A    -11.215942    11A     -1.452499    12A     -1.386586
      13A     -1.267007    14A     -1.078156    15A     -1.032895
      16A     -0.991042    17A     -0.955308    18A     -0.838694
      19A     -0.792870    20A     -0.747376    21A     -0.703629
      22A     -0.680754    23A     -0.672774    24A     -0.648850
      25A     -0.619500    26A     -0.593293    27A     -0.590233
      28A     -0.588970    29A     -0.567290    30A     -0.560093
      31A     -0.549027    32A     -0.540132    33A     -0.528518
      34A     -0.437311    35A     -0.432958    36A     -0.390517
      37A     -0.286252

  @DF-RHF Final Energy:  -474.63286363437498

   => Energetics <=

    Nuclear Repulsion Energy =            527.9395608638471913
    One-Electron Energy =               -1693.8391426127629984
    Two-Electron Energy =                 691.2667181145408222
    Total Energy =                       -474.6328636343749849
  Basis Set: (AUG-CC-PVTZ AUX)
    Blend: AUG-CC-PVTZ-RI
    Molecular point group: c1

    Geometry (in Angstrom), charge = 0, multiplicity = 1:

       Center              X                  Y                   Z               Mass
    ------------   -----------------  -----------------  -----------------  -----------------
         O           -1.494137481008     1.064377620444     0.094076770304    15.994914619570
         O            1.491515518992    -1.698311379556     0.047339770304    15.994914619570
         N            0.735857518992     0.455693620444    -0.077581229696    14.003074004430
         C           -0.580308881008     0.024493820444    -0.051217029696    12.000000000000
         C            0.971300518992     1.899132620444    -0.104683229696    12.000000000000
         C            1.742281518992    -0.491824379556     0.020604770304    12.000000000000
         C           -1.255640481008    -1.168526379556    -0.122348229696    12.000000000000
         C           -2.646111481008    -0.855362379556    -0.019005229696    12.000000000000
         C            3.169183518992     0.015351620444     0.082353770304    12.000000000000
         C           -2.746911481008     0.497666620444     0.107598770304    12.000000000000
         H            0.341534518992     2.352636620444    -0.870889229696     1.007825032230
         H            2.011838518992     2.091969620444    -0.349835229696     1.007825032230
         H            0.732897518992     2.357929620444     0.859350770304     1.007825032230
         H           -0.794219481008    -2.134655379556    -0.231253229696     1.007825032230
         H           -3.469556481008    -1.556464379556    -0.039002229696     1.007825032230
         H            3.325058518992     0.711896620444     0.910388770304     1.007825032230
         H            3.462252518992     0.514024620444    -0.846198229696     1.007825032230
         H            3.802412518992    -0.859678379556     0.225115770304     1.007825032230
         H           -3.565814481008     1.193217620444     0.208159770304     1.007825032230

  Basis Set: AUG-CC-PVTZ
    Blend: AUG-CC-PVTZ
  Basis Set: (AUG-CC-PVTZ AUX)
    Blend: AUG-CC-PVTZ-JKFIT
	 Reference Energy          =    -474.6328636343749849 [Eh]
	 Singles Energy            =      -0.0000000000000000 [Eh]
	 Same-Spin Energy          =      -0.4921165878959882 [Eh]
	 Opposite-Spin Energy      =      -1.5288132366937928 [Eh]
	 Correlation Energy        =      -2.0209298245897811 [Eh]
	 Total Energy              =    -476.6537934589647421 [Eh]

	 ================> DF-SCS-MP2 Energies <==================
	-----------------------------------------------------------
	 SCS Same-Spin Scale       =       0.3333333333333333 [-]
	 SCS Opposite-Spin Scale   =       1.2000000000000000 [-]
	 SCS Same-Spin Energy      =      -0.1640388626319961 [Eh]
	 SCS Opposite-Spin Energy  =      -1.8345758840325512 [Eh]
	 SCS Correlation Energy    =      -1.9986147466645474 [Eh]
	 SCS Total Energy          =    -476.6314783810395284 [Eh]
	-----------------------------------------------------------

  Dipole Moment: [D]
     X:     0.7395      Y:     3.2819      Z:    -0.1358     Total:     3.3669

*** Psi4 exiting successfully. Buy a developer a beer!
