                               Psi4 1.3.2 release

  ==> Input File <==

--------------------------------------------------------------------------
#psi4
#
memory 32 gb

molecule  {
0 1
  O       -1.5316190     1.0321650     0.0948010
  O        1.4540340    -1.7305240     0.0480640
  N        0.6983760     0.4234810    -0.0768570
  C       -0.6061564    -0.0884942    -0.0474525
  C        0.9338190     1.8669200    -0.1039590
  C        1.7048000    -0.5240370     0.0213290
  C       -1.2931220    -1.2007390    -0.1216240
  C       -2.6835930    -0.8875750    -0.0182810
  C        3.1317020    -0.0168610     0.0830780
  C       -2.7843930     0.4654540     0.1083230
  H        0.3040530     2.3204240    -0.8701650
  H        1.9743570     2.0597570    -0.3491110
  H        0.6954160     2.3257170     0.8600750
  H       -0.8317010    -2.1668680    -0.2305290
  H       -3.5070380    -1.5886770    -0.0382780
  H        3.2875770     0.6796840     0.9111130
  H        3.4247710     0.4818120    -0.8454740
  H        3.7649310    -0.8918910     0.2258400
  H       -3.6032960     1.1610050     0.2088840
units angstrom
no_reorient  #important for SAPT in psi4, default
symmetry c1  #important for SAPT in psi4, default
}

set PROPERTIES_ORIGIN ["COM"]
properties('MP2/aug-cc-pvtz', properties = ['dipole'])
--------------------------------------------------------------------------

    Molecular point group: c1
  Charge       = 0
  Multiplicity = 1
  Basis Set: AUG-CC-PVTZ
    Blend: AUG-CC-PVTZ
  Basis Set: (AUG-CC-PVTZ AUX)
    Blend: AUG-CC-PVTZ-JKFIT

    Orbital Energies [Eh]
    ---------------------

    Doubly Occupied:

       1A    -20.609489     2A    -20.529192     3A    -15.618120
       4A    -11.364631     5A    -11.327808     6A    -11.284215
       7A    -11.279887     8A    -11.246056     9A    -11.227012
      10A    -11.214743    11A     -1.429062    12A     -1.385668
      13A     -1.261493    14A     -1.088546    15A     -1.029612
      16A     -0.990936    17A     -0.955404    18A     -0.835034
      19A     -0.790831    20A     -0.742186    21A     -0.702694
      22A     -0.679969    23A     -0.667510    24A     -0.642725
      25A     -0.611351    26A     -0.591033    27A     -0.587297
      28A     -0.585764    29A     -0.571889    30A     -0.558241
      31A     -0.550389    32A     -0.534784    33A     -0.528468
      34A     -0.439431    35A     -0.432226    36A     -0.392658
      37A     -0.295747

  @DF-RHF Final Energy:  -474.62337904422191

   => Energetics <=

    Nuclear Repulsion Energy =            527.6676723607777149
    One-Electron Energy =               -1693.4179031200826557
    Two-Electron Energy =                 691.1268517150830348
    Total Energy =                       -474.6233790442219060
  Basis Set: (AUG-CC-PVTZ AUX)
    Blend: AUG-CC-PVTZ-RI
    Molecular point group: c1

    Geometry (in Angstrom), charge = 0, multiplicity = 1:

       Center              X                  Y                   Z               Mass
    ------------   -----------------  -----------------  -----------------  -----------------
         O           -1.495141397723     1.071347860623     0.093814417890    15.994914619570
         O            1.490511602277    -1.691341139377     0.047077417890    15.994914619570
         N            0.734853602277     0.462663860623    -0.077843582110    14.003074004430
         C           -0.569678797723    -0.049311339377    -0.048439082110    12.000000000000
         C            0.970296602277     1.906102860623    -0.104945582110    12.000000000000
         C            1.741277602277    -0.484854139377     0.020342417890    12.000000000000
         C           -1.256644397723    -1.161556139377    -0.122610582110    12.000000000000
         C           -2.647115397723    -0.848392139377    -0.019267582110    12.000000000000
         C            3.168179602277     0.022321860623     0.082091417890    12.000000000000
         C           -2.747915397723     0.504636860623     0.107336417890    12.000000000000
         H            0.340530602277     2.359606860623    -0.871151582110     1.007825032230
         H            2.010834602277     2.098939860623    -0.350097582110     1.007825032230
         H            0.731893602277     2.364899860623     0.859088417890     1.007825032230
         H           -0.795223397723    -2.127685139377    -0.231515582110     1.007825032230
         H           -3.470560397723    -1.549494139377    -0.039264582110     1.007825032230
         H            3.324054602277     0.718866860623     0.910126417890     1.007825032230
         H            3.461248602277     0.520994860623    -0.846460582110     1.007825032230
         H            3.801408602277    -0.852708139377     0.224853417890     1.007825032230
         H           -3.566818397723     1.200187860623     0.207897417890     1.007825032230

  Basis Set: AUG-CC-PVTZ
    Blend: AUG-CC-PVTZ
  Basis Set: (AUG-CC-PVTZ AUX)
    Blend: AUG-CC-PVTZ-JKFIT
	 Reference Energy          =    -474.6233790442219060 [Eh]
	 Singles Energy            =      -0.0000000000000000 [Eh]
	 Same-Spin Energy          =      -0.4914874269084755 [Eh]
	 Opposite-Spin Energy      =      -1.5293623904935629 [Eh]
	 Correlation Energy        =      -2.0208498174020386 [Eh]
	 Total Energy              =    -476.6442288616239580 [Eh]

	 ================> DF-SCS-MP2 Energies <==================
	-----------------------------------------------------------
	 SCS Same-Spin Scale       =       0.3333333333333333 [-]
	 SCS Opposite-Spin Scale   =       1.2000000000000000 [-]
	 SCS Same-Spin Energy      =      -0.1638291423028251 [Eh]
	 SCS Opposite-Spin Energy  =      -1.8352348685922755 [Eh]
	 SCS Correlation Energy    =      -1.9990640108951006 [Eh]
	 SCS Total Energy          =    -476.6224430551170030 [Eh]
	-----------------------------------------------------------

  Dipole Moment: [D]
     X:     0.7356      Y:     3.1326      Z:    -0.1582     Total:     3.2217

*** Psi4 exiting successfully. Buy a developer a beer!
