                               Psi4 1.4a3.dev225

  ==> Input File <==

--------------------------------------------------------------------------
#psi4
#
memory 32 gb

molecule  {
0 1
  O       -1.5316190     1.0321650     0.0948010
  O        1.4540340    -1.7305240     0.0480640
  N        0.6983760     0.4234810    -0.0768570
  C       -0.6517563     0.0187812    -0.0463214
  C        0.9338190     1.8669200    -0.1039590
  C        1.7048000    -0.5240370     0.0213290
  C       -1.2931220    -1.2007390    -0.1216240
  C       -2.6835930    -0.8875750    -0.0182810
  C        3.1317020    -0.0168610     0.0830780
  C       -2.7843930     0.4654540     0.1083230
  H        0.3040530     2.3204240    -0.8701650
  H        1.9743570     2.0597570    -0.3491110
  H        0.6954160     2.3257170     0.8600750
  H       -0.8317010    -2.1668680    -0.2305290
  H       -3.5070380    -1.5886770    -0.0382780
  H        3.2875770     0.6796840     0.9111130
  H        3.4247710     0.4818120    -0.8454740
  H        3.7649310    -0.8918910     0.2258400
  H       -3.6032960     1.1610050     0.2088840
units angstrom
no_reorient  #important for SAPT in psi4, default
symmetry c1  #important for SAPT in psi4, default
}

set PROPERTIES_ORIGIN ["COM"]
properties('MP2/aug-cc-pvtz', properties = ['dipole'])
--------------------------------------------------------------------------

    Molecular point group: c1
  Charge       = 0
  Multiplicity = 1
  Basis Set: AUG-CC-PVTZ
    Blend: AUG-CC-PVTZ
  Basis Set: (AUG-CC-PVTZ AUX)
    Blend: AUG-CC-PVTZ-JKFIT

    Orbital Energies [Eh]
    ---------------------

    Doubly Occupied:

       1A    -20.628314     2A    -20.527824     3A    -15.616749
       4A    -11.365337     5A    -11.333383     6A    -11.279978
       7A    -11.278465     8A    -11.246627     9A    -11.230100
      10A    -11.215330    11A     -1.470963    12A     -1.384072
      13A     -1.260805    14A     -1.080539    15A     -1.031827
      16A     -0.990583    17A     -0.954843    18A     -0.835008
      19A     -0.796716    20A     -0.753447    21A     -0.702567
      22A     -0.679727    23A     -0.673914    24A     -0.649915
      25A     -0.625529    26A     -0.592970    27A     -0.590422
      28A     -0.588438    29A     -0.567211    30A     -0.562675
      31A     -0.551678    32A     -0.539020    33A     -0.526245
      34A     -0.433223    35A     -0.430340    36A     -0.392436
      37A     -0.287203

  @DF-RHF Final Energy:  -474.63450476221306

   => Energetics <=

    Nuclear Repulsion Energy =            528.0565118209324282
    One-Electron Energy =               -1694.0331899672758027
    Two-Electron Energy =                 691.3421733841303194
    Total Energy =                       -474.6345047622130551
  Basis Set: (AUG-CC-PVTZ AUX)
    Blend: AUG-CC-PVTZ-RI
    Molecular point group: c1

    Geometry (in Angstrom), charge = 0, multiplicity = 1:

       Center              X                  Y                   Z               Mass
    ------------   -----------------  -----------------  -----------------  -----------------
         O           -1.491206508448     1.062090892495     0.093716813438    15.994914619570
         O            1.494446491552    -1.700598107505     0.046979813438    15.994914619570
         N            0.738788491552     0.453406892495    -0.077941186562    14.003074004430
         C           -0.611343808448     0.048707092495    -0.047405586562    12.000000000000
         C            0.974231491552     1.896845892495    -0.105043186562    12.000000000000
         C            1.745212491552    -0.494111107505     0.020244813438    12.000000000000
         C           -1.252709508448    -1.170813107505    -0.122708186562    12.000000000000
         C           -2.643180508448    -0.857649107505    -0.019365186562    12.000000000000
         C            3.172114491552     0.013064892495     0.081993813438    12.000000000000
         C           -2.743980508448     0.495379892495     0.107238813438    12.000000000000
         H            0.344465491552     2.350349892495    -0.871249186562     1.007825032230
         H            2.014769491552     2.089682892495    -0.350195186562     1.007825032230
         H            0.735828491552     2.355642892495     0.858990813438     1.007825032230
         H           -0.791288508448    -2.136942107505    -0.231613186562     1.007825032230
         H           -3.466625508448    -1.558751107505    -0.039362186562     1.007825032230
         H            3.327989491552     0.709609892495     0.910028813438     1.007825032230
         H            3.465183491552     0.511737892495    -0.846558186562     1.007825032230
         H            3.805343491552    -0.861965107505     0.224755813438     1.007825032230
         H           -3.562883508448     1.190930892495     0.207799813438     1.007825032230

  Basis Set: AUG-CC-PVTZ
    Blend: AUG-CC-PVTZ
  Basis Set: (AUG-CC-PVTZ AUX)
    Blend: AUG-CC-PVTZ-JKFIT
	 Reference Energy          =    -474.6345047622130551 [Eh]
	 Singles Energy            =      -0.0000000000000000 [Eh]
	 Same-Spin Energy          =      -0.4918364511284942 [Eh]
	 Opposite-Spin Energy      =      -1.5278200010524186 [Eh]
	 Correlation Energy        =      -2.0196564521809126 [Eh]
	 Total Energy              =    -476.6541612143939801 [Eh]

	 ================> DF-SCS-MP2 Energies <==================
	-----------------------------------------------------------
	 SCS Same-Spin Scale       =       0.3333333333333333 [-]
	 SCS Opposite-Spin Scale   =       1.2000000000000000 [-]
	 SCS Same-Spin Energy      =      -0.1639454837094980 [Eh]
	 SCS Opposite-Spin Energy  =      -1.8333840012629021 [Eh]
	 SCS Correlation Energy    =      -1.9973294849724001 [Eh]
	 SCS Total Energy          =    -476.6318342471854521 [Eh]
	-----------------------------------------------------------

  Dipole Moment: [D]
     X:     0.5765      Y:     3.3028      Z:    -0.1248     Total:     3.3551

*** Psi4 exiting successfully. Buy a developer a beer!
