                               Psi4 1.3.2 release

  ==> Input File <==

--------------------------------------------------------------------------
#psi4
#
memory 32 gb

molecule  {
0 1
  O       -1.5316190     1.0321650     0.0948010
  O        1.4540340    -1.7305240     0.0480640
  N        0.6983760     0.4234810    -0.0768570
  C       -0.6387160     0.0037620    -0.0484130
  C        0.9338190     1.8669200    -0.1039590
  C        1.7048000    -0.5240370     0.0213290
  C       -1.2931220    -1.2007390    -0.1216240
  C       -2.6835930    -0.8875750    -0.0182810
  C        3.1317020    -0.0168610     0.0830780
  C       -2.6932861     0.5066676     0.1073396
  H        0.3040530     2.3204240    -0.8701650
  H        1.9743570     2.0597570    -0.3491110
  H        0.6954160     2.3257170     0.8600750
  H       -0.8317010    -2.1668680    -0.2305290
  H       -3.5070380    -1.5886770    -0.0382780
  H        3.2875770     0.6796840     0.9111130
  H        3.4247710     0.4818120    -0.8454740
  H        3.7649310    -0.8918910     0.2258400
  H       -3.6032960     1.1610050     0.2088840
units angstrom
no_reorient  #important for SAPT in psi4, default
symmetry c1  #important for SAPT in psi4, default
}

set PROPERTIES_ORIGIN ["COM"]
properties('MP2/aug-cc-pvtz', properties = ['dipole'])
--------------------------------------------------------------------------

    Molecular point group: c1
  Charge       = 0
  Multiplicity = 1
  Basis Set: AUG-CC-PVTZ
    Blend: AUG-CC-PVTZ
  Basis Set: (AUG-CC-PVTZ AUX)
    Blend: AUG-CC-PVTZ-JKFIT

    Orbital Energies [Eh]
    ---------------------

    Doubly Occupied:

       1A    -20.640531     2A    -20.526934     3A    -15.616125
       4A    -11.364173     5A    -11.327490     6A    -11.287332
       7A    -11.280107     8A    -11.246130     9A    -11.224550
      10A    -11.218983    11A     -1.506758    12A     -1.384353
      13A     -1.264375    14A     -1.080911    15A     -1.032878
      16A     -0.990169    17A     -0.958845    18A     -0.834367
      19A     -0.800043    20A     -0.761745    21A     -0.705219
      22A     -0.686236    23A     -0.677153    24A     -0.654116
      25A     -0.636688    26A     -0.597014    27A     -0.593776
      28A     -0.587083    29A     -0.573413    30A     -0.563849
      31A     -0.552892    32A     -0.528175    33A     -0.517844
      34A     -0.437175    35A     -0.430547    36A     -0.385965
      37A     -0.280500

  @DF-RHF Final Energy:  -474.62352483165301

   => Energetics <=

    Nuclear Repulsion Energy =            529.8944440879140529
    One-Electron Energy =               -1697.5270497161277490
    Two-Electron Energy =                 693.0090807965607382
    Total Energy =                       -474.6235248316529578
  Basis Set: (AUG-CC-PVTZ AUX)
    Blend: AUG-CC-PVTZ-RI
    Molecular point group: c1

    Geometry (in Angstrom), charge = 0, multiplicity = 1:

       Center              X                  Y                   Z               Mass
    ------------   -----------------  -----------------  -----------------  -----------------
         O           -1.500193539128     1.059830535265     0.093982160171    15.994914619570
         O            1.485459460872    -1.702858464735     0.047245160171    15.994914619570
         N            0.729801460872     0.451146535265    -0.077675839829    14.003074004430
         C           -0.607290539128     0.031427535265    -0.049231839829    12.000000000000
         C            0.965244460872     1.894585535265    -0.104777839829    12.000000000000
         C            1.736225460872    -0.496371464735     0.020510160171    12.000000000000
         C           -1.261696539128    -1.173073464735    -0.122442839829    12.000000000000
         C           -2.652167539128    -0.859909464735    -0.019099839829    12.000000000000
         C            3.163127460872     0.010804535265     0.082259160171    12.000000000000
         C           -2.661860639128     0.534333135265     0.106520760171    12.000000000000
         H            0.335478460872     2.348089535265    -0.870983839829     1.007825032230
         H            2.005782460872     2.087422535265    -0.349929839829     1.007825032230
         H            0.726841460872     2.353382535265     0.859256160171     1.007825032230
         H           -0.800275539128    -2.139202464735    -0.231347839829     1.007825032230
         H           -3.475612539128    -1.561011464735    -0.039096839829     1.007825032230
         H            3.319002460872     0.707349535265     0.910294160171     1.007825032230
         H            3.456196460872     0.509477535265    -0.846292839829     1.007825032230
         H            3.796356460872    -0.864225464735     0.225021160171     1.007825032230
         H           -3.571870539128     1.188670535265     0.208065160171     1.007825032230

  Basis Set: AUG-CC-PVTZ
    Blend: AUG-CC-PVTZ
  Basis Set: (AUG-CC-PVTZ AUX)
    Blend: AUG-CC-PVTZ-JKFIT
	 Reference Energy          =    -474.6235248316530146 [Eh]
	 Singles Energy            =      -0.0000000000000000 [Eh]
	 Same-Spin Energy          =      -0.4927439442685568 [Eh]
	 Opposite-Spin Energy      =      -1.5279017230429770 [Eh]
	 Correlation Energy        =      -2.0206456673115341 [Eh]
	 Total Energy              =    -476.6441704989645700 [Eh]

	 ================> DF-SCS-MP2 Energies <==================
	-----------------------------------------------------------
	 SCS Same-Spin Scale       =       0.3333333333333333 [-]
	 SCS Opposite-Spin Scale   =       1.2000000000000000 [-]
	 SCS Same-Spin Energy      =      -0.1642479814228523 [Eh]
	 SCS Opposite-Spin Energy  =      -1.8334820676515724 [Eh]
	 SCS Correlation Energy    =      -1.9977300490744248 [Eh]
	 SCS Total Energy          =    -476.6212548807274629 [Eh]
	-----------------------------------------------------------

  Dipole Moment: [D]
     X:     0.7278      Y:     3.4184      Z:    -0.1286     Total:     3.4973

*** Psi4 exiting successfully. Buy a developer a beer!
