                               Psi4 1.3.2 release

  ==> Input File <==

--------------------------------------------------------------------------
#psi4
#
memory 32 gb

molecule  {
0 1
  O       -1.5316190     1.0321650     0.0948010
  O        1.4540340    -1.7305240     0.0480640
  N        0.6983760     0.4234810    -0.0768570
  C       -0.6647614     0.0980630    -0.0495121
  C        0.9338190     1.8669200    -0.1039590
  C        1.7048000    -0.5240370     0.0213290
  C       -1.2931220    -1.2007390    -0.1216240
  C       -2.6835930    -0.8875750    -0.0182810
  C        3.1317020    -0.0168610     0.0830780
  C       -2.7843930     0.4654540     0.1083230
  H        0.3040530     2.3204240    -0.8701650
  H        1.9743570     2.0597570    -0.3491110
  H        0.6954160     2.3257170     0.8600750
  H       -0.8317010    -2.1668680    -0.2305290
  H       -3.5070380    -1.5886770    -0.0382780
  H        3.2875770     0.6796840     0.9111130
  H        3.4247710     0.4818120    -0.8454740
  H        3.7649310    -0.8918910     0.2258400
  H       -3.6032960     1.1610050     0.2088840
units angstrom
no_reorient  #important for SAPT in psi4, default
symmetry c1  #important for SAPT in psi4, default
}

set PROPERTIES_ORIGIN ["COM"]
properties('MP2/aug-cc-pvtz', properties = ['dipole'])
--------------------------------------------------------------------------

    Molecular point group: c1
  Charge       = 0
  Multiplicity = 1
  Basis Set: AUG-CC-PVTZ
    Blend: AUG-CC-PVTZ
  Basis Set: (AUG-CC-PVTZ AUX)
    Blend: AUG-CC-PVTZ-JKFIT

    Orbital Energies [Eh]
    ---------------------

    Doubly Occupied:

       1A    -20.639572     2A    -20.529002     3A    -15.618322
       4A    -11.367839     5A    -11.339880     6A    -11.279226
       7A    -11.275024     8A    -11.248353     9A    -11.230948
      10A    -11.214993    11A     -1.502144    12A     -1.384954
      13A     -1.265425    14A     -1.075034    15A     -1.034447
      16A     -0.991398    17A     -0.957188    18A     -0.836460
      19A     -0.803644    20A     -0.759628    21A     -0.703372
      22A     -0.687155    23A     -0.679094    24A     -0.655760
      25A     -0.633726    26A     -0.595269    27A     -0.593796
      28A     -0.590604    29A     -0.574382    30A     -0.557828
      31A     -0.552229    32A     -0.528724    33A     -0.523863
      34A     -0.433491    35A     -0.430006    36A     -0.391557
      37A     -0.277359

  @DF-RHF Final Energy:  -474.62391748501057

   => Energetics <=

    Nuclear Repulsion Energy =            528.3976369415225918
    One-Electron Energy =               -1694.5197183701229733
    Two-Electron Energy =                 691.4981639435897023
    Total Energy =                       -474.6239174850105655
  Basis Set: (AUG-CC-PVTZ AUX)
    Blend: AUG-CC-PVTZ-RI
    Molecular point group: c1

    Geometry (in Angstrom), charge = 0, multiplicity = 1:

       Center              X                  Y                   Z               Mass
    ------------   -----------------  -----------------  -----------------  -----------------
         O           -1.490084277292     1.055249537480     0.093992144112    15.994914619570
         O            1.495568722708    -1.707439462520     0.047255144112    15.994914619570
         N            0.739910722708     0.446565537480    -0.077665855888    14.003074004430
         C           -0.623226677292     0.121147537480    -0.050320955888    12.000000000000
         C            0.975353722708     1.890004537480    -0.104767855888    12.000000000000
         C            1.746334722708    -0.500952462520     0.020520144112    12.000000000000
         C           -1.251587277292    -1.177654462520    -0.122432855888    12.000000000000
         C           -2.642058277292    -0.864490462520    -0.019089855888    12.000000000000
         C            3.173236722708     0.006223537480     0.082269144112    12.000000000000
         C           -2.742858277292     0.488538537480     0.107514144112    12.000000000000
         H            0.345587722708     2.343508537480    -0.870973855888     1.007825032230
         H            2.015891722708     2.082841537480    -0.349919855888     1.007825032230
         H            0.736950722708     2.348801537480     0.859266144112     1.007825032230
         H           -0.790166277292    -2.143783462520    -0.231337855888     1.007825032230
         H           -3.465503277292    -1.565592462520    -0.039086855888     1.007825032230
         H            3.329111722708     0.702768537480     0.910304144112     1.007825032230
         H            3.466305722708     0.504896537480    -0.846282855888     1.007825032230
         H            3.806465722708    -0.868806462520     0.225031144112     1.007825032230
         H           -3.561761277292     1.184089537480     0.208075144112     1.007825032230

  Basis Set: AUG-CC-PVTZ
    Blend: AUG-CC-PVTZ
  Basis Set: (AUG-CC-PVTZ AUX)
    Blend: AUG-CC-PVTZ-JKFIT
	 Reference Energy          =    -474.6239174850105655 [Eh]
	 Singles Energy            =      -0.0000000000000000 [Eh]
	 Same-Spin Energy          =      -0.4926847469607750 [Eh]
	 Opposite-Spin Energy      =      -1.5276747487300517 [Eh]
	 Correlation Energy        =      -2.0203594956908266 [Eh]
	 Total Energy              =    -476.6442769807014201 [Eh]

	 ================> DF-SCS-MP2 Energies <==================
	-----------------------------------------------------------
	 SCS Same-Spin Scale       =       0.3333333333333333 [-]
	 SCS Opposite-Spin Scale   =       1.2000000000000000 [-]
	 SCS Same-Spin Energy      =      -0.1642282489869250 [Eh]
	 SCS Opposite-Spin Energy  =      -1.8332096984760620 [Eh]
	 SCS Correlation Energy    =      -1.9974379474629869 [Eh]
	 SCS Total Energy          =    -476.6213554324735355 [Eh]
	-----------------------------------------------------------

  Dipole Moment: [D]
     X:     0.5951      Y:     3.4510      Z:    -0.1007     Total:     3.5034

*** Psi4 exiting successfully. Buy a developer a beer!
