                               Psi4 1.4a3.dev225

  ==> Input File <==

--------------------------------------------------------------------------
#psi4
#
memory 32 gb

molecule  {
0 1
  O       -1.5316190     1.0321650     0.0948010
  O        1.4540340    -1.7305240     0.0480640
  N        0.6983760     0.4234810    -0.0768570
  C       -0.6387160     0.0037620    -0.0484130
  C        0.9338190     1.8669200    -0.1039590
  C        1.7048000    -0.5240370     0.0213290
  C       -1.2931220    -1.2007390    -0.1216240
  C       -2.6835930    -0.8875750    -0.0182810
  C        3.1317020    -0.0168610     0.0830780
  C       -2.7388395     0.4860608     0.1078313
  H        0.3040530     2.3204240    -0.8701650
  H        1.9743570     2.0597570    -0.3491110
  H        0.6954160     2.3257170     0.8600750
  H       -0.8317010    -2.1668680    -0.2305290
  H       -3.5070380    -1.5886770    -0.0382780
  H        3.2875770     0.6796840     0.9111130
  H        3.4247710     0.4818120    -0.8454740
  H        3.7649310    -0.8918910     0.2258400
  H       -3.6032960     1.1610050     0.2088840
units angstrom
no_reorient  #important for SAPT in psi4, default
symmetry c1  #important for SAPT in psi4, default
}

set PROPERTIES_ORIGIN ["COM"]
properties('MP2/aug-cc-pvtz', properties = ['dipole'])
--------------------------------------------------------------------------

    Molecular point group: c1
  Charge       = 0
  Multiplicity = 1
  Basis Set: AUG-CC-PVTZ
    Blend: AUG-CC-PVTZ
  Basis Set: (AUG-CC-PVTZ AUX)
    Blend: AUG-CC-PVTZ-JKFIT

    Orbital Energies [Eh]
    ---------------------

    Doubly Occupied:

       1A    -20.632589     2A    -20.527770     3A    -15.616812
       4A    -11.364933     5A    -11.330161     6A    -11.283324
       7A    -11.279579     8A    -11.246498     9A    -11.226948
      10A    -11.217153    11A     -1.482760    12A     -1.384740
      13A     -1.263574    14A     -1.080192    15A     -1.032420
      16A     -0.990295    17A     -0.956659    18A     -0.835099
      19A     -0.797229    20A     -0.755883    21A     -0.703979
      22A     -0.681000    23A     -0.675762    24A     -0.651260
      25A     -0.629919    26A     -0.594465    27A     -0.592849
      28A     -0.587734    29A     -0.568055    30A     -0.564495
      31A     -0.552586    32A     -0.531228    33A     -0.526730
      34A     -0.435798    35A     -0.431094    36A     -0.388698
      37A     -0.284273

  @DF-RHF Final Energy:  -474.63205906604441

   => Energetics <=

    Nuclear Repulsion Energy =            528.9176436333970059
    One-Electron Energy =               -1695.6903174556045997
    Two-Electron Energy =                 692.1406147561633588
    Total Energy =                       -474.6320590660443486
  Basis Set: (AUG-CC-PVTZ AUX)
    Blend: AUG-CC-PVTZ-RI
    Molecular point group: c1

    Geometry (in Angstrom), charge = 0, multiplicity = 1:

       Center              X                  Y                   Z               Mass
    ------------   -----------------  -----------------  -----------------  -----------------
         O           -1.496262662414     1.061608729435     0.093939730581    15.994914619570
         O            1.489390337586    -1.701080270565     0.047202730581    15.994914619570
         N            0.733732337586     0.452924729435    -0.077718269419    14.003074004430
         C           -0.603359662414     0.033205729435    -0.049274269419    12.000000000000
         C            0.969175337586     1.896363729435    -0.104820269419    12.000000000000
         C            1.740156337586    -0.494593270565     0.020467730581    12.000000000000
         C           -1.257765662414    -1.171295270565    -0.122485269419    12.000000000000
         C           -2.648236662414    -0.858131270565    -0.019142269419    12.000000000000
         C            3.167058337586     0.012582729435     0.082216730581    12.000000000000
         C           -2.703483162414     0.515504529435     0.106970030581    12.000000000000
         H            0.339409337586     2.349867729435    -0.871026269419     1.007825032230
         H            2.009713337586     2.089200729435    -0.349972269419     1.007825032230
         H            0.730772337586     2.355160729435     0.859213730581     1.007825032230
         H           -0.796344662414    -2.137424270565    -0.231390269419     1.007825032230
         H           -3.471681662414    -1.559233270565    -0.039139269419     1.007825032230
         H            3.322933337586     0.709127729435     0.910251730581     1.007825032230
         H            3.460127337586     0.511255729435    -0.846335269419     1.007825032230
         H            3.800287337586    -0.862447270565     0.224978730581     1.007825032230
         H           -3.567939662414     1.190448729435     0.208022730581     1.007825032230

  Basis Set: AUG-CC-PVTZ
    Blend: AUG-CC-PVTZ
  Basis Set: (AUG-CC-PVTZ AUX)
    Blend: AUG-CC-PVTZ-JKFIT
	 Reference Energy          =    -474.6320590660444054 [Eh]
	 Singles Energy            =      -0.0000000000000000 [Eh]
	 Same-Spin Energy          =      -0.4922712007552819 [Eh]
	 Opposite-Spin Energy      =      -1.5279893301248855 [Eh]
	 Correlation Energy        =      -2.0202605308801673 [Eh]
	 Total Energy              =    -476.6523195969245990 [Eh]

	 ================> DF-SCS-MP2 Energies <==================
	-----------------------------------------------------------
	 SCS Same-Spin Scale       =       0.3333333333333333 [-]
	 SCS Opposite-Spin Scale   =       1.2000000000000000 [-]
	 SCS Same-Spin Energy      =      -0.1640904002517606 [Eh]
	 SCS Opposite-Spin Energy  =      -1.8335871961498624 [Eh]
	 SCS Correlation Energy    =      -1.9976775964016231 [Eh]
	 SCS Total Energy          =    -476.6297366624460210 [Eh]
	-----------------------------------------------------------

  Dipole Moment: [D]
     X:     0.6801      Y:     3.3486      Z:    -0.1298     Total:     3.4194

*** Psi4 exiting successfully. Buy a developer a beer!
