                               Psi4 1.3.2 release

  ==> Input File <==

--------------------------------------------------------------------------
#psi4
#
memory 32 gb

molecule  {
0 1
  O       -1.5316190     1.0321650     0.0948010
  O        1.4540340    -1.7305240     0.0480640
  N        0.6983760     0.4234810    -0.0768570
  C       -0.7518799    -0.0841944    -0.0506202
  C        0.9338190     1.8669200    -0.1039590
  C        1.7048000    -0.5240370     0.0213290
  C       -1.2931220    -1.2007390    -0.1216240
  C       -2.6835930    -0.8875750    -0.0182810
  C        3.1317020    -0.0168610     0.0830780
  C       -2.7843930     0.4654540     0.1083230
  H        0.3040530     2.3204240    -0.8701650
  H        1.9743570     2.0597570    -0.3491110
  H        0.6954160     2.3257170     0.8600750
  H       -0.8317010    -2.1668680    -0.2305290
  H       -3.5070380    -1.5886770    -0.0382780
  H        3.2875770     0.6796840     0.9111130
  H        3.4247710     0.4818120    -0.8454740
  H        3.7649310    -0.8918910     0.2258400
  H       -3.6032960     1.1610050     0.2088840
units angstrom
no_reorient  #important for SAPT in psi4, default
symmetry c1  #important for SAPT in psi4, default
}

set PROPERTIES_ORIGIN ["COM"]
properties('MP2/aug-cc-pvtz', properties = ['dipole'])
--------------------------------------------------------------------------

    Molecular point group: c1
  Charge       = 0
  Multiplicity = 1
  Basis Set: AUG-CC-PVTZ
    Blend: AUG-CC-PVTZ
  Basis Set: (AUG-CC-PVTZ AUX)
    Blend: AUG-CC-PVTZ-JKFIT

    Orbital Energies [Eh]
    ---------------------

    Doubly Occupied:

       1A    -20.627716     2A    -20.518049     3A    -15.605160
       4A    -11.355668     5A    -11.324915     6A    -11.289096
       7A    -11.270760     8A    -11.239833     9A    -11.235941
      10A    -11.209749    11A     -1.469941    12A     -1.373484
      13A     -1.229281    14A     -1.118807    15A     -1.021846
      16A     -0.990063    17A     -0.946456    18A     -0.828017
      19A     -0.789885    20A     -0.760245    21A     -0.697268
      22A     -0.670833    23A     -0.665402    24A     -0.635214
      25A     -0.624629    26A     -0.598321    27A     -0.586074
      28A     -0.583984    29A     -0.577781    30A     -0.557023
      31A     -0.550166    32A     -0.534761    33A     -0.517701
      34A     -0.429801    35A     -0.421714    36A     -0.398396
      37A     -0.313628

  @DF-RHF Final Energy:  -474.60606866927520

   => Energetics <=

    Nuclear Repulsion Energy =            527.9227079209285876
    One-Electron Energy =               -1693.9223392315727779
    Two-Electron Energy =                 691.3935626413689306
    Total Energy =                       -474.6060686692752597
  Basis Set: (AUG-CC-PVTZ AUX)
    Blend: AUG-CC-PVTZ-RI
    Molecular point group: c1

    Geometry (in Angstrom), charge = 0, multiplicity = 1:

       Center              X                  Y                   Z               Mass
    ------------   -----------------  -----------------  -----------------  -----------------
         O           -1.482566680733     1.070976823912     0.094087763857    15.994914619570
         O            1.503086319267    -1.691712176088     0.047350763857    15.994914619570
         N            0.747428319267     0.462292823912    -0.077570236143    14.003074004430
         C           -0.702827580733    -0.045382576088    -0.051333436143    12.000000000000
         C            0.982871319267     1.905731823912    -0.104672236143    12.000000000000
         C            1.753852319267    -0.485225176088     0.020615763857    12.000000000000
         C           -1.244069680733    -1.161927176088    -0.122337236143    12.000000000000
         C           -2.634540680733    -0.848763176088    -0.018994236143    12.000000000000
         C            3.180754319267     0.021950823912     0.082364763857    12.000000000000
         C           -2.735340680733     0.504265823912     0.107609763857    12.000000000000
         H            0.353105319267     2.359235823912    -0.870878236143     1.007825032230
         H            2.023409319267     2.098568823912    -0.349824236143     1.007825032230
         H            0.744468319267     2.364528823912     0.859361763857     1.007825032230
         H           -0.782648680733    -2.128056176088    -0.231242236143     1.007825032230
         H           -3.457985680733    -1.549865176088    -0.038991236143     1.007825032230
         H            3.336629319267     0.718495823912     0.910399763857     1.007825032230
         H            3.473823319267     0.520623823912    -0.846187236143     1.007825032230
         H            3.813983319267    -0.853079176088     0.225126763857     1.007825032230
         H           -3.554243680733     1.199816823912     0.208170763857     1.007825032230

  Basis Set: AUG-CC-PVTZ
    Blend: AUG-CC-PVTZ
  Basis Set: (AUG-CC-PVTZ AUX)
    Blend: AUG-CC-PVTZ-JKFIT
	 Reference Energy          =    -474.6060686692752029 [Eh]
	 Singles Energy            =      -0.0000000000000000 [Eh]
	 Same-Spin Energy          =      -0.4898157730422058 [Eh]
	 Opposite-Spin Energy      =      -1.5266706737757572 [Eh]
	 Correlation Energy        =      -2.0164864468179631 [Eh]
	 Total Energy              =    -476.6225551160931673 [Eh]

	 ================> DF-SCS-MP2 Energies <==================
	-----------------------------------------------------------
	 SCS Same-Spin Scale       =       0.3333333333333333 [-]
	 SCS Opposite-Spin Scale   =       1.2000000000000000 [-]
	 SCS Same-Spin Energy      =      -0.1632719243474019 [Eh]
	 SCS Opposite-Spin Energy  =      -1.8320048085309084 [Eh]
	 SCS Correlation Energy    =      -1.9952767328783103 [Eh]
	 SCS Total Energy          =    -476.6013454021535267 [Eh]
	-----------------------------------------------------------

  Dipole Moment: [D]
     X:    -0.1094      Y:     2.9808      Z:    -0.1498     Total:     2.9866

*** Psi4 exiting successfully. Buy a developer a beer!
