                               Psi4 1.3.2 release

  ==> Input File <==

--------------------------------------------------------------------------
#psi4
#
memory 32 gb

molecule  {
0 1
  O       -1.5316190     1.0321650     0.0948010
  O        1.4540340    -1.7305240     0.0480640
  N        0.6983760     0.4234810    -0.0768570
  C       -0.5970793    -0.0195479    -0.0527633
  C        0.9338190     1.8669200    -0.1039590
  C        1.7048000    -0.5240370     0.0213290
  C       -1.2931220    -1.2007390    -0.1216240
  C       -2.6835930    -0.8875750    -0.0182810
  C        3.1317020    -0.0168610     0.0830780
  C       -2.7843930     0.4654540     0.1083230
  H        0.3040530     2.3204240    -0.8701650
  H        1.9743570     2.0597570    -0.3491110
  H        0.6954160     2.3257170     0.8600750
  H       -0.8317010    -2.1668680    -0.2305290
  H       -3.5070380    -1.5886770    -0.0382780
  H        3.2875770     0.6796840     0.9111130
  H        3.4247710     0.4818120    -0.8454740
  H        3.7649310    -0.8918910     0.2258400
  H       -3.6032960     1.1610050     0.2088840
units angstrom
no_reorient  #important for SAPT in psi4, default
symmetry c1  #important for SAPT in psi4, default
}

set PROPERTIES_ORIGIN ["COM"]
properties('MP2/aug-cc-pvtz', properties = ['dipole'])
--------------------------------------------------------------------------

    Molecular point group: c1
  Charge       = 0
  Multiplicity = 1
  Basis Set: AUG-CC-PVTZ
    Blend: AUG-CC-PVTZ
  Basis Set: (AUG-CC-PVTZ AUX)
    Blend: AUG-CC-PVTZ-JKFIT

    Orbital Energies [Eh]
    ---------------------

    Doubly Occupied:

       1A    -20.616724     2A    -20.531343     3A    -15.620126
       4A    -11.367349     5A    -11.332133     6A    -11.281447
       7A    -11.280350     8A    -11.248045     9A    -11.226973
      10A    -11.216418    11A     -1.443537    12A     -1.388198
      13A     -1.271364    14A     -1.076286    15A     -1.033843
      16A     -0.991655    17A     -0.955518    18A     -0.841444
      19A     -0.790707    20A     -0.744070    21A     -0.704459
      22A     -0.681848    23A     -0.673074    24A     -0.648570
      25A     -0.616198    26A     -0.593558    27A     -0.590898
      28A     -0.589347    29A     -0.568592    30A     -0.557765
      31A     -0.548255    32A     -0.537756    33A     -0.529918
      34A     -0.440141    35A     -0.434332    36A     -0.389247
      37A     -0.284911

  @DF-RHF Final Energy:  -474.63005348770514

   => Energetics <=

    Nuclear Repulsion Energy =            527.8992166695027208
    One-Electron Energy =               -1693.7657394959612702
    Two-Electron Energy =                 691.2364693387534089
    Total Energy =                       -474.6300534877051405
  Basis Set: (AUG-CC-PVTZ AUX)
    Blend: AUG-CC-PVTZ-RI
    Molecular point group: c1

    Geometry (in Angstrom), charge = 0, multiplicity = 1:

       Center              X                  Y                   Z               Mass
    ------------   -----------------  -----------------  -----------------  -----------------
         O           -1.495924675394     1.065398372654     0.094272695429    15.994914619570
         O            1.489728324606    -1.697290627346     0.047535695429    15.994914619570
         N            0.734070324606     0.456714372654    -0.077385304571    14.003074004430
         C           -0.561384975394     0.013685472654    -0.053291604571    12.000000000000
         C            0.969513324606     1.900153372654    -0.104487304571    12.000000000000
         C            1.740494324606    -0.490803627346     0.020800695429    12.000000000000
         C           -1.257427675394    -1.167505627346    -0.122152304571    12.000000000000
         C           -2.647898675394    -0.854341627346    -0.018809304571    12.000000000000
         C            3.167396324606     0.016372372654     0.082549695429    12.000000000000
         C           -2.748698675394     0.498687372654     0.107794695429    12.000000000000
         H            0.339747324606     2.353657372654    -0.870693304571     1.007825032230
         H            2.010051324606     2.092990372654    -0.349639304571     1.007825032230
         H            0.731110324606     2.358950372654     0.859546695429     1.007825032230
         H           -0.796006675394    -2.133634627346    -0.231057304571     1.007825032230
         H           -3.471343675394    -1.555443627346    -0.038806304571     1.007825032230
         H            3.323271324606     0.712917372654     0.910584695429     1.007825032230
         H            3.460465324606     0.515045372654    -0.846002304571     1.007825032230
         H            3.800625324606    -0.858657627346     0.225311695429     1.007825032230
         H           -3.567601675394     1.194238372654     0.208355695429     1.007825032230

  Basis Set: AUG-CC-PVTZ
    Blend: AUG-CC-PVTZ
  Basis Set: (AUG-CC-PVTZ AUX)
    Blend: AUG-CC-PVTZ-JKFIT
	 Reference Energy          =    -474.6300534877051405 [Eh]
	 Singles Energy            =      -0.0000000000000000 [Eh]
	 Same-Spin Energy          =      -0.4924026652597162 [Eh]
	 Opposite-Spin Energy      =      -1.5295121652105921 [Eh]
	 Correlation Energy        =      -2.0219148304703083 [Eh]
	 Total Energy              =    -476.6519683181754772 [Eh]

	 ================> DF-SCS-MP2 Energies <==================
	-----------------------------------------------------------
	 SCS Same-Spin Scale       =       0.3333333333333333 [-]
	 SCS Opposite-Spin Scale   =       1.2000000000000000 [-]
	 SCS Same-Spin Energy      =      -0.1641342217532387 [Eh]
	 SCS Opposite-Spin Energy  =      -1.8354145982527104 [Eh]
	 SCS Correlation Energy    =      -1.9995488200059490 [Eh]
	 SCS Total Energy          =    -476.6296023077110817 [Eh]
	-----------------------------------------------------------

  Dipole Moment: [D]
     X:     0.8458      Y:     3.2798      Z:    -0.1411     Total:     3.3900

*** Psi4 exiting successfully. Buy a developer a beer!
