                               Psi4 1.3.2 release

  ==> Input File <==

--------------------------------------------------------------------------
#psi4
#
memory 32 gb

molecule  {
0 1
  O       -1.5672157     1.0002760     0.0938786
  O        1.4540340    -1.7305240     0.0480640
  N        0.6983760     0.4234810    -0.0768570
  C       -0.6387160     0.0037620    -0.0484130
  C        0.9338190     1.8669200    -0.1039590
  C        1.7048000    -0.5240370     0.0213290
  C       -1.2931220    -1.2007390    -0.1216240
  C       -2.6835930    -0.8875750    -0.0182810
  C        3.1317020    -0.0168610     0.0830780
  C       -2.7843930     0.4654540     0.1083230
  H        0.3040530     2.3204240    -0.8701650
  H        1.9743570     2.0597570    -0.3491110
  H        0.6954160     2.3257170     0.8600750
  H       -0.8317010    -2.1668680    -0.2305290
  H       -3.5070380    -1.5886770    -0.0382780
  H        3.2875770     0.6796840     0.9111130
  H        3.4247710     0.4818120    -0.8454740
  H        3.7649310    -0.8918910     0.2258400
  H       -3.6032960     1.1610050     0.2088840
units angstrom
no_reorient  #important for SAPT in psi4, default
symmetry c1  #important for SAPT in psi4, default
}

set PROPERTIES_ORIGIN ["COM"]
properties('MP2/aug-cc-pvtz', properties = ['dipole'])
--------------------------------------------------------------------------

    Molecular point group: c1
  Charge       = 0
  Multiplicity = 1
  Basis Set: AUG-CC-PVTZ
    Blend: AUG-CC-PVTZ
  Basis Set: (AUG-CC-PVTZ AUX)
    Blend: AUG-CC-PVTZ-JKFIT

    Orbital Energies [Eh]
    ---------------------

    Doubly Occupied:

       1A    -20.625674     2A    -20.528611     3A    -15.618569
       4A    -11.366093     5A    -11.330543     6A    -11.280307
       7A    -11.277908     8A    -11.247278     9A    -11.223423
      10A    -11.215309    11A     -1.476529    12A     -1.385553
      13A     -1.264620    14A     -1.076707    15A     -1.034167
      16A     -0.993393    17A     -0.958572    18A     -0.835712
      19A     -0.799073    20A     -0.751595    21A     -0.705153
      22A     -0.680913    23A     -0.675150    24A     -0.656042
      25A     -0.628842    26A     -0.594207    27A     -0.590786
      28A     -0.588287    29A     -0.565878    30A     -0.562776
      31A     -0.549909    32A     -0.536021    33A     -0.527704
      34A     -0.436044    35A     -0.431905    36A     -0.386963
      37A     -0.286932

  @DF-RHF Final Energy:  -474.63434844115113

   => Energetics <=

    Nuclear Repulsion Energy =            528.5929173661311324
    One-Electron Energy =               -1695.0682350411238986
    Two-Electron Energy =                 691.8409692338416335
    Total Energy =                       -474.6343484411511326
  Basis Set: (AUG-CC-PVTZ AUX)
    Blend: AUG-CC-PVTZ-RI
    Molecular point group: c1

    Geometry (in Angstrom), charge = 0, multiplicity = 1:

       Center              X                  Y                   Z               Mass
    ------------   -----------------  -----------------  -----------------  -----------------
         O           -1.523834182886     1.035165762119     0.093080994448    15.994914619570
         O            1.497415517114    -1.695634237881     0.047266394448    15.994914619570
         N            0.741757517114     0.458370762119    -0.077654605552    14.003074004430
         C           -0.595334482886     0.038651762119    -0.049210605552    12.000000000000
         C            0.977200517114     1.901809762119    -0.104756605552    12.000000000000
         C            1.748181517114    -0.489147237881     0.020531394448    12.000000000000
         C           -1.249740482886    -1.165849237881    -0.122421605552    12.000000000000
         C           -2.640211482886    -0.852685237881    -0.019078605552    12.000000000000
         C            3.175083517114     0.018028762119     0.082280394448    12.000000000000
         C           -2.741011482886     0.500343762119     0.107525394448    12.000000000000
         H            0.347434517114     2.355313762119    -0.870962605552     1.007825032230
         H            2.017738517114     2.094646762119    -0.349908605552     1.007825032230
         H            0.738797517114     2.360606762119     0.859277394448     1.007825032230
         H           -0.788319482886    -2.131978237881    -0.231326605552     1.007825032230
         H           -3.463656482886    -1.553787237881    -0.039075605552     1.007825032230
         H            3.330958517114     0.714573762119     0.910315394448     1.007825032230
         H            3.468152517114     0.516701762119    -0.846271605552     1.007825032230
         H            3.808312517114    -0.857001237881     0.225042394448     1.007825032230
         H           -3.559914482886     1.195894762119     0.208086394448     1.007825032230

  Basis Set: AUG-CC-PVTZ
    Blend: AUG-CC-PVTZ
  Basis Set: (AUG-CC-PVTZ AUX)
    Blend: AUG-CC-PVTZ-JKFIT
	 Reference Energy          =    -474.6343484411511326 [Eh]
	 Singles Energy            =      -0.0000000000000000 [Eh]
	 Same-Spin Energy          =      -0.4918505306328669 [Eh]
	 Opposite-Spin Energy      =      -1.5269801926042377 [Eh]
	 Correlation Energy        =      -2.0188307232371043 [Eh]
	 Total Energy              =    -476.6531791643882343 [Eh]

	 ================> DF-SCS-MP2 Energies <==================
	-----------------------------------------------------------
	 SCS Same-Spin Scale       =       0.3333333333333333 [-]
	 SCS Opposite-Spin Scale   =       1.2000000000000000 [-]
	 SCS Same-Spin Energy      =      -0.1639501768776223 [Eh]
	 SCS Opposite-Spin Energy  =      -1.8323762311250851 [Eh]
	 SCS Correlation Energy    =      -1.9963264080027074 [Eh]
	 SCS Total Energy          =    -476.6306748491538201 [Eh]
	-----------------------------------------------------------

  Dipole Moment: [D]
     X:     0.7372      Y:     3.4186      Z:    -0.1224     Total:     3.4993

*** Psi4 exiting successfully. Buy a developer a beer!
