                               Psi4 1.3.2 release

  ==> Input File <==

--------------------------------------------------------------------------
#psi4
#
memory 32 gb

molecule  {
0 1
  O       -1.5316190     1.0321650     0.0948010
  O        1.4540340    -1.7305240     0.0480640
  N        0.7344487     0.2819654    -0.0909538
  C       -0.6387160     0.0037620    -0.0484130
  C        0.9338190     1.8669200    -0.1039590
  C        1.7048000    -0.5240370     0.0213290
  C       -1.2931220    -1.2007390    -0.1216240
  C       -2.6835930    -0.8875750    -0.0182810
  C        3.1317020    -0.0168610     0.0830780
  C       -2.7843930     0.4654540     0.1083230
  H        0.3040530     2.3204240    -0.8701650
  H        1.9743570     2.0597570    -0.3491110
  H        0.6954160     2.3257170     0.8600750
  H       -0.8317010    -2.1668680    -0.2305290
  H       -3.5070380    -1.5886770    -0.0382780
  H        3.2875770     0.6796840     0.9111130
  H        3.4247710     0.4818120    -0.8454740
  H        3.7649310    -0.8918910     0.2258400
  H       -3.6032960     1.1610050     0.2088840
units angstrom
no_reorient  #important for SAPT in psi4, default
symmetry c1  #important for SAPT in psi4, default
}

set PROPERTIES_ORIGIN ["COM"]
properties('MP2/aug-cc-pvtz', properties = ['dipole'])
--------------------------------------------------------------------------

    Molecular point group: c1
  Charge       = 0
  Multiplicity = 1
  Basis Set: AUG-CC-PVTZ
    Blend: AUG-CC-PVTZ
  Basis Set: (AUG-CC-PVTZ AUX)
    Blend: AUG-CC-PVTZ-JKFIT

    Orbital Energies [Eh]
    ---------------------

    Doubly Occupied:

       1A    -20.632571     2A    -20.500780     3A    -15.620881
       4A    -11.342163     5A    -11.334905     6A    -11.293145
       7A    -11.285781     8A    -11.242026     9A    -11.231620
      10A    -11.217046    11A     -1.466334    12A     -1.387244
      13A     -1.255993    14A     -1.082833    15A     -1.034118
      16A     -0.980225    17A     -0.973743    18A     -0.848343
      19A     -0.804967    20A     -0.753507    21A     -0.686970
      22A     -0.677185    23A     -0.671725    24A     -0.653090
      25A     -0.626140    26A     -0.601750    27A     -0.590119
      28A     -0.575894    29A     -0.566236    30A     -0.559895
      31A     -0.551058    32A     -0.539522    33A     -0.520252
      34A     -0.426882    35A     -0.417642    36A     -0.394106
      37A     -0.293318

  @DF-RHF Final Energy:  -474.61009461591402

   => Energetics <=

    Nuclear Repulsion Energy =            528.8465668910267823
    One-Electron Energy =               -1695.6333056256871714
    Two-Electron Energy =                 692.1766441187464807
    Total Energy =                       -474.6100946159140221
  Basis Set: (AUG-CC-PVTZ AUX)
    Blend: AUG-CC-PVTZ-RI
    Molecular point group: c1

    Geometry (in Angstrom), charge = 0, multiplicity = 1:

       Center              X                  Y                   Z               Mass
    ------------   -----------------  -----------------  -----------------  -----------------
         O           -1.495964141496     1.077636930709     0.095316787607    15.994914619570
         O            1.489688858504    -1.685052069291     0.048579787607    15.994914619570
         N            0.770103558504     0.327437330709    -0.090438012393    14.003074004430
         C           -0.603061141496     0.049233930709    -0.047897212393    12.000000000000
         C            0.969473858504     1.912391930709    -0.103443212393    12.000000000000
         C            1.740454858504    -0.478565069291     0.021844787607    12.000000000000
         C           -1.257467141496    -1.155267069291    -0.121108212393    12.000000000000
         C           -2.647938141496    -0.842103069291    -0.017765212393    12.000000000000
         C            3.167356858504     0.028610930709     0.083593787607    12.000000000000
         C           -2.748738141496     0.510925930709     0.108838787607    12.000000000000
         H            0.339707858504     2.365895930709    -0.869649212393     1.007825032230
         H            2.010011858504     2.105228930709    -0.348595212393     1.007825032230
         H            0.731070858504     2.371188930709     0.860590787607     1.007825032230
         H           -0.796046141496    -2.121396069291    -0.230013212393     1.007825032230
         H           -3.471383141496    -1.543205069291    -0.037762212393     1.007825032230
         H            3.323231858504     0.725155930709     0.911628787607     1.007825032230
         H            3.460425858504     0.527283930709    -0.844958212393     1.007825032230
         H            3.800585858504    -0.846419069291     0.226355787607     1.007825032230
         H           -3.567641141496     1.206476930709     0.209399787607     1.007825032230

  Basis Set: AUG-CC-PVTZ
    Blend: AUG-CC-PVTZ
  Basis Set: (AUG-CC-PVTZ AUX)
    Blend: AUG-CC-PVTZ-JKFIT
	 Reference Energy          =    -474.6100946159140221 [Eh]
	 Singles Energy            =      -0.0000000000000000 [Eh]
	 Same-Spin Energy          =      -0.4917105918891953 [Eh]
	 Opposite-Spin Energy      =      -1.5282719269565814 [Eh]
	 Correlation Energy        =      -2.0199825188457767 [Eh]
	 Total Energy              =    -476.6300771347598015 [Eh]

	 ================> DF-SCS-MP2 Energies <==================
	-----------------------------------------------------------
	 SCS Same-Spin Scale       =       0.3333333333333333 [-]
	 SCS Opposite-Spin Scale   =       1.2000000000000000 [-]
	 SCS Same-Spin Energy      =      -0.1639035306297318 [Eh]
	 SCS Opposite-Spin Energy  =      -1.8339263123478977 [Eh]
	 SCS Correlation Energy    =      -1.9978298429776296 [Eh]
	 SCS Total Energy          =    -476.6079244588916595 [Eh]
	-----------------------------------------------------------

  Dipole Moment: [D]
     X:     0.1037      Y:     3.8780      Z:    -0.1342     Total:     3.8817

*** Psi4 exiting successfully. Buy a developer a beer!
