                               Psi4 1.3.2 release

  ==> Input File <==

--------------------------------------------------------------------------
#psi4
#
memory 32 gb

molecule  {
0 1
  O       -1.5316190     1.0321650     0.0948010
  O        1.4540340    -1.7305240     0.0480640
  N        0.6983760     0.4234810    -0.0768570
  C       -0.6458436     0.0271633    -0.0486750
  C        0.9338190     1.8669200    -0.1039590
  C        1.7048000    -0.5240370     0.0213290
  C       -1.2931220    -1.2007390    -0.1216240
  C       -2.6835930    -0.8875750    -0.0182810
  C        3.1317020    -0.0168610     0.0830780
  C       -2.7843930     0.4654540     0.1083230
  H        0.3040530     2.3204240    -0.8701650
  H        1.9743570     2.0597570    -0.3491110
  H        0.6954160     2.3257170     0.8600750
  H       -0.8317010    -2.1668680    -0.2305290
  H       -3.5070380    -1.5886770    -0.0382780
  H        3.2875770     0.6796840     0.9111130
  H        3.4247710     0.4818120    -0.8454740
  H        3.7649310    -0.8918910     0.2258400
  H       -3.6032960     1.1610050     0.2088840
units angstrom
no_reorient  #important for SAPT in psi4, default
symmetry c1  #important for SAPT in psi4, default
}

set PROPERTIES_ORIGIN ["COM"]
properties('MP2/aug-cc-pvtz', properties = ['dipole'])
--------------------------------------------------------------------------

    Molecular point group: c1
  Charge       = 0
  Multiplicity = 1
  Basis Set: AUG-CC-PVTZ
    Blend: AUG-CC-PVTZ
  Basis Set: (AUG-CC-PVTZ AUX)
    Blend: AUG-CC-PVTZ-JKFIT

    Orbital Energies [Eh]
    ---------------------

    Doubly Occupied:

       1A    -20.628543     2A    -20.528514     3A    -15.617484
       4A    -11.366026     5A    -11.334110     6A    -11.279269
       7A    -11.278991     8A    -11.247115     9A    -11.229796
      10A    -11.215537    11A     -1.471492    12A     -1.384834
      13A     -1.263207    14A     -1.078527    15A     -1.032630
      16A     -0.990728    17A     -0.955268    18A     -0.836222
      19A     -0.796735    20A     -0.753031    21A     -0.702977
      22A     -0.680439    23A     -0.674760    24A     -0.650864
      25A     -0.625687    26A     -0.593477    27A     -0.591032
      28A     -0.588918    29A     -0.567777    30A     -0.561082
      31A     -0.552006    32A     -0.537853    33A     -0.526788
      34A     -0.433960    35A     -0.431134    36A     -0.391708
      37A     -0.285184

  @DF-RHF Final Energy:  -474.63395305549903

   => Energetics <=

    Nuclear Repulsion Energy =            528.0823772293731508
    One-Electron Energy =               -1694.0652491238859056
    Two-Electron Energy =                 691.3489188390137770
    Total Energy =                       -474.6339530554989778
  Basis Set: (AUG-CC-PVTZ AUX)
    Blend: AUG-CC-PVTZ-RI
    Molecular point group: c1

    Geometry (in Angstrom), charge = 0, multiplicity = 1:

       Center              X                  Y                   Z               Mass
    ------------   -----------------  -----------------  -----------------  -----------------
         O           -1.491716724914     1.061367587501     0.093919909396    15.994914619570
         O            1.493936275086    -1.701321412499     0.047182909396    15.994914619570
         N            0.738278275086     0.452683587501    -0.077738090604    14.003074004430
         C           -0.605941324914     0.056365887501    -0.049556090604    12.000000000000
         C            0.973721275086     1.896122587501    -0.104840090604    12.000000000000
         C            1.744702275086    -0.494834412499     0.020447909396    12.000000000000
         C           -1.253219724914    -1.171536412499    -0.122505090604    12.000000000000
         C           -2.643690724914    -0.858372412499    -0.019162090604    12.000000000000
         C            3.171604275086     0.012341587501     0.082196909396    12.000000000000
         C           -2.744490724914     0.494656587501     0.107441909396    12.000000000000
         H            0.343955275086     2.349626587501    -0.871046090604     1.007825032230
         H            2.014259275086     2.088959587501    -0.349992090604     1.007825032230
         H            0.735318275086     2.354919587501     0.859193909396     1.007825032230
         H           -0.791798724914    -2.137665412499    -0.231410090604     1.007825032230
         H           -3.467135724914    -1.559474412499    -0.039159090604     1.007825032230
         H            3.327479275086     0.708886587501     0.910231909396     1.007825032230
         H            3.464673275086     0.511014587501    -0.846355090604     1.007825032230
         H            3.804833275086    -0.862688412499     0.224958909396     1.007825032230
         H           -3.563393724914     1.190207587501     0.208002909396     1.007825032230

  Basis Set: AUG-CC-PVTZ
    Blend: AUG-CC-PVTZ
  Basis Set: (AUG-CC-PVTZ AUX)
    Blend: AUG-CC-PVTZ-JKFIT
	 Reference Energy          =    -474.6339530554990347 [Eh]
	 Singles Energy            =      -0.0000000000000000 [Eh]
	 Same-Spin Energy          =      -0.4920461759263856 [Eh]
	 Opposite-Spin Energy      =      -1.5279986612309351 [Eh]
	 Correlation Energy        =      -2.0200448371573207 [Eh]
	 Total Energy              =    -476.6539978926563776 [Eh]

	 ================> DF-SCS-MP2 Energies <==================
	-----------------------------------------------------------
	 SCS Same-Spin Scale       =       0.3333333333333333 [-]
	 SCS Opposite-Spin Scale   =       1.2000000000000000 [-]
	 SCS Same-Spin Energy      =      -0.1640153919754618 [Eh]
	 SCS Opposite-Spin Energy  =      -1.8335983934771221 [Eh]
	 SCS Correlation Energy    =      -1.9976137854525839 [Eh]
	 SCS Total Energy          =    -476.6315668409516206 [Eh]
	-----------------------------------------------------------

  Dipole Moment: [D]
     X:     0.6177      Y:     3.3244      Z:    -0.1233     Total:     3.3835

*** Psi4 exiting successfully. Buy a developer a beer!
