                               Psi4 1.3.2 release

  ==> Input File <==

--------------------------------------------------------------------------
#psi4
#
memory 32 gb

molecule  {
0 1
  O       -1.5316190     1.0321650     0.0948010
  O        1.4540340    -1.7305240     0.0480640
  N        0.6983760     0.4234810    -0.0768570
  C       -0.6458514     0.0270526    -0.0506779
  C        0.9338190     1.8669200    -0.1039590
  C        1.7048000    -0.5240370     0.0213290
  C       -1.2931220    -1.2007390    -0.1216240
  C       -2.6835930    -0.8875750    -0.0182810
  C        3.1317020    -0.0168610     0.0830780
  C       -2.7843930     0.4654540     0.1083230
  H        0.3040530     2.3204240    -0.8701650
  H        1.9743570     2.0597570    -0.3491110
  H        0.6954160     2.3257170     0.8600750
  H       -0.8317010    -2.1668680    -0.2305290
  H       -3.5070380    -1.5886770    -0.0382780
  H        3.2875770     0.6796840     0.9111130
  H        3.4247710     0.4818120    -0.8454740
  H        3.7649310    -0.8918910     0.2258400
  H       -3.6032960     1.1610050     0.2088840
units angstrom
no_reorient  #important for SAPT in psi4, default
symmetry c1  #important for SAPT in psi4, default
}

set PROPERTIES_ORIGIN ["COM"]
properties('MP2/aug-cc-pvtz', properties = ['dipole'])
--------------------------------------------------------------------------

    Molecular point group: c1
  Charge       = 0
  Multiplicity = 1
  Basis Set: AUG-CC-PVTZ
    Blend: AUG-CC-PVTZ
  Basis Set: (AUG-CC-PVTZ AUX)
    Blend: AUG-CC-PVTZ-JKFIT

    Orbital Energies [Eh]
    ---------------------

    Doubly Occupied:

       1A    -20.628496     2A    -20.528507     3A    -15.617479
       4A    -11.366022     5A    -11.334087     6A    -11.279292
       7A    -11.278984     8A    -11.247112     9A    -11.229793
      10A    -11.215550    11A     -1.471366    12A     -1.384826
      13A     -1.263194    14A     -1.078549    15A     -1.032623
      16A     -0.990721    17A     -0.955259    18A     -0.836230
      19A     -0.796715    20A     -0.753005    21A     -0.702966
      22A     -0.680421    23A     -0.674734    24A     -0.650845
      25A     -0.625653    26A     -0.593472    27A     -0.591011
      28A     -0.588914    29A     -0.567751    30A     -0.561107
      31A     -0.551980    32A     -0.537892    33A     -0.526784
      34A     -0.433944    35A     -0.431149    36A     -0.391711
      37A     -0.285220

  @DF-RHF Final Energy:  -474.63395823198459

   => Energetics <=

    Nuclear Repulsion Energy =            528.0794380943568740
    One-Electron Energy =               -1694.0600587068329332
    Two-Electron Energy =                 691.3466623804914661
    Total Energy =                       -474.6339582319845931
  Basis Set: (AUG-CC-PVTZ AUX)
    Blend: AUG-CC-PVTZ-RI
    Molecular point group: c1

    Geometry (in Angstrom), charge = 0, multiplicity = 1:

       Center              X                  Y                   Z               Mass
    ------------   -----------------  -----------------  -----------------  -----------------
         O           -1.491716051839     1.061377139983     0.094092742883    15.994914619570
         O            1.493936948161    -1.701311860017     0.047355742883    15.994914619570
         N            0.738278948161     0.452693139983    -0.077565257117    14.003074004430
         C           -0.605948451839     0.056264739983    -0.051386157117    12.000000000000
         C            0.973721948161     1.896132139983    -0.104667257117    12.000000000000
         C            1.744702948161    -0.494824860017     0.020620742883    12.000000000000
         C           -1.253219051839    -1.171526860017    -0.122332257117    12.000000000000
         C           -2.643690051839    -0.858362860017    -0.018989257117    12.000000000000
         C            3.171604948161     0.012351139983     0.082369742883    12.000000000000
         C           -2.744490051839     0.494666139983     0.107614742883    12.000000000000
         H            0.343955948161     2.349636139983    -0.870873257117     1.007825032230
         H            2.014259948161     2.088969139983    -0.349819257117     1.007825032230
         H            0.735318948161     2.354929139983     0.859366742883     1.007825032230
         H           -0.791798051839    -2.137655860017    -0.231237257117     1.007825032230
         H           -3.467135051839    -1.559464860017    -0.038986257117     1.007825032230
         H            3.327479948161     0.708896139983     0.910404742883     1.007825032230
         H            3.464673948161     0.511024139983    -0.846182257117     1.007825032230
         H            3.804833948161    -0.862678860017     0.225131742883     1.007825032230
         H           -3.563393051839     1.190217139983     0.208175742883     1.007825032230

  Basis Set: AUG-CC-PVTZ
    Blend: AUG-CC-PVTZ
  Basis Set: (AUG-CC-PVTZ AUX)
    Blend: AUG-CC-PVTZ-JKFIT
	 Reference Energy          =    -474.6339582319845931 [Eh]
	 Singles Energy            =      -0.0000000000000000 [Eh]
	 Same-Spin Energy          =      -0.4920455909297635 [Eh]
	 Opposite-Spin Energy      =      -1.5280044231947771 [Eh]
	 Correlation Energy        =      -2.0200500141245405 [Eh]
	 Total Energy              =    -476.6540082461091288 [Eh]

	 ================> DF-SCS-MP2 Energies <==================
	-----------------------------------------------------------
	 SCS Same-Spin Scale       =       0.3333333333333333 [-]
	 SCS Opposite-Spin Scale   =       1.2000000000000000 [-]
	 SCS Same-Spin Energy      =      -0.1640151969765878 [Eh]
	 SCS Opposite-Spin Energy  =      -1.8336053078337324 [Eh]
	 SCS Correlation Energy    =      -1.9976205048103202 [Eh]
	 SCS Total Energy          =    -476.6315787367948928 [Eh]
	-----------------------------------------------------------

  Dipole Moment: [D]
     X:     0.6175      Y:     3.3236      Z:    -0.1237     Total:     3.3828

*** Psi4 exiting successfully. Buy a developer a beer!
