                               Psi4 1.4a3.dev225

  ==> Input File <==

--------------------------------------------------------------------------
#psi4
#
memory 32 gb

molecule  {
0 1
  O       -1.5316190     1.0321650     0.0948010
  O        1.4540340    -1.7305240     0.0480640
  N        0.6983760     0.4234810    -0.0768570
  C       -0.6387160     0.0037620    -0.0484130
  C        0.9338190     1.8669200    -0.1039590
  C        1.7048000    -0.5240370     0.0213290
  C       -1.2931220    -1.2007390    -0.1216240
  C       -2.6835930    -0.8875750    -0.0182810
  C        3.1317020    -0.0168610     0.0830780
  C       -2.8026144     0.4572113     0.1085197
  H        0.3040530     2.3204240    -0.8701650
  H        1.9743570     2.0597570    -0.3491110
  H        0.6954160     2.3257170     0.8600750
  H       -0.8317010    -2.1668680    -0.2305290
  H       -3.5070380    -1.5886770    -0.0382780
  H        3.2875770     0.6796840     0.9111130
  H        3.4247710     0.4818120    -0.8454740
  H        3.7649310    -0.8918910     0.2258400
  H       -3.6032960     1.1610050     0.2088840
units angstrom
no_reorient  #important for SAPT in psi4, default
symmetry c1  #important for SAPT in psi4, default
}

set PROPERTIES_ORIGIN ["COM"]
properties('MP2/aug-cc-pvtz', properties = ['dipole'])
--------------------------------------------------------------------------

    Molecular point group: c1
  Charge       = 0
  Multiplicity = 1
  Basis Set: AUG-CC-PVTZ
    Blend: AUG-CC-PVTZ
  Basis Set: (AUG-CC-PVTZ AUX)
    Blend: AUG-CC-PVTZ-JKFIT

    Orbital Energies [Eh]
    ---------------------

    Doubly Occupied:

       1A    -20.621756     2A    -20.528745     3A    -15.617593
       4A    -11.365800     5A    -11.333308     6A    -11.279660
       7A    -11.278822     8A    -11.246898     9A    -11.230287
      10A    -11.214896    11A     -1.454742    12A     -1.384912
      13A     -1.262260    14A     -1.080380    15A     -1.031807
      16A     -0.990834    17A     -0.954387    18A     -0.836547
      19A     -0.794393    20A     -0.748950    21A     -0.702437
      22A     -0.679789    23A     -0.671784    24A     -0.648361
      25A     -0.620041    26A     -0.592487    27A     -0.589301
      28A     -0.588011    29A     -0.566522    30A     -0.562041
      31A     -0.548323    32A     -0.543595    33A     -0.526953
      34A     -0.434255    35A     -0.431399    36A     -0.393179
      37A     -0.288772

  @DF-RHF Final Energy:  -474.63390703156324

   => Energetics <=

    Nuclear Repulsion Energy =            527.6292318292705659
    One-Electron Energy =               -1693.2378184793531091
    Two-Electron Energy =                 690.9746796185193034
    Total Energy =                       -474.6339070315632398
  Basis Set: (AUG-CC-PVTZ AUX)
    Blend: AUG-CC-PVTZ-RI
    Molecular point group: c1

    Geometry (in Angstrom), charge = 0, multiplicity = 1:

       Center              X                  Y                   Z               Mass
    ------------   -----------------  -----------------  -----------------  -----------------
         O           -1.490759422932     1.064098199546     0.093880327430    15.994914619570
         O            1.494893577068    -1.698590800454     0.047143327430    15.994914619570
         N            0.739235577068     0.455414199546    -0.077777672570    14.003074004430
         C           -0.597856422932     0.035695199546    -0.049333672570    12.000000000000
         C            0.974678577068     1.898853199546    -0.104879672570    12.000000000000
         C            1.745659577068    -0.492103800454     0.020408327430    12.000000000000
         C           -1.252262422932    -1.168805800454    -0.122544672570    12.000000000000
         C           -2.642733422932    -0.855641800454    -0.019201672570    12.000000000000
         C            3.172561577068     0.015072199546     0.082157327430    12.000000000000
         C           -2.761754822932     0.489144499546     0.107599027430    12.000000000000
         H            0.344912577068     2.352357199546    -0.871085672570     1.007825032230
         H            2.015216577068     2.091690199546    -0.350031672570     1.007825032230
         H            0.736275577068     2.357650199546     0.859154327430     1.007825032230
         H           -0.790841422932    -2.134934800454    -0.231449672570     1.007825032230
         H           -3.466178422932    -1.556743800454    -0.039198672570     1.007825032230
         H            3.328436577068     0.711617199546     0.910192327430     1.007825032230
         H            3.465630577068     0.513745199546    -0.846394672570     1.007825032230
         H            3.805790577068    -0.859957800454     0.224919327430     1.007825032230
         H           -3.562436422932     1.192938199546     0.207963327430     1.007825032230

  Basis Set: AUG-CC-PVTZ
    Blend: AUG-CC-PVTZ
  Basis Set: (AUG-CC-PVTZ AUX)
    Blend: AUG-CC-PVTZ-JKFIT
	 Reference Energy          =    -474.6339070315632398 [Eh]
	 Singles Energy            =      -0.0000000000000000 [Eh]
	 Same-Spin Energy          =      -0.4917335140175034 [Eh]
	 Opposite-Spin Energy      =      -1.5282870561124118 [Eh]
	 Correlation Energy        =      -2.0200205701299150 [Eh]
	 Total Energy              =    -476.6539276016931694 [Eh]

	 ================> DF-SCS-MP2 Energies <==================
	-----------------------------------------------------------
	 SCS Same-Spin Scale       =       0.3333333333333333 [-]
	 SCS Opposite-Spin Scale   =       1.2000000000000000 [-]
	 SCS Same-Spin Energy      =      -0.1639111713391678 [Eh]
	 SCS Opposite-Spin Energy  =      -1.8339444673348941 [Eh]
	 SCS Correlation Energy    =      -1.9978556386740620 [Eh]
	 SCS Total Energy          =    -476.6317626702373218 [Eh]
	-----------------------------------------------------------

  Dipole Moment: [D]
     X:     0.6149      Y:     3.2601      Z:    -0.1308     Total:     3.3202

*** Psi4 exiting successfully. Buy a developer a beer!
