                               Psi4 1.3.2 release

  ==> Input File <==

--------------------------------------------------------------------------
#psi4
#
memory 32 gb

molecule  {
0 1
  O       -1.5316190     1.0321650     0.0948010
  O        1.4540340    -1.7305240     0.0480640
  N        0.6983760     0.4234810    -0.0768570
  C       -0.6598365     0.0148683    -0.0462710
  C        0.9338190     1.8669200    -0.1039590
  C        1.7048000    -0.5240370     0.0213290
  C       -1.2931220    -1.2007390    -0.1216240
  C       -2.6835930    -0.8875750    -0.0182810
  C        3.1317020    -0.0168610     0.0830780
  C       -2.7843930     0.4654540     0.1083230
  H        0.3040530     2.3204240    -0.8701650
  H        1.9743570     2.0597570    -0.3491110
  H        0.6954160     2.3257170     0.8600750
  H       -0.8317010    -2.1668680    -0.2305290
  H       -3.5070380    -1.5886770    -0.0382780
  H        3.2875770     0.6796840     0.9111130
  H        3.4247710     0.4818120    -0.8454740
  H        3.7649310    -0.8918910     0.2258400
  H       -3.6032960     1.1610050     0.2088840
units angstrom
no_reorient  #important for SAPT in psi4, default
symmetry c1  #important for SAPT in psi4, default
}

set PROPERTIES_ORIGIN ["COM"]
properties('MP2/aug-cc-pvtz', properties = ['dipole'])
--------------------------------------------------------------------------

    Molecular point group: c1
  Charge       = 0
  Multiplicity = 1
  Basis Set: AUG-CC-PVTZ
    Blend: AUG-CC-PVTZ
  Basis Set: (AUG-CC-PVTZ AUX)
    Blend: AUG-CC-PVTZ-JKFIT

    Orbital Energies [Eh]
    ---------------------

    Doubly Occupied:

       1A    -20.628847     2A    -20.527082     3A    -15.615965
       4A    -11.364692     5A    -11.332964     6A    -11.280488
       7A    -11.277881     8A    -11.246169     9A    -11.230539
      10A    -11.215104    11A     -1.472423    12A     -1.383230
      13A     -1.258345    14A     -1.082445    15A     -1.031108
      16A     -0.990472    17A     -0.954421    18A     -0.833827
      19A     -0.797003    20A     -0.754373    21A     -0.702147
      22A     -0.679141    23A     -0.673428    24A     -0.649244
      25A     -0.625947    26A     -0.592541    27A     -0.590036
      28A     -0.588040    29A     -0.567541    30A     -0.563429
      31A     -0.551638    32A     -0.539555    33A     -0.525583
      34A     -0.432337    35A     -0.429400    36A     -0.393205
      37A     -0.288878

  @DF-RHF Final Energy:  -474.63464778888016

   => Energetics <=

    Nuclear Repulsion Energy =            528.0485540689998061
    One-Electron Energy =               -1694.0274724253833938
    Two-Electron Energy =                 691.3442705675033721
    Total Energy =                       -474.6346477888801019
  Basis Set: (AUG-CC-PVTZ AUX)
    Blend: AUG-CC-PVTZ-RI
    Molecular point group: c1

    Geometry (in Angstrom), charge = 0, multiplicity = 1:

       Center              X                  Y                   Z               Mass
    ------------   -----------------  -----------------  -----------------  -----------------
         O           -1.490509254895     1.062428542977     0.093712464340    15.994914619570
         O            1.495143745105    -1.700260457023     0.046975464340    15.994914619570
         N            0.739485745105     0.453744542977    -0.077945535660    14.003074004430
         C           -0.618726754895     0.045131842977    -0.047359535660    12.000000000000
         C            0.974928745105     1.897183542977    -0.105047535660    12.000000000000
         C            1.745909745105    -0.493773457023     0.020240464340    12.000000000000
         C           -1.252012254895    -1.170475457023    -0.122712535660    12.000000000000
         C           -2.642483254895    -0.857311457023    -0.019369535660    12.000000000000
         C            3.172811745105     0.013402542977     0.081989464340    12.000000000000
         C           -2.743283254895     0.495717542977     0.107234464340    12.000000000000
         H            0.345162745105     2.350687542977    -0.871253535660     1.007825032230
         H            2.015466745105     2.090020542977    -0.350199535660     1.007825032230
         H            0.736525745105     2.355980542977     0.858986464340     1.007825032230
         H           -0.790591254895    -2.136604457023    -0.231617535660     1.007825032230
         H           -3.465928254895    -1.558413457023    -0.039366535660     1.007825032230
         H            3.328686745105     0.709947542977     0.910024464340     1.007825032230
         H            3.465880745105     0.512075542977    -0.846562535660     1.007825032230
         H            3.806040745105    -0.861627457023     0.224751464340     1.007825032230
         H           -3.562186254895     1.191268542977     0.207795464340     1.007825032230

  Basis Set: AUG-CC-PVTZ
    Blend: AUG-CC-PVTZ
  Basis Set: (AUG-CC-PVTZ AUX)
    Blend: AUG-CC-PVTZ-JKFIT
	 Reference Energy          =    -474.6346477888801587 [Eh]
	 Singles Energy            =      -0.0000000000000000 [Eh]
	 Same-Spin Energy          =      -0.4916569858055095 [Eh]
	 Opposite-Spin Energy      =      -1.5276075619909122 [Eh]
	 Correlation Energy        =      -2.0192645477964217 [Eh]
	 Total Energy              =    -476.6539123366765693 [Eh]

	 ================> DF-SCS-MP2 Energies <==================
	-----------------------------------------------------------
	 SCS Same-Spin Scale       =       0.3333333333333333 [-]
	 SCS Opposite-Spin Scale   =       1.2000000000000000 [-]
	 SCS Same-Spin Energy      =      -0.1638856619351698 [Eh]
	 SCS Opposite-Spin Energy  =      -1.8331290743890944 [Eh]
	 SCS Correlation Energy    =      -1.9970147363242643 [Eh]
	 SCS Total Energy          =    -476.6316625252044332 [Eh]
	-----------------------------------------------------------

  Dipole Moment: [D]
     X:     0.5278      Y:     3.2877      Z:    -0.1253     Total:     3.3321

*** Psi4 exiting successfully. Buy a developer a beer!
