                               Psi4 1.3.2 release

  ==> Input File <==

--------------------------------------------------------------------------
#psi4
#
memory 32 gb

molecule  {
0 1
  O       -1.5134099     1.0476420     0.0951968
  O        1.4540340    -1.7305240     0.0480640
  N        0.6983760     0.4234810    -0.0768570
  C       -0.6387160     0.0037620    -0.0484130
  C        0.9338190     1.8669200    -0.1039590
  C        1.7048000    -0.5240370     0.0213290
  C       -1.2931220    -1.2007390    -0.1216240
  C       -2.6835930    -0.8875750    -0.0182810
  C        3.1317020    -0.0168610     0.0830780
  C       -2.7843930     0.4654540     0.1083230
  H        0.3040530     2.3204240    -0.8701650
  H        1.9743570     2.0597570    -0.3491110
  H        0.6954160     2.3257170     0.8600750
  H       -0.8317010    -2.1668680    -0.2305290
  H       -3.5070380    -1.5886770    -0.0382780
  H        3.2875770     0.6796840     0.9111130
  H        3.4247710     0.4818120    -0.8454740
  H        3.7649310    -0.8918910     0.2258400
  H       -3.6032960     1.1610050     0.2088840
units angstrom
no_reorient  #important for SAPT in psi4, default
symmetry c1  #important for SAPT in psi4, default
}

set PROPERTIES_ORIGIN ["COM"]
properties('MP2/aug-cc-pvtz', properties = ['dipole'])
--------------------------------------------------------------------------

    Molecular point group: c1
  Charge       = 0
  Multiplicity = 1
  Basis Set: AUG-CC-PVTZ
    Blend: AUG-CC-PVTZ
  Basis Set: (AUG-CC-PVTZ AUX)
    Blend: AUG-CC-PVTZ-JKFIT

    Orbital Energies [Eh]
    ---------------------

    Doubly Occupied:

       1A    -20.624352     2A    -20.528401     3A    -15.616778
       4A    -11.365288     5A    -11.333440     6A    -11.281854
       7A    -11.278387     8A    -11.246538     9A    -11.232195
      10A    -11.215615    11A     -1.455737    12A     -1.384525
      13A     -1.261584    14A     -1.082097    15A     -1.030977
      16A     -0.989438    17A     -0.953130    18A     -0.836266
      19A     -0.793396    20A     -0.750137    21A     -0.701908
      22A     -0.679349    23A     -0.671942    24A     -0.645754
      25A     -0.620023    26A     -0.592347    27A     -0.589434
      28A     -0.588595    29A     -0.566309    30A     -0.562734
      31A     -0.550134    32A     -0.542387    33A     -0.526668
      34A     -0.433966    35A     -0.431055    36A     -0.394275
      37A     -0.287857

  @DF-RHF Final Energy:  -474.63289739998578

   => Energetics <=

    Nuclear Repulsion Energy =            527.7154750179421399
    One-Electron Energy =               -1693.4070015993750076
    Two-Electron Energy =                 691.0586291814469178
    Total Energy =                       -474.6328973999858363
  Basis Set: (AUG-CC-PVTZ AUX)
    Blend: AUG-CC-PVTZ-RI
    Molecular point group: c1

    Geometry (in Angstrom), charge = 0, multiplicity = 1:

       Center              X                  Y                   Z               Mass
    ------------   -----------------  -----------------  -----------------  -----------------
         O           -1.476217068185     1.077083775695     0.094247576501    15.994914619570
         O            1.491226831815    -1.701082224305     0.047114776501    15.994914619570
         N            0.735568831815     0.452922775695    -0.077806223499    14.003074004430
         C           -0.601523168185     0.033203775695    -0.049362223499    12.000000000000
         C            0.971011831815     1.896361775695    -0.104908223499    12.000000000000
         C            1.741992831815    -0.494595224305     0.020379776501    12.000000000000
         C           -1.255929168185    -1.171297224305    -0.122573223499    12.000000000000
         C           -2.646400168185    -0.858133224305    -0.019230223499    12.000000000000
         C            3.168894831815     0.012580775695     0.082128776501    12.000000000000
         C           -2.747200168185     0.494895775695     0.107373776501    12.000000000000
         H            0.341245831815     2.349865775695    -0.871114223499     1.007825032230
         H            2.011549831815     2.089198775695    -0.350060223499     1.007825032230
         H            0.732608831815     2.355158775695     0.859125776501     1.007825032230
         H           -0.794508168185    -2.137426224305    -0.231478223499     1.007825032230
         H           -3.469845168185    -1.559235224305    -0.039227223499     1.007825032230
         H            3.324769831815     0.709125775695     0.910163776501     1.007825032230
         H            3.461963831815     0.511253775695    -0.846423223499     1.007825032230
         H            3.802123831815    -0.862449224305     0.224890776501     1.007825032230
         H           -3.566103168185     1.190446775695     0.207934776501     1.007825032230

  Basis Set: AUG-CC-PVTZ
    Blend: AUG-CC-PVTZ
  Basis Set: (AUG-CC-PVTZ AUX)
    Blend: AUG-CC-PVTZ-JKFIT
	 Reference Energy          =    -474.6328973999857794 [Eh]
	 Singles Energy            =      -0.0000000000000000 [Eh]
	 Same-Spin Energy          =      -0.4919155705658693 [Eh]
	 Opposite-Spin Energy      =      -1.5288333967414163 [Eh]
	 Correlation Energy        =      -2.0207489673072856 [Eh]
	 Total Energy              =    -476.6536463672930495 [Eh]

	 ================> DF-SCS-MP2 Energies <==================
	-----------------------------------------------------------
	 SCS Same-Spin Scale       =       0.3333333333333333 [-]
	 SCS Opposite-Spin Scale   =       1.2000000000000000 [-]
	 SCS Same-Spin Energy      =      -0.1639718568552898 [Eh]
	 SCS Opposite-Spin Energy  =      -1.8346000760896994 [Eh]
	 SCS Correlation Energy    =      -1.9985719329449891 [Eh]
	 SCS Total Energy          =    -476.6314693329307488 [Eh]
	-----------------------------------------------------------

  Dipole Moment: [D]
     X:     0.5808      Y:     3.2214      Z:    -0.1343     Total:     3.2761

*** Psi4 exiting successfully. Buy a developer a beer!
