                               Psi4 1.4a3.dev225

  ==> Input File <==

--------------------------------------------------------------------------
#psi4
#
memory 32 gb

molecule  {
0 1
  O       -1.5316190     1.0321650     0.0948010
  O        1.4540340    -1.7305240     0.0480640
  N        0.6983760     0.4234810    -0.0768570
  C       -0.6387160     0.0037620    -0.0484130
  C        0.9338190     1.8669200    -0.1039590
  C        1.7048000    -0.5240370     0.0213290
  C       -1.2931220    -1.2007390    -0.1216240
  C       -2.6835930    -0.8875750    -0.0182810
  C        3.1317020    -0.0168610     0.0830780
  C       -2.8299465     0.4448472     0.1088147
  H        0.3040530     2.3204240    -0.8701650
  H        1.9743570     2.0597570    -0.3491110
  H        0.6954160     2.3257170     0.8600750
  H       -0.8317010    -2.1668680    -0.2305290
  H       -3.5070380    -1.5886770    -0.0382780
  H        3.2875770     0.6796840     0.9111130
  H        3.4247710     0.4818120    -0.8454740
  H        3.7649310    -0.8918910     0.2258400
  H       -3.6032960     1.1610050     0.2088840
units angstrom
no_reorient  #important for SAPT in psi4, default
symmetry c1  #important for SAPT in psi4, default
}

set PROPERTIES_ORIGIN ["COM"]
properties('MP2/aug-cc-pvtz', properties = ['dipole'])
--------------------------------------------------------------------------

    Molecular point group: c1
  Charge       = 0
  Multiplicity = 1
  Basis Set: AUG-CC-PVTZ
    Blend: AUG-CC-PVTZ
  Basis Set: (AUG-CC-PVTZ AUX)
    Blend: AUG-CC-PVTZ-JKFIT

    Orbital Energies [Eh]
    ---------------------

    Doubly Occupied:

       1A    -20.617108     2A    -20.529090     3A    -15.617851
       4A    -11.366099     5A    -11.334452     6A    -11.278783
       7A    -11.278474     8A    -11.247023     9A    -11.231771
      10A    -11.214030    11A     -1.444483    12A     -1.384808
      13A     -1.261616    14A     -1.080793    15A     -1.031546
      16A     -0.991147    17A     -0.953678    18A     -0.837217
      19A     -0.793798    20A     -0.746322    21A     -0.701822
      22A     -0.679980    23A     -0.670307    24A     -0.647430
      25A     -0.616087    26A     -0.591807    27A     -0.589768
      28A     -0.585765    29A     -0.567399    30A     -0.562080
      31A     -0.546952    32A     -0.543919    33A     -0.526736
      34A     -0.433848    35A     -0.431235    36A     -0.395267
      37A     -0.290436

  @DF-RHF Final Energy:  -474.63178909214736

   => Energetics <=

    Nuclear Repulsion Energy =            527.1004420987493404
    One-Electron Energy =               -1692.2226068810753077
    Two-Electron Energy =                 690.4903756901785528
    Total Energy =                       -474.6317890921473008
  Basis Set: (AUG-CC-PVTZ AUX)
    Blend: AUG-CC-PVTZ-RI
    Molecular point group: c1

    Geometry (in Angstrom), charge = 0, multiplicity = 1:

       Center              X                  Y                   Z               Mass
    ------------   -----------------  -----------------  -----------------  -----------------
         O           -1.488400891726     1.065165117774     0.093854871402    15.994914619570
         O            1.497252108274    -1.697523882226     0.047117871402    15.994914619570
         N            0.741594108274     0.456481117774    -0.077803128598    14.003074004430
         C           -0.595497891726     0.036762117774    -0.049359128598    12.000000000000
         C            0.977037108274     1.899920117774    -0.104905128598    12.000000000000
         C            1.748018108274    -0.491036882226     0.020382871402    12.000000000000
         C           -1.249903891726    -1.167738882226    -0.122570128598    12.000000000000
         C           -2.640374891726    -0.854574882226    -0.019227128598    12.000000000000
         C            3.174920108274     0.016139117774     0.082131871402    12.000000000000
         C           -2.786728391726     0.477847317774     0.107868571402    12.000000000000
         H            0.347271108274     2.353424117774    -0.871111128598     1.007825032230
         H            2.017575108274     2.092757117774    -0.350057128598     1.007825032230
         H            0.738634108274     2.358717117774     0.859128871402     1.007825032230
         H           -0.788482891726    -2.133867882226    -0.231475128598     1.007825032230
         H           -3.463819891726    -1.555676882226    -0.039224128598     1.007825032230
         H            3.330795108274     0.712684117774     0.910166871402     1.007825032230
         H            3.467989108274     0.514812117774    -0.846420128598     1.007825032230
         H            3.808149108274    -0.858890882226     0.224893871402     1.007825032230
         H           -3.560077891726     1.194005117774     0.207937871402     1.007825032230

  Basis Set: AUG-CC-PVTZ
    Blend: AUG-CC-PVTZ
  Basis Set: (AUG-CC-PVTZ AUX)
    Blend: AUG-CC-PVTZ-JKFIT
	 Reference Energy          =    -474.6317890921473577 [Eh]
	 Singles Energy            =      -0.0000000000000000 [Eh]
	 Same-Spin Energy          =      -0.4915639026148942 [Eh]
	 Opposite-Spin Energy      =      -1.5284877757978905 [Eh]
	 Correlation Energy        =      -2.0200516784127847 [Eh]
	 Total Energy              =    -476.6518407705601703 [Eh]

	 ================> DF-SCS-MP2 Energies <==================
	-----------------------------------------------------------
	 SCS Same-Spin Scale       =       0.3333333333333333 [-]
	 SCS Opposite-Spin Scale   =       1.2000000000000000 [-]
	 SCS Same-Spin Energy      =      -0.1638546342049647 [Eh]
	 SCS Opposite-Spin Energy  =      -1.8341853309574685 [Eh]
	 SCS Correlation Energy    =      -1.9980399651624332 [Eh]
	 SCS Total Energy          =    -476.6298290573097916 [Eh]
	-----------------------------------------------------------

  Dipole Moment: [D]
     X:     0.5865      Y:     3.2249      Z:    -0.1309     Total:     3.2805

*** Psi4 exiting successfully. Buy a developer a beer!
