                               Psi4 1.3.2 release

  ==> Input File <==

--------------------------------------------------------------------------
#psi4
#
memory 32 gb

molecule  {
0 1
  O       -1.5316190     1.0321650     0.0948010
  O        1.4540340    -1.7305240     0.0480640
  N        0.6983760     0.4234810    -0.0768570
  C       -0.8294963    -0.0561248    -0.0443545
  C        0.9338190     1.8669200    -0.1039590
  C        1.7048000    -0.5240370     0.0213290
  C       -1.2931220    -1.2007390    -0.1216240
  C       -2.6835930    -0.8875750    -0.0182810
  C        3.1317020    -0.0168610     0.0830780
  C       -2.7843930     0.4654540     0.1083230
  H        0.3040530     2.3204240    -0.8701650
  H        1.9743570     2.0597570    -0.3491110
  H        0.6954160     2.3257170     0.8600750
  H       -0.8317010    -2.1668680    -0.2305290
  H       -3.5070380    -1.5886770    -0.0382780
  H        3.2875770     0.6796840     0.9111130
  H        3.4247710     0.4818120    -0.8454740
  H        3.7649310    -0.8918910     0.2258400
  H       -3.6032960     1.1610050     0.2088840
units angstrom
no_reorient  #important for SAPT in psi4, default
symmetry c1  #important for SAPT in psi4, default
}

set PROPERTIES_ORIGIN ["COM"]
properties('MP2/aug-cc-pvtz', properties = ['dipole'])
--------------------------------------------------------------------------

    Molecular point group: c1
  Charge       = 0
  Multiplicity = 1
  Basis Set: AUG-CC-PVTZ
    Blend: AUG-CC-PVTZ
  Basis Set: (AUG-CC-PVTZ AUX)
    Blend: AUG-CC-PVTZ-JKFIT

    Orbital Energies [Eh]
    ---------------------

    Doubly Occupied:

       1A    -20.640923     2A    -20.512503     3A    -15.596484
       4A    -11.351094     5A    -11.330006     6A    -11.290882
       7A    -11.266147     8A    -11.242235     9A    -11.236592
      10A    -11.210439    11A     -1.506354    12A     -1.367404
      13A     -1.216402    14A     -1.132101    15A     -1.020568
      16A     -0.990034    17A     -0.940525    18A     -0.837205
      19A     -0.784988    20A     -0.771030    21A     -0.695918
      22A     -0.681467    23A     -0.664313    24A     -0.636507
      25A     -0.626879    26A     -0.612890    27A     -0.588946
      28A     -0.582427    29A     -0.575697    30A     -0.559850
      31A     -0.547552    32A     -0.516589    33A     -0.511944
      34A     -0.428406    35A     -0.416286    36A     -0.395837
      37A     -0.318525

  @DF-RHF Final Energy:  -474.58578473840765

   => Energetics <=

    Nuclear Repulsion Energy =            528.2832718923418724
    One-Electron Energy =               -1694.5302186910776072
    Two-Electron Energy =                 691.6611620603281381
    Total Energy =                       -474.5857847384075967
  Basis Set: (AUG-CC-PVTZ AUX)
    Blend: AUG-CC-PVTZ-RI
    Molecular point group: c1

    Geometry (in Angstrom), charge = 0, multiplicity = 1:

       Center              X                  Y                   Z               Mass
    ------------   -----------------  -----------------  -----------------  -----------------
         O           -1.475869035784     1.068554652635     0.093547086449    15.994914619570
         O            1.509783964216    -1.694134347365     0.046810086449    15.994914619570
         N            0.754125964216     0.459870652635    -0.078110913551    14.003074004430
         C           -0.773746335784    -0.019735147365    -0.045608413551    12.000000000000
         C            0.989568964216     1.903309652635    -0.105212913551    12.000000000000
         C            1.760549964216    -0.487647347365     0.020075086449    12.000000000000
         C           -1.237372035784    -1.164349347365    -0.122877913551    12.000000000000
         C           -2.627843035784    -0.851185347365    -0.019534913551    12.000000000000
         C            3.187451964216     0.019528652635     0.081824086449    12.000000000000
         C           -2.728643035784     0.501843652635     0.107069086449    12.000000000000
         H            0.359802964216     2.356813652635    -0.871418913551     1.007825032230
         H            2.030106964216     2.096146652635    -0.350364913551     1.007825032230
         H            0.751165964216     2.362106652635     0.858821086449     1.007825032230
         H           -0.775951035784    -2.130478347365    -0.231782913551     1.007825032230
         H           -3.451288035784    -1.552287347365    -0.039531913551     1.007825032230
         H            3.343326964216     0.716073652635     0.909859086449     1.007825032230
         H            3.480520964216     0.518201652635    -0.846727913551     1.007825032230
         H            3.820680964216    -0.855501347365     0.224586086449     1.007825032230
         H           -3.547546035784     1.197394652635     0.207630086449     1.007825032230

  Basis Set: AUG-CC-PVTZ
    Blend: AUG-CC-PVTZ
  Basis Set: (AUG-CC-PVTZ AUX)
    Blend: AUG-CC-PVTZ-JKFIT
	 Reference Energy          =    -474.5857847384076535 [Eh]
	 Singles Energy            =      -0.0000000000000000 [Eh]
	 Same-Spin Energy          =      -0.4900572941212200 [Eh]
	 Opposite-Spin Energy      =      -1.5264124461241670 [Eh]
	 Correlation Energy        =      -2.0164697402453871 [Eh]
	 Total Energy              =    -476.6022544786530375 [Eh]

	 ================> DF-SCS-MP2 Energies <==================
	-----------------------------------------------------------
	 SCS Same-Spin Scale       =       0.3333333333333333 [-]
	 SCS Opposite-Spin Scale   =       1.2000000000000000 [-]
	 SCS Same-Spin Energy      =      -0.1633524313737400 [Eh]
	 SCS Opposite-Spin Energy  =      -1.8316949353490004 [Eh]
	 SCS Correlation Energy    =      -1.9950473667227404 [Eh]
	 SCS Total Energy          =    -476.5808321051304119 [Eh]
	-----------------------------------------------------------

  Dipole Moment: [D]
     X:    -0.5704      Y:     2.9665      Z:    -0.1345     Total:     3.0238

*** Psi4 exiting successfully. Buy a developer a beer!
