                               Psi4 1.4a3.dev225

  ==> Input File <==

--------------------------------------------------------------------------
#psi4
#
memory 32 gb

molecule  {
0 1
  O       -1.5316190     1.0321650     0.0948010
  O        1.4540340    -1.7305240     0.0480640
  N        0.6983760     0.4234810    -0.0768570
  C       -0.6256757    -0.0112572    -0.0505046
  C        0.9338190     1.8669200    -0.1039590
  C        1.7048000    -0.5240370     0.0213290
  C       -1.2931220    -1.2007390    -0.1216240
  C       -2.6835930    -0.8875750    -0.0182810
  C        3.1317020    -0.0168610     0.0830780
  C       -2.7843930     0.4654540     0.1083230
  H        0.3040530     2.3204240    -0.8701650
  H        1.9743570     2.0597570    -0.3491110
  H        0.6954160     2.3257170     0.8600750
  H       -0.8317010    -2.1668680    -0.2305290
  H       -3.5070380    -1.5886770    -0.0382780
  H        3.2875770     0.6796840     0.9111130
  H        3.4247710     0.4818120    -0.8454740
  H        3.7649310    -0.8918910     0.2258400
  H       -3.6032960     1.1610050     0.2088840
units angstrom
no_reorient  #important for SAPT in psi4, default
symmetry c1  #important for SAPT in psi4, default
}

set PROPERTIES_ORIGIN ["COM"]
properties('MP2/aug-cc-pvtz', properties = ['dipole'])
--------------------------------------------------------------------------

    Molecular point group: c1
  Charge       = 0
  Multiplicity = 1
  Basis Set: AUG-CC-PVTZ
    Blend: AUG-CC-PVTZ
  Basis Set: (AUG-CC-PVTZ AUX)
    Blend: AUG-CC-PVTZ-JKFIT

    Orbital Energies [Eh]
    ---------------------

    Doubly Occupied:

       1A    -20.621372     2A    -20.529180     3A    -15.618056
       4A    -11.365842     5A    -11.331729     6A    -11.280920
       7A    -11.279651     8A    -11.246983     9A    -11.228545
      10A    -11.215681    11A     -1.453815    12A     -1.385759
      13A     -1.264525    14A     -1.079977    15A     -1.032144
      16A     -0.990808    17A     -0.955067    18A     -0.837248
      19A     -0.793421    20A     -0.748255    21A     -0.703173
      22A     -0.680127    23A     -0.672098    24A     -0.648241
      25A     -0.620028    26A     -0.592902    27A     -0.589614
      28A     -0.588547    29A     -0.566764    30A     -0.561523
      31A     -0.548987    32A     -0.541213    33A     -0.527870
      34A     -0.436250    35A     -0.432232    36A     -0.391275
      37A     -0.287897

  @DF-RHF Final Energy:  -474.63347763937907

   => Energetics <=

    Nuclear Repulsion Energy =            527.9270760678483612
    One-Electron Energy =               -1693.8256708284127399
    Two-Electron Energy =                 691.2651171211851988
    Total Energy =                       -474.6334776393790662
  Basis Set: (AUG-CC-PVTZ AUX)
    Blend: AUG-CC-PVTZ-RI
    Molecular point group: c1

    Geometry (in Angstrom), charge = 0, multiplicity = 1:

       Center              X                  Y                   Z               Mass
    ------------   -----------------  -----------------  -----------------  -----------------
         O           -1.493457045691     1.064682954714     0.094077788545    15.994914619570
         O            1.492195954309    -1.698006045286     0.047340788545    15.994914619570
         N            0.736537954309     0.455998954714    -0.077580211455    14.003074004430
         C           -0.587513745691     0.021260754714    -0.051227811455    12.000000000000
         C            0.971980954309     1.899437954714    -0.104682211455    12.000000000000
         C            1.742961954309    -0.491519045286     0.020605788545    12.000000000000
         C           -1.254960045691    -1.168221045286    -0.122347211455    12.000000000000
         C           -2.645431045691    -0.855057045286    -0.019004211455    12.000000000000
         C            3.169863954309     0.015656954714     0.082354788545    12.000000000000
         C           -2.746231045691     0.497971954714     0.107599788545    12.000000000000
         H            0.342214954309     2.352941954714    -0.870888211455     1.007825032230
         H            2.012518954309     2.092274954714    -0.349834211455     1.007825032230
         H            0.733577954309     2.358234954714     0.859351788545     1.007825032230
         H           -0.793539045691    -2.134350045286    -0.231252211455     1.007825032230
         H           -3.468876045691    -1.556159045286    -0.039001211455     1.007825032230
         H            3.325738954309     0.712201954714     0.910389788545     1.007825032230
         H            3.462932954309     0.514329954714    -0.846197211455     1.007825032230
         H            3.803092954309    -0.859373045286     0.225116788545     1.007825032230
         H           -3.565134045691     1.193522954714     0.208160788545     1.007825032230

  Basis Set: AUG-CC-PVTZ
    Blend: AUG-CC-PVTZ
  Basis Set: (AUG-CC-PVTZ AUX)
    Blend: AUG-CC-PVTZ-JKFIT
	 Reference Energy          =    -474.6334776393790662 [Eh]
	 Singles Energy            =      -0.0000000000000000 [Eh]
	 Same-Spin Energy          =      -0.4919203230727502 [Eh]
	 Opposite-Spin Energy      =      -1.5285665379400495 [Eh]
	 Correlation Energy        =      -2.0204868610127997 [Eh]
	 Total Energy              =    -476.6539645003918508 [Eh]

	 ================> DF-SCS-MP2 Energies <==================
	-----------------------------------------------------------
	 SCS Same-Spin Scale       =       0.3333333333333333 [-]
	 SCS Opposite-Spin Scale   =       1.2000000000000000 [-]
	 SCS Same-Spin Energy      =      -0.1639734410242501 [Eh]
	 SCS Opposite-Spin Energy  =      -1.8342798455280593 [Eh]
	 SCS Correlation Energy    =      -1.9982532865523095 [Eh]
	 SCS Total Energy          =    -476.6317309259313788 [Eh]
	-----------------------------------------------------------

  Dipole Moment: [D]
     X:     0.6920      Y:     3.2670      Z:    -0.1362     Total:     3.3422

*** Psi4 exiting successfully. Buy a developer a beer!
