                               Psi4 1.3.2 release

  ==> Input File <==

--------------------------------------------------------------------------
#psi4
#
memory 32 gb

molecule  {
0 1
  O       -1.5316190     1.0321650     0.0948010
  O        1.4540340    -1.7305240     0.0480640
  N        0.6983760     0.4234810    -0.0768570
  C       -0.7131461    -0.0561897    -0.0500607
  C        0.9338190     1.8669200    -0.1039590
  C        1.7048000    -0.5240370     0.0213290
  C       -1.2931220    -1.2007390    -0.1216240
  C       -2.6835930    -0.8875750    -0.0182810
  C        3.1317020    -0.0168610     0.0830780
  C       -2.7843930     0.4654540     0.1083230
  H        0.3040530     2.3204240    -0.8701650
  H        1.9743570     2.0597570    -0.3491110
  H        0.6954160     2.3257170     0.8600750
  H       -0.8317010    -2.1668680    -0.2305290
  H       -3.5070380    -1.5886770    -0.0382780
  H        3.2875770     0.6796840     0.9111130
  H        3.4247710     0.4818120    -0.8454740
  H        3.7649310    -0.8918910     0.2258400
  H       -3.6032960     1.1610050     0.2088840
units angstrom
no_reorient  #important for SAPT in psi4, default
symmetry c1  #important for SAPT in psi4, default
}

set PROPERTIES_ORIGIN ["COM"]
properties('MP2/aug-cc-pvtz', properties = ['dipole'])
--------------------------------------------------------------------------

    Molecular point group: c1
  Charge       = 0
  Multiplicity = 1
  Basis Set: AUG-CC-PVTZ
    Blend: AUG-CC-PVTZ
  Basis Set: (AUG-CC-PVTZ AUX)
    Blend: AUG-CC-PVTZ-JKFIT

    Orbital Energies [Eh]
    ---------------------

    Doubly Occupied:

       1A    -20.626548     2A    -20.521450     3A    -15.609563
       4A    -11.358974     5A    -11.326960     6A    -11.286301
       7A    -11.273506     8A    -11.242147     9A    -11.233405
      10A    -11.211967    11A     -1.466941    12A     -1.377144
      13A     -1.239441    14A     -1.104263    15A     -1.024785
      16A     -0.990016    17A     -0.949848    18A     -0.827947
      19A     -0.793576    20A     -0.757221    21A     -0.698920
      22A     -0.673533    23A     -0.666964    24A     -0.639931
      25A     -0.624352    26A     -0.590756    27A     -0.588004
      28A     -0.584915    29A     -0.577025    30A     -0.557448
      31A     -0.550824    32A     -0.541984    33A     -0.520763
      34A     -0.428511    35A     -0.424513    36A     -0.398208
      37A     -0.305656

  @DF-RHF Final Energy:  -474.62325219073222

   => Energetics <=

    Nuclear Repulsion Energy =            527.8911434810635228
    One-Electron Energy =               -1693.8401710697728504
    Two-Electron Energy =                 691.3257753979769404
    Total Energy =                       -474.6232521907322734
  Basis Set: (AUG-CC-PVTZ AUX)
    Blend: AUG-CC-PVTZ-RI
    Molecular point group: c1

    Geometry (in Angstrom), charge = 0, multiplicity = 1:

       Center              X                  Y                   Z               Mass
    ------------   -----------------  -----------------  -----------------  -----------------
         O           -1.485909083111     1.068560252962     0.094039483695    15.994914619570
         O            1.499743916889    -1.694128747038     0.047302483695    15.994914619570
         N            0.744085916889     0.459876252962    -0.077618516305    14.003074004430
         C           -0.667436183111    -0.019794447038    -0.050822216305    12.000000000000
         C            0.979528916889     1.903315252962    -0.104720516305    12.000000000000
         C            1.750509916889    -0.487641747038     0.020567483695    12.000000000000
         C           -1.247412083111    -1.164343747038    -0.122385516305    12.000000000000
         C           -2.637883083111    -0.851179747038    -0.019042516305    12.000000000000
         C            3.177411916889     0.019534252962     0.082316483695    12.000000000000
         C           -2.738683083111     0.501849252962     0.107561483695    12.000000000000
         H            0.349762916889     2.356819252962    -0.870926516305     1.007825032230
         H            2.020066916889     2.096152252962    -0.349872516305     1.007825032230
         H            0.741125916889     2.362112252962     0.859313483695     1.007825032230
         H           -0.785991083111    -2.130472747038    -0.231290516305     1.007825032230
         H           -3.461328083111    -1.552281747038    -0.039039516305     1.007825032230
         H            3.333286916889     0.716079252962     0.910351483695     1.007825032230
         H            3.470480916889     0.518207252962    -0.846235516305     1.007825032230
         H            3.810640916889    -0.855495747038     0.225078483695     1.007825032230
         H           -3.557586083111     1.197400252962     0.208122483695     1.007825032230

  Basis Set: AUG-CC-PVTZ
    Blend: AUG-CC-PVTZ
  Basis Set: (AUG-CC-PVTZ AUX)
    Blend: AUG-CC-PVTZ-JKFIT
	 Reference Energy          =    -474.6232521907322166 [Eh]
	 Singles Energy            =      -0.0000000000000000 [Eh]
	 Same-Spin Energy          =      -0.4902436537364518 [Eh]
	 Opposite-Spin Energy      =      -1.5268021983339148 [Eh]
	 Correlation Energy        =      -2.0170458520703667 [Eh]
	 Total Energy              =    -476.6402980428025558 [Eh]

	 ================> DF-SCS-MP2 Energies <==================
	-----------------------------------------------------------
	 SCS Same-Spin Scale       =       0.3333333333333333 [-]
	 SCS Opposite-Spin Scale   =       1.2000000000000000 [-]
	 SCS Same-Spin Energy      =      -0.1634145512454839 [Eh]
	 SCS Opposite-Spin Energy  =      -1.8321626380006977 [Eh]
	 SCS Correlation Energy    =      -1.9955771892461815 [Eh]
	 SCS Total Energy          =    -476.6188293799784219 [Eh]
	-----------------------------------------------------------

  Dipole Moment: [D]
     X:     0.1507      Y:     3.0855      Z:    -0.1434     Total:     3.0925

*** Psi4 exiting successfully. Buy a developer a beer!
