                               Psi4 1.3.2 release

  ==> Input File <==

--------------------------------------------------------------------------
#psi4
#
memory 32 gb

molecule  {
0 1
  O       -1.5316190     1.0321650     0.0948010
  O        1.4540340    -1.7305240     0.0480640
  N        0.6983760     0.4234810    -0.0768570
  C       -0.6811500     0.0256044    -0.0441519
  C        0.9338190     1.8669200    -0.1039590
  C        1.7048000    -0.5240370     0.0213290
  C       -1.2931220    -1.2007390    -0.1216240
  C       -2.6835930    -0.8875750    -0.0182810
  C        3.1317020    -0.0168610     0.0830780
  C       -2.7843930     0.4654540     0.1083230
  H        0.3040530     2.3204240    -0.8701650
  H        1.9743570     2.0597570    -0.3491110
  H        0.6954160     2.3257170     0.8600750
  H       -0.8317010    -2.1668680    -0.2305290
  H       -3.5070380    -1.5886770    -0.0382780
  H        3.2875770     0.6796840     0.9111130
  H        3.4247710     0.4818120    -0.8454740
  H        3.7649310    -0.8918910     0.2258400
  H       -3.6032960     1.1610050     0.2088840
units angstrom
no_reorient  #important for SAPT in psi4, default
symmetry c1  #important for SAPT in psi4, default
}

set PROPERTIES_ORIGIN ["COM"]
properties('MP2/aug-cc-pvtz', properties = ['dipole'])
--------------------------------------------------------------------------

    Molecular point group: c1
  Charge       = 0
  Multiplicity = 1
  Basis Set: AUG-CC-PVTZ
    Blend: AUG-CC-PVTZ
  Basis Set: (AUG-CC-PVTZ AUX)
    Blend: AUG-CC-PVTZ-JKFIT

    Orbital Energies [Eh]
    ---------------------

    Doubly Occupied:

       1A    -20.632838     2A    -20.525678     3A    -15.614473
       4A    -11.363796     5A    -11.333665     6A    -11.280477
       7A    -11.276741     8A    -11.245529     9A    -11.231792
      10A    -11.214740    11A     -1.483339    12A     -1.381550
      13A     -1.254072    14A     -1.084882    15A     -1.030287
      16A     -0.990497    17A     -0.953743    18A     -0.832046
      19A     -0.798639    20A     -0.758078    21A     -0.701484
      22A     -0.679236    23A     -0.674060    24A     -0.649393
      25A     -0.628728    26A     -0.592141    27A     -0.590305
      28A     -0.587856    29A     -0.570988    30A     -0.562138
      31A     -0.552595    32A     -0.537622    33A     -0.524112
      34A     -0.430543    35A     -0.426878    36A     -0.394636
      37A     -0.290149

  @DF-RHF Final Energy:  -474.63346996126273

   => Energetics <=

    Nuclear Repulsion Energy =            528.1186852679417143
    One-Electron Energy =               -1694.1448543817837162
    Two-Electron Energy =                 691.3926991525793255
    Total Energy =                       -474.6334699612627901
  Basis Set: (AUG-CC-PVTZ AUX)
    Blend: AUG-CC-PVTZ-RI
    Molecular point group: c1

    Geometry (in Angstrom), charge = 0, multiplicity = 1:

       Center              X                  Y                   Z               Mass
    ------------   -----------------  -----------------  -----------------  -----------------
         O           -1.488670078437     1.061502107508     0.093529603766    15.994914619570
         O            1.496982921563    -1.701186892492     0.046792603766    15.994914619570
         N            0.741324921563     0.452818107508    -0.078128396234    14.003074004430
         C           -0.638201078437     0.054941507508    -0.045423296234    12.000000000000
         C            0.976767921563     1.896257107508    -0.105230396234    12.000000000000
         C            1.747748921563    -0.494699892492     0.020057603766    12.000000000000
         C           -1.250173078437    -1.171401892492    -0.122895396234    12.000000000000
         C           -2.640644078437    -0.858237892492    -0.019552396234    12.000000000000
         C            3.174650921563     0.012476107508     0.081806603766    12.000000000000
         C           -2.741444078437     0.494791107508     0.107051603766    12.000000000000
         H            0.347001921563     2.349761107508    -0.871436396234     1.007825032230
         H            2.017305921563     2.089094107508    -0.350382396234     1.007825032230
         H            0.738364921563     2.355054107508     0.858803603766     1.007825032230
         H           -0.788752078437    -2.137530892492    -0.231800396234     1.007825032230
         H           -3.464089078437    -1.559339892492    -0.039549396234     1.007825032230
         H            3.330525921563     0.709021107508     0.909841603766     1.007825032230
         H            3.467719921563     0.511149107508    -0.846745396234     1.007825032230
         H            3.807879921563    -0.862553892492     0.224568603766     1.007825032230
         H           -3.560347078437     1.190342107508     0.207612603766     1.007825032230

  Basis Set: AUG-CC-PVTZ
    Blend: AUG-CC-PVTZ
  Basis Set: (AUG-CC-PVTZ AUX)
    Blend: AUG-CC-PVTZ-JKFIT
	 Reference Energy          =    -474.6334699612627332 [Eh]
	 Singles Energy            =      -0.0000000000000000 [Eh]
	 Same-Spin Energy          =      -0.4914833741167875 [Eh]
	 Opposite-Spin Energy      =      -1.5271037799401181 [Eh]
	 Correlation Energy        =      -2.0185871540569056 [Eh]
	 Total Energy              =    -476.6520571153196215 [Eh]

	 ================> DF-SCS-MP2 Energies <==================
	-----------------------------------------------------------
	 SCS Same-Spin Scale       =       0.3333333333333333 [-]
	 SCS Opposite-Spin Scale   =       1.2000000000000000 [-]
	 SCS Same-Spin Energy      =      -0.1638277913722625 [Eh]
	 SCS Opposite-Spin Energy  =      -1.8325245359281417 [Eh]
	 SCS Correlation Energy    =      -1.9963523273004042 [Eh]
	 SCS Total Energy          =    -476.6298222885631617 [Eh]
	-----------------------------------------------------------

  Dipole Moment: [D]
     X:     0.4218      Y:     3.2916      Z:    -0.1199     Total:     3.3207

*** Psi4 exiting successfully. Buy a developer a beer!
