                               Psi4 1.3.2 release

  ==> Input File <==

--------------------------------------------------------------------------
#psi4
#
memory 32 gb

molecule  {
0 1
  O       -1.5316190     1.0321650     0.0948010
  O        1.4540340    -1.7305240     0.0480640
  N        0.6983760     0.4234810    -0.0768570
  C       -0.6647927     0.0976202    -0.0575176
  C        0.9338190     1.8669200    -0.1039590
  C        1.7048000    -0.5240370     0.0213290
  C       -1.2931220    -1.2007390    -0.1216240
  C       -2.6835930    -0.8875750    -0.0182810
  C        3.1317020    -0.0168610     0.0830780
  C       -2.7843930     0.4654540     0.1083230
  H        0.3040530     2.3204240    -0.8701650
  H        1.9743570     2.0597570    -0.3491110
  H        0.6954160     2.3257170     0.8600750
  H       -0.8317010    -2.1668680    -0.2305290
  H       -3.5070380    -1.5886770    -0.0382780
  H        3.2875770     0.6796840     0.9111130
  H        3.4247710     0.4818120    -0.8454740
  H        3.7649310    -0.8918910     0.2258400
  H       -3.6032960     1.1610050     0.2088840
units angstrom
no_reorient  #important for SAPT in psi4, default
symmetry c1  #important for SAPT in psi4, default
}

set PROPERTIES_ORIGIN ["COM"]
properties('MP2/aug-cc-pvtz', properties = ['dipole'])
--------------------------------------------------------------------------

    Molecular point group: c1
  Charge       = 0
  Multiplicity = 1
  Basis Set: AUG-CC-PVTZ
    Blend: AUG-CC-PVTZ
  Basis Set: (AUG-CC-PVTZ AUX)
    Blend: AUG-CC-PVTZ-JKFIT

    Orbital Energies [Eh]
    ---------------------

    Doubly Occupied:

       1A    -20.639370     2A    -20.528957     3A    -15.618274
       4A    -11.367802     5A    -11.339770     6A    -11.279181
       7A    -11.275158     8A    -11.248327     9A    -11.230950
      10A    -11.215101    11A     -1.501515    12A     -1.384911
      13A     -1.265352    14A     -1.075069    15A     -1.034414
      16A     -0.991347    17A     -0.957121    18A     -0.836483
      19A     -0.803499    20A     -0.759511    21A     -0.703320
      22A     -0.686914    23A     -0.679045    24A     -0.655712
      25A     -0.633580    26A     -0.595257    27A     -0.593697
      28A     -0.590568    29A     -0.574253    30A     -0.557799
      31A     -0.552302    32A     -0.528784    33A     -0.523992
      34A     -0.433413    35A     -0.430039    36A     -0.391557
      37A     -0.277518

  @DF-RHF Final Energy:  -474.62407446967427

   => Energetics <=

    Nuclear Repulsion Energy =            528.3822481359749190
    One-Electron Energy =               -1694.4929259831874333
    Two-Electron Energy =                 691.4866033775383585
    Total Energy =                       -474.6240744696742695
  Basis Set: (AUG-CC-PVTZ AUX)
    Blend: AUG-CC-PVTZ-RI
    Molecular point group: c1

    Geometry (in Angstrom), charge = 0, multiplicity = 1:

       Center              X                  Y                   Z               Mass
    ------------   -----------------  -----------------  -----------------  -----------------
         O           -1.490081576364     1.055287747410     0.094682951681    15.994914619570
         O            1.495571423636    -1.707401252590     0.047945951681    15.994914619570
         N            0.739913423636     0.446603747410    -0.076975048319    14.003074004430
         C           -0.623255276364     0.120742947410    -0.057635648319    12.000000000000
         C            0.975356423636     1.890042747410    -0.104077048319    12.000000000000
         C            1.746337423636    -0.500914252590     0.021210951681    12.000000000000
         C           -1.251584576364    -1.177616252590    -0.121742048319    12.000000000000
         C           -2.642055576364    -0.864452252590    -0.018399048319    12.000000000000
         C            3.173239423636     0.006261747410     0.082959951681    12.000000000000
         C           -2.742855576364     0.488576747410     0.108204951681    12.000000000000
         H            0.345590423636     2.343546747410    -0.870283048319     1.007825032230
         H            2.015894423636     2.082879747410    -0.349229048319     1.007825032230
         H            0.736953423636     2.348839747410     0.859956951681     1.007825032230
         H           -0.790163576364    -2.143745252590    -0.230647048319     1.007825032230
         H           -3.465500576364    -1.565554252590    -0.038396048319     1.007825032230
         H            3.329114423636     0.702806747410     0.910994951681     1.007825032230
         H            3.466308423636     0.504934747410    -0.845592048319     1.007825032230
         H            3.806468423636    -0.868768252590     0.225721951681     1.007825032230
         H           -3.561758576364     1.184127747410     0.208765951681     1.007825032230

  Basis Set: AUG-CC-PVTZ
    Blend: AUG-CC-PVTZ
  Basis Set: (AUG-CC-PVTZ AUX)
    Blend: AUG-CC-PVTZ-JKFIT
	 Reference Energy          =    -474.6240744696742695 [Eh]
	 Singles Energy            =      -0.0000000000000000 [Eh]
	 Same-Spin Energy          =      -0.4926895718912807 [Eh]
	 Opposite-Spin Energy      =      -1.5277119754515618 [Eh]
	 Correlation Energy        =      -2.0204015473428427 [Eh]
	 Total Energy              =    -476.6444760170170980 [Eh]

	 ================> DF-SCS-MP2 Energies <==================
	-----------------------------------------------------------
	 SCS Same-Spin Scale       =       0.3333333333333333 [-]
	 SCS Opposite-Spin Scale   =       1.2000000000000000 [-]
	 SCS Same-Spin Energy      =      -0.1642298572970936 [Eh]
	 SCS Opposite-Spin Energy  =      -1.8332543705418740 [Eh]
	 SCS Correlation Energy    =      -1.9974842278389675 [Eh]
	 SCS Total Energy          =    -476.6215586975132510 [Eh]
	-----------------------------------------------------------

  Dipole Moment: [D]
     X:     0.5924      Y:     3.4475      Z:    -0.1021     Total:     3.4995

*** Psi4 exiting successfully. Buy a developer a beer!
