                               Psi4 1.4a3.dev225

  ==> Input File <==

--------------------------------------------------------------------------
#psi4
#
memory 32 gb

molecule  {
0 1
  O       -1.5316190     1.0321650     0.0948010
  O        1.4540340    -1.7305240     0.0480640
  N        0.6983760     0.4234810    -0.0768570
  C       -0.6864111    -0.0112097    -0.0473984
  C        0.9338190     1.8669200    -0.1039590
  C        1.7048000    -0.5240370     0.0213290
  C       -1.2931220    -1.2007390    -0.1216240
  C       -2.6835930    -0.8875750    -0.0182810
  C        3.1317020    -0.0168610     0.0830780
  C       -2.7843930     0.4654540     0.1083230
  H        0.3040530     2.3204240    -0.8701650
  H        1.9743570     2.0597570    -0.3491110
  H        0.6954160     2.3257170     0.8600750
  H       -0.8317010    -2.1668680    -0.2305290
  H       -3.5070380    -1.5886770    -0.0382780
  H        3.2875770     0.6796840     0.9111130
  H        3.4247710     0.4818120    -0.8454740
  H        3.7649310    -0.8918910     0.2258400
  H       -3.6032960     1.1610050     0.2088840
units angstrom
no_reorient  #important for SAPT in psi4, default
symmetry c1  #important for SAPT in psi4, default
}

set PROPERTIES_ORIGIN ["COM"]
properties('MP2/aug-cc-pvtz', properties = ['dipole'])
--------------------------------------------------------------------------

    Molecular point group: c1
  Charge       = 0
  Multiplicity = 1
  Basis Set: AUG-CC-PVTZ
    Blend: AUG-CC-PVTZ
  Basis Set: (AUG-CC-PVTZ AUX)
    Blend: AUG-CC-PVTZ-JKFIT

    Orbital Energies [Eh]
    ---------------------

    Doubly Occupied:

       1A    -20.628909     2A    -20.524392     3A    -15.612996
       4A    -11.362111     5A    -11.330627     6A    -11.282926
       7A    -11.275790     8A    -11.244348     9A    -11.231965
      10A    -11.214034    11A     -1.472856    12A     -1.380269
      13A     -1.249368    14A     -1.091035    15A     -1.028264
      16A     -0.990180    17A     -0.952455    18A     -0.830453
      19A     -0.796349    20A     -0.756529    21A     -0.700635
      22A     -0.676647    23A     -0.670896    24A     -0.645634
      25A     -0.625983    26A     -0.590830    27A     -0.588844
      28A     -0.586595    29A     -0.572263    30A     -0.561850
      31A     -0.550942    32A     -0.541840    33A     -0.523244
      34A     -0.429701    35A     -0.426415    36A     -0.395957
      37A     -0.296164

  @DF-RHF Final Energy:  -474.63289899819404

   => Energetics <=

    Nuclear Repulsion Energy =            527.9859481678591919
    One-Electron Energy =               -1693.9571021987756012
    Two-Electron Energy =                 691.3382550327222589
    Total Energy =                       -474.6328989981940367
  Basis Set: (AUG-CC-PVTZ AUX)
    Blend: AUG-CC-PVTZ-RI
    Molecular point group: c1

    Geometry (in Angstrom), charge = 0, multiplicity = 1:

       Center              X                  Y                   Z               Mass
    ------------   -----------------  -----------------  -----------------  -----------------
         O           -1.488216089591     1.064678855862     0.093809749513    15.994914619570
         O            1.497436910409    -1.698010144138     0.047072749513    15.994914619570
         N            0.741778910409     0.455994855862    -0.077848250487    14.003074004430
         C           -0.643008189591     0.021304155862    -0.048389650487    12.000000000000
         C            0.977221910409     1.899433855862    -0.104950250487    12.000000000000
         C            1.748202910409    -0.491523144138     0.020337749513    12.000000000000
         C           -1.249719089591    -1.168225144138    -0.122615250487    12.000000000000
         C           -2.640190089591    -0.855061144138    -0.019272250487    12.000000000000
         C            3.175104910409     0.015652855862     0.082086749513    12.000000000000
         C           -2.740990089591     0.497967855862     0.107331749513    12.000000000000
         H            0.347455910409     2.352937855862    -0.871156250487     1.007825032230
         H            2.017759910409     2.092270855862    -0.350102250487     1.007825032230
         H            0.738818910409     2.358230855862     0.859083749513     1.007825032230
         H           -0.788298089591    -2.134354144138    -0.231520250487     1.007825032230
         H           -3.463635089591    -1.556163144138    -0.039269250487     1.007825032230
         H            3.330979910409     0.712197855862     0.910121749513     1.007825032230
         H            3.468173910409     0.514325855862    -0.846465250487     1.007825032230
         H            3.808333910409    -0.859377144138     0.224848749513     1.007825032230
         H           -3.559893089591     1.193518855862     0.207892749513     1.007825032230

  Basis Set: AUG-CC-PVTZ
    Blend: AUG-CC-PVTZ
  Basis Set: (AUG-CC-PVTZ AUX)
    Blend: AUG-CC-PVTZ-JKFIT
	 Reference Energy          =    -474.6328989981940367 [Eh]
	 Singles Energy            =      -0.0000000000000000 [Eh]
	 Same-Spin Energy          =      -0.4909728640340973 [Eh]
	 Opposite-Spin Energy      =      -1.5270407921714522 [Eh]
	 Correlation Energy        =      -2.0180136562055493 [Eh]
	 Total Energy              =    -476.6509126543995762 [Eh]

	 ================> DF-SCS-MP2 Energies <==================
	-----------------------------------------------------------
	 SCS Same-Spin Scale       =       0.3333333333333333 [-]
	 SCS Opposite-Spin Scale   =       1.2000000000000000 [-]
	 SCS Same-Spin Energy      =      -0.1636576213446991 [Eh]
	 SCS Opposite-Spin Energy  =      -1.8324489506057424 [Eh]
	 SCS Correlation Energy    =      -1.9961065719504416 [Eh]
	 SCS Total Energy          =    -476.6290055701444999 [Eh]
	-----------------------------------------------------------

  Dipole Moment: [D]
     X:     0.3516      Y:     3.2092      Z:    -0.1311     Total:     3.2311

*** Psi4 exiting successfully. Buy a developer a beer!
