                               Psi4 1.3.2 release

  ==> Input File <==

--------------------------------------------------------------------------
#psi4
#
memory 32 gb

molecule  {
0 1
  O       -1.6017114     0.9672255     0.0922165
  O        1.4540340    -1.7305240     0.0480640
  N        0.6983760     0.4234810    -0.0768570
  C       -0.6387160     0.0037620    -0.0484130
  C        0.9338190     1.8669200    -0.1039590
  C        1.7048000    -0.5240370     0.0213290
  C       -1.2931220    -1.2007390    -0.1216240
  C       -2.6835930    -0.8875750    -0.0182810
  C        3.1317020    -0.0168610     0.0830780
  C       -2.7843930     0.4654540     0.1083230
  H        0.3040530     2.3204240    -0.8701650
  H        1.9743570     2.0597570    -0.3491110
  H        0.6954160     2.3257170     0.8600750
  H       -0.8317010    -2.1668680    -0.2305290
  H       -3.5070380    -1.5886770    -0.0382780
  H        3.2875770     0.6796840     0.9111130
  H        3.4247710     0.4818120    -0.8454740
  H        3.7649310    -0.8918910     0.2258400
  H       -3.6032960     1.1610050     0.2088840
units angstrom
no_reorient  #important for SAPT in psi4, default
symmetry c1  #important for SAPT in psi4, default
}

set PROPERTIES_ORIGIN ["COM"]
properties('MP2/aug-cc-pvtz', properties = ['dipole'])
--------------------------------------------------------------------------

    Molecular point group: c1
  Charge       = 0
  Multiplicity = 1
  Basis Set: AUG-CC-PVTZ
    Blend: AUG-CC-PVTZ
  Basis Set: (AUG-CC-PVTZ AUX)
    Blend: AUG-CC-PVTZ-JKFIT

    Orbital Energies [Eh]
    ---------------------

    Doubly Occupied:

       1A    -20.626355     2A    -20.528657     3A    -15.619670
       4A    -11.366532     5A    -11.328611     6A    -11.281505
       7A    -11.275636     8A    -11.247706     9A    -11.217393
      10A    -11.215081    11A     -1.493088    12A     -1.386026
      13A     -1.266334    14A     -1.073885    15A     -1.036547
      16A     -0.996524    17A     -0.962042    18A     -0.835220
      19A     -0.803968    20A     -0.751887    21A     -0.708151
      22A     -0.682812    23A     -0.677779    24A     -0.662828
      25A     -0.635176    26A     -0.595338    27A     -0.591377
      28A     -0.588338    29A     -0.565834    30A     -0.562589
      31A     -0.548363    32A     -0.531062    33A     -0.527457
      34A     -0.437529    35A     -0.432259    36A     -0.382187
      37A     -0.286124

  @DF-RHF Final Energy:  -474.62941388015651

   => Energetics <=

    Nuclear Repulsion Energy =            529.2729061869194993
    One-Electron Energy =               -1696.3488967636740199
    Two-Electron Energy =                 692.4465766965979583
    Total Energy =                       -474.6294138801565623
  Basis Set: (AUG-CC-PVTZ AUX)
    Blend: AUG-CC-PVTZ-RI
    Molecular point group: c1

    Geometry (in Angstrom), charge = 0, multiplicity = 1:

       Center              X                  Y                   Z               Mass
    ------------   -----------------  -----------------  -----------------  -----------------
         O           -1.554362224538     1.005916695115     0.091610067404    15.994914619570
         O            1.501383175462    -1.691832804885     0.047457567404    15.994914619570
         N            0.745725175462     0.462172195115    -0.077463432596    14.003074004430
         C           -0.591366824538     0.042453195115    -0.049019432596    12.000000000000
         C            0.981168175462     1.905611195115    -0.104565432596    12.000000000000
         C            1.752149175462    -0.485345804885     0.020722567404    12.000000000000
         C           -1.245772824538    -1.162047804885    -0.122230432596    12.000000000000
         C           -2.636243824538    -0.848883804885    -0.018887432596    12.000000000000
         C            3.179051175462     0.021830195115     0.082471567404    12.000000000000
         C           -2.737043824538     0.504145195115     0.107716567404    12.000000000000
         H            0.351402175462     2.359115195115    -0.870771432596     1.007825032230
         H            2.021706175462     2.098448195115    -0.349717432596     1.007825032230
         H            0.742765175462     2.364408195115     0.859468567404     1.007825032230
         H           -0.784351824538    -2.128176804885    -0.231135432596     1.007825032230
         H           -3.459688824538    -1.549985804885    -0.038884432596     1.007825032230
         H            3.334926175462     0.718375195115     0.910506567404     1.007825032230
         H            3.472120175462     0.520503195115    -0.846080432596     1.007825032230
         H            3.812280175462    -0.853199804885     0.225233567404     1.007825032230
         H           -3.555946824538     1.199696195115     0.208277567404     1.007825032230

  Basis Set: AUG-CC-PVTZ
    Blend: AUG-CC-PVTZ
  Basis Set: (AUG-CC-PVTZ AUX)
    Blend: AUG-CC-PVTZ-JKFIT
	 Reference Energy          =    -474.6294138801565055 [Eh]
	 Singles Energy            =      -0.0000000000000000 [Eh]
	 Same-Spin Energy          =      -0.4919253755542549 [Eh]
	 Opposite-Spin Energy      =      -1.5259296599827792 [Eh]
	 Correlation Energy        =      -2.0178550355370342 [Eh]
	 Total Energy              =    -476.6472689156935303 [Eh]

	 ================> DF-SCS-MP2 Energies <==================
	-----------------------------------------------------------
	 SCS Same-Spin Scale       =       0.3333333333333333 [-]
	 SCS Opposite-Spin Scale   =       1.2000000000000000 [-]
	 SCS Same-Spin Energy      =      -0.1639751251847516 [Eh]
	 SCS Opposite-Spin Energy  =      -1.8311155919793349 [Eh]
	 SCS Correlation Energy    =      -1.9950907171640866 [Eh]
	 SCS Total Energy          =    -476.6245045973205947 [Eh]
	-----------------------------------------------------------

  Dipole Moment: [D]
     X:     0.8388      Y:     3.5639      Z:    -0.1128     Total:     3.6630

*** Psi4 exiting successfully. Buy a developer a beer!
