                               Psi4 1.3.2 release

  ==> Input File <==

--------------------------------------------------------------------------
#psi4
#
memory 32 gb

molecule  {
0 1
  O       -1.5316190     1.0321650     0.0948010
  O        1.4540340    -1.7305240     0.0480640
  N        0.6983760     0.4234810    -0.0768570
  C       -0.5874353    -0.1330510    -0.0350296
  C        0.9338190     1.8669200    -0.1039590
  C        1.7048000    -0.5240370     0.0213290
  C       -1.2931220    -1.2007390    -0.1216240
  C       -2.6835930    -0.8875750    -0.0182810
  C        3.1317020    -0.0168610     0.0830780
  C       -2.7843930     0.4654540     0.1083230
  H        0.3040530     2.3204240    -0.8701650
  H        1.9743570     2.0597570    -0.3491110
  H        0.6954160     2.3257170     0.8600750
  H       -0.8317010    -2.1668680    -0.2305290
  H       -3.5070380    -1.5886770    -0.0382780
  H        3.2875770     0.6796840     0.9111130
  H        3.4247710     0.4818120    -0.8454740
  H        3.7649310    -0.8918910     0.2258400
  H       -3.6032960     1.1610050     0.2088840
units angstrom
no_reorient  #important for SAPT in psi4, default
symmetry c1  #important for SAPT in psi4, default
}

set PROPERTIES_ORIGIN ["COM"]
properties('MP2/aug-cc-pvtz', properties = ['dipole'])
--------------------------------------------------------------------------

    Molecular point group: c1
  Charge       = 0
  Multiplicity = 1
  Basis Set: AUG-CC-PVTZ
    Blend: AUG-CC-PVTZ
  Basis Set: (AUG-CC-PVTZ AUX)
    Blend: AUG-CC-PVTZ-JKFIT

    Orbital Energies [Eh]
    ---------------------

    Doubly Occupied:

       1A    -20.601498     2A    -20.530060     3A    -15.619116
       4A    -11.364678     5A    -11.326806     6A    -11.285418
       7A    -11.280645     8A    -11.245995     9A    -11.225648
      10A    -11.214340    11A     -1.415805    12A     -1.385847
      13A     -1.261523    14A     -1.093039    15A     -1.028712
      16A     -0.991357    17A     -0.956587    18A     -0.834038
      19A     -0.789840    20A     -0.738384    21A     -0.702981
      22A     -0.680895    23A     -0.666250    24A     -0.640594
      25A     -0.606526    26A     -0.590265    27A     -0.586856
      28A     -0.584611    29A     -0.573597    30A     -0.556589
      31A     -0.552186    32A     -0.529552    33A     -0.524357
      34A     -0.442498    35A     -0.432854    36A     -0.393171
      37A     -0.298736

  @DF-RHF Final Energy:  -474.61138690192769

   => Energetics <=

    Nuclear Repulsion Energy =            527.5390961773588288
    One-Electron Energy =               -1693.1972593888838219
    Two-Electron Energy =                 691.0467763095972487
    Total Energy =                       -474.6113869019276308
  Basis Set: (AUG-CC-PVTZ AUX)
    Blend: AUG-CC-PVTZ-RI
    Molecular point group: c1

    Geometry (in Angstrom), charge = 0, multiplicity = 1:

       Center              X                  Y                   Z               Mass
    ------------   -----------------  -----------------  -----------------  -----------------
         O           -1.496756871784     1.075192739108     0.092742425715    15.994914619570
         O            1.488896128216    -1.687496260892     0.046005425715    15.994914619570
         N            0.733238128216     0.466508739108    -0.078915574285    14.003074004430
         C           -0.552573171784    -0.090023260892    -0.037088174285    12.000000000000
         C            0.968681128216     1.909947739108    -0.106017574285    12.000000000000
         C            1.739662128216    -0.481009260892     0.019270425715    12.000000000000
         C           -1.258259871784    -1.157711260892    -0.123682574285    12.000000000000
         C           -2.648730871784    -0.844547260892    -0.020339574285    12.000000000000
         C            3.166564128216     0.026166739108     0.081019425715    12.000000000000
         C           -2.749530871784     0.508481739108     0.106264425715    12.000000000000
         H            0.338915128216     2.363451739108    -0.872223574285     1.007825032230
         H            2.009219128216     2.102784739108    -0.351169574285     1.007825032230
         H            0.730278128216     2.368744739108     0.858016425715     1.007825032230
         H           -0.796838871784    -2.123840260892    -0.232587574285     1.007825032230
         H           -3.472175871784    -1.545649260892    -0.040336574285     1.007825032230
         H            3.322439128216     0.722711739108     0.909054425715     1.007825032230
         H            3.459633128216     0.524839739108    -0.847532574285     1.007825032230
         H            3.799793128216    -0.848863260892     0.223781425715     1.007825032230
         H           -3.568433871784     1.204032739108     0.206825425715     1.007825032230

  Basis Set: AUG-CC-PVTZ
    Blend: AUG-CC-PVTZ
  Basis Set: (AUG-CC-PVTZ AUX)
    Blend: AUG-CC-PVTZ-JKFIT
	 Reference Energy          =    -474.6113869019276876 [Eh]
	 Singles Energy            =      -0.0000000000000000 [Eh]
	 Same-Spin Energy          =      -0.4915562326065579 [Eh]
	 Opposite-Spin Energy      =      -1.5302413360536535 [Eh]
	 Correlation Energy        =      -2.0217975686602117 [Eh]
	 Total Energy              =    -476.6331844705878780 [Eh]

	 ================> DF-SCS-MP2 Energies <==================
	-----------------------------------------------------------
	 SCS Same-Spin Scale       =       0.3333333333333333 [-]
	 SCS Opposite-Spin Scale   =       1.2000000000000000 [-]
	 SCS Same-Spin Energy      =      -0.1638520775355193 [Eh]
	 SCS Opposite-Spin Energy  =      -1.8362896032643841 [Eh]
	 SCS Correlation Energy    =      -2.0001416807999033 [Eh]
	 SCS Total Energy          =    -476.6115285827276011 [Eh]
	-----------------------------------------------------------

  Dipole Moment: [D]
     X:     0.8080      Y:     3.0624      Z:    -0.1681     Total:     3.1717

*** Psi4 exiting successfully. Buy a developer a beer!
