                               Psi4 1.3.2 release

  ==> Input File <==

--------------------------------------------------------------------------
#psi4
#
memory 32 gb

molecule  {
0 1
  O       -1.5316190     1.0321650     0.0948010
  O        1.4540340    -1.7305240     0.0480640
  N        0.6983760     0.4234810    -0.0768570
  C       -0.6387160     0.0037620    -0.0484130
  C        0.9338190     1.8669200    -0.1039590
  C        1.7048000    -0.5240370     0.0213290
  C       -1.2931220    -1.2007390    -0.1216240
  C       -2.6835930    -0.8875750    -0.0182810
  C        3.1317020    -0.0168610     0.0830780
  C       -2.7843930     0.4654540     0.1083230
  H        0.3040530     2.3204240    -0.8701650
  H        1.9743570     2.0597570    -0.3491110
  H        0.6954160     2.3257170     0.8600750
  H       -0.8317010    -2.1668680    -0.2305290
  H       -3.5070380    -1.5886770    -0.0382780
  H        3.2875770     0.6796840     0.9111130
  H        3.4247710     0.4818120    -0.8454740
  H        3.7649310    -0.8918910     0.2258400
  H       -3.6032960     1.1610050     0.2088840
units angstrom
no_reorient  #important for SAPT in psi4, default
symmetry c1  #important for SAPT in psi4, default
}

set PROPERTIES_ORIGIN ["COM"]
properties('MP2/aug-cc-pvtz', properties = ['dipole'])
--------------------------------------------------------------------------

    Molecular point group: c1
  Charge       = 0
  Multiplicity = 1
  Basis Set: AUG-CC-PVTZ
    Blend: AUG-CC-PVTZ
  Basis Set: (AUG-CC-PVTZ AUX)
    Blend: AUG-CC-PVTZ-JKFIT

    Orbital Energies [Eh]
    ---------------------

    Doubly Occupied:

       1A    -20.624842     2A    -20.528491     3A    -15.617394
       4A    -11.365577     5A    -11.332478     6A    -11.280475
       7A    -11.279045     8A    -11.246799     9A    -11.229323
      10A    -11.215505    11A     -1.462138    12A     -1.384915
      13A     -1.262661    14A     -1.080206    15A     -1.031981
      16A     -0.990649    17A     -0.954944    18A     -0.836108
      19A     -0.795014    20A     -0.750809    21A     -0.702860
      22A     -0.679798    23A     -0.672898    24A     -0.649069
      25A     -0.622812    26A     -0.592945    27A     -0.589978
      28A     -0.588474    29A     -0.566151    30A     -0.562794
      31A     -0.550350    32A     -0.540555    33A     -0.527055
      34A     -0.434629    35A     -0.431392    36A     -0.391834
      37A     -0.287577

  @DF-RHF Final Energy:  -474.63442039490070

   => Energetics <=

    Nuclear Repulsion Energy =            527.9890381392682457
    One-Electron Energy =               -1693.9258726299181035
    Two-Electron Energy =                 691.3024140957490999
    Total Energy =                       -474.6344203949006442
  Basis Set: (AUG-CC-PVTZ AUX)
    Blend: AUG-CC-PVTZ-RI
    Molecular point group: c1

    Geometry (in Angstrom), charge = 0, multiplicity = 1:

       Center              X                  Y                   Z               Mass
    ------------   -----------------  -----------------  -----------------  -----------------
         O           -1.492331777070     1.063386923605     0.093897300991    15.994914619570
         O            1.493321222930    -1.699302076395     0.047160300991    15.994914619570
         N            0.737663222930     0.454702923605    -0.077760699009    14.003074004430
         C           -0.599428777070     0.034983923605    -0.049316699009    12.000000000000
         C            0.973106222930     1.898141923605    -0.104862699009    12.000000000000
         C            1.744087222930    -0.492815076395     0.020425300991    12.000000000000
         C           -1.253834777070    -1.169517076395    -0.122527699009    12.000000000000
         C           -2.644305777070    -0.856353076395    -0.019184699009    12.000000000000
         C            3.170989222930     0.014360923605     0.082174300991    12.000000000000
         C           -2.745105777070     0.496675923605     0.107419300991    12.000000000000
         H            0.343340222930     2.351645923604    -0.871068699009     1.007825032230
         H            2.013644222930     2.090978923605    -0.350014699009     1.007825032230
         H            0.734703222930     2.356938923605     0.859171300991     1.007825032230
         H           -0.792413777070    -2.135646076395    -0.231432699009     1.007825032230
         H           -3.467750777070    -1.557455076395    -0.039181699009     1.007825032230
         H            3.326864222930     0.710905923605     0.910209300991     1.007825032230
         H            3.464058222930     0.513033923605    -0.846377699009     1.007825032230
         H            3.804218222930    -0.860669076395     0.224936300991     1.007825032230
         H           -3.564008777070     1.192226923605     0.207980300991     1.007825032230

  Basis Set: AUG-CC-PVTZ
    Blend: AUG-CC-PVTZ
  Basis Set: (AUG-CC-PVTZ AUX)
    Blend: AUG-CC-PVTZ-JKFIT
	 Reference Energy          =    -474.6344203949007010 [Eh]
	 Singles Energy            =      -0.0000000000000000 [Eh]
	 Same-Spin Energy          =      -0.4918680039860394 [Eh]
	 Opposite-Spin Energy      =      -1.5281777618906480 [Eh]
	 Correlation Energy        =      -2.0200457658766875 [Eh]
	 Total Energy              =    -476.6544661607773605 [Eh]

	 ================> DF-SCS-MP2 Energies <==================
	-----------------------------------------------------------
	 SCS Same-Spin Scale       =       0.3333333333333333 [-]
	 SCS Opposite-Spin Scale   =       1.2000000000000000 [-]
	 SCS Same-Spin Energy      =      -0.1639560013286798 [Eh]
	 SCS Opposite-Spin Energy  =      -1.8338133142687776 [Eh]
	 SCS Correlation Energy    =      -1.9977693155974574 [Eh]
	 SCS Total Energy          =    -476.6321897104981531 [Eh]
	-----------------------------------------------------------

  Dipole Moment: [D]
     X:     0.6335      Y:     3.2845      Z:    -0.1306     Total:     3.3475

*** Psi4 exiting successfully. Buy a developer a beer!
