                               Psi4 1.3.2 release

  ==> Input File <==

--------------------------------------------------------------------------
#psi4
#
memory 32 gb

molecule  {
0 1
  O       -1.5316190     1.0321650     0.0948010
  O        1.4540340    -1.7305240     0.0480640
  N        0.6983760     0.4234810    -0.0768570
  C       -0.6753472     0.1451736    -0.0621081
  C        0.9338190     1.8669200    -0.1039590
  C        1.7048000    -0.5240370     0.0213290
  C       -1.2931220    -1.2007390    -0.1216240
  C       -2.6835930    -0.8875750    -0.0182810
  C        3.1317020    -0.0168610     0.0830780
  C       -2.7843930     0.4654540     0.1083230
  H        0.3040530     2.3204240    -0.8701650
  H        1.9743570     2.0597570    -0.3491110
  H        0.6954160     2.3257170     0.8600750
  H       -0.8317010    -2.1668680    -0.2305290
  H       -3.5070380    -1.5886770    -0.0382780
  H        3.2875770     0.6796840     0.9111130
  H        3.4247710     0.4818120    -0.8454740
  H        3.7649310    -0.8918910     0.2258400
  H       -3.6032960     1.1610050     0.2088840
units angstrom
no_reorient  #important for SAPT in psi4, default
symmetry c1  #important for SAPT in psi4, default
}

set PROPERTIES_ORIGIN ["COM"]
properties('MP2/aug-cc-pvtz', properties = ['dipole'])
--------------------------------------------------------------------------

    Molecular point group: c1
  Charge       = 0
  Multiplicity = 1
  Basis Set: AUG-CC-PVTZ
    Blend: AUG-CC-PVTZ
  Basis Set: (AUG-CC-PVTZ AUX)
    Blend: AUG-CC-PVTZ-JKFIT

    Orbital Energies [Eh]
    ---------------------

    Doubly Occupied:

       1A    -20.646621     2A    -20.529547     3A    -15.619185
       4A    -11.369320     5A    -11.344093     6A    -11.279627
       7A    -11.271964     8A    -11.249340     9A    -11.231492
      10A    -11.214217    11A     -1.523553    12A     -1.385248
      13A     -1.267216    14A     -1.074380    15A     -1.035280
      16A     -0.992108    17A     -0.958962    18A     -0.837070
      19A     -0.808829    20A     -0.763816    21A     -0.703520
      22A     -0.695173    23A     -0.680952    24A     -0.658095
      25A     -0.638187    26A     -0.596546    27A     -0.595220
      28A     -0.591953    29A     -0.578355    30A     -0.559317
      31A     -0.548379    32A     -0.527722    33A     -0.514678
      34A     -0.433782    35A     -0.429447    36A     -0.391654
      37A     -0.272012

  @DF-RHF Final Energy:  -474.60995869003341

   => Energetics <=

    Nuclear Repulsion Energy =            528.6108180505351584
    One-Electron Energy =               -1694.8078346504541969
    Two-Electron Energy =                 691.5870579098857434
    Total Energy =                       -474.6099586900334089
  Basis Set: (AUG-CC-PVTZ AUX)
    Blend: AUG-CC-PVTZ-RI
    Molecular point group: c1

    Geometry (in Angstrom), charge = 0, multiplicity = 1:

       Center              X                  Y                   Z               Mass
    ------------   -----------------  -----------------  -----------------  -----------------
         O           -1.489170811453     1.051184287454     0.095079073366    15.994914619570
         O            1.496482188547    -1.711504712546     0.048342073366    15.994914619570
         N            0.740824188547     0.442500287454    -0.076578926634    14.003074004430
         C           -0.632899011453     0.164192887454    -0.061830026634    12.000000000000
         C            0.976267188547     1.885939287454    -0.103680926634    12.000000000000
         C            1.747248188547    -0.505017712546     0.021607073366    12.000000000000
         C           -1.250673811453    -1.181719712546    -0.121345926634    12.000000000000
         C           -2.641144811453    -0.868555712546    -0.018002926634    12.000000000000
         C            3.174150188547     0.002158287454     0.083356073366    12.000000000000
         C           -2.741944811453     0.484473287454     0.108601073366    12.000000000000
         H            0.346501188547     2.339443287454    -0.869886926634     1.007825032230
         H            2.016805188547     2.078776287454    -0.348832926634     1.007825032230
         H            0.737864188547     2.344736287454     0.860353073366     1.007825032230
         H           -0.789252811453    -2.147848712546    -0.230250926634     1.007825032230
         H           -3.464589811453    -1.569657712546    -0.037999926634     1.007825032230
         H            3.330025188547     0.698703287454     0.911391073366     1.007825032230
         H            3.467219188547     0.500831287454    -0.845195926634     1.007825032230
         H            3.807379188547    -0.872871712546     0.226118073366     1.007825032230
         H           -3.560847811453     1.180024287454     0.209162073366     1.007825032230

  Basis Set: AUG-CC-PVTZ
    Blend: AUG-CC-PVTZ
  Basis Set: (AUG-CC-PVTZ AUX)
    Blend: AUG-CC-PVTZ-JKFIT
	 Reference Energy          =    -474.6099586900334089 [Eh]
	 Singles Energy            =      -0.0000000000000000 [Eh]
	 Same-Spin Energy          =      -0.4931483886459815 [Eh]
	 Opposite-Spin Energy      =      -1.5276610317789796 [Eh]
	 Correlation Energy        =      -2.0208094204249614 [Eh]
	 Total Energy              =    -476.6307681104583480 [Eh]

	 ================> DF-SCS-MP2 Energies <==================
	-----------------------------------------------------------
	 SCS Same-Spin Scale       =       0.3333333333333333 [-]
	 SCS Opposite-Spin Scale   =       1.2000000000000000 [-]
	 SCS Same-Spin Energy      =      -0.1643827962153272 [Eh]
	 SCS Opposite-Spin Energy  =      -1.8331932381347755 [Eh]
	 SCS Correlation Energy    =      -1.9975760343501028 [Eh]
	 SCS Total Energy          =    -476.6075347243835267 [Eh]
	-----------------------------------------------------------

  Dipole Moment: [D]
     X:     0.5979      Y:     3.5373      Z:    -0.0866     Total:     3.5885

*** Psi4 exiting successfully. Buy a developer a beer!
