                               Psi4 1.4a3.dev225

  ==> Input File <==

--------------------------------------------------------------------------
#psi4
#
memory 32 gb

molecule  {
0 1
  O       -1.5316190     1.0321650     0.0948010
  O        1.4540340    -1.7305240     0.0480640
  N        0.6983760     0.4234810    -0.0768570
  C       -0.6061153    -0.0337860    -0.0536419
  C        0.9338190     1.8669200    -0.1039590
  C        1.7048000    -0.5240370     0.0213290
  C       -1.2931220    -1.2007390    -0.1216240
  C       -2.6835930    -0.8875750    -0.0182810
  C        3.1317020    -0.0168610     0.0830780
  C       -2.7843930     0.4654540     0.1083230
  H        0.3040530     2.3204240    -0.8701650
  H        1.9743570     2.0597570    -0.3491110
  H        0.6954160     2.3257170     0.8600750
  H       -0.8317010    -2.1668680    -0.2305290
  H       -3.5070380    -1.5886770    -0.0382780
  H        3.2875770     0.6796840     0.9111130
  H        3.4247710     0.4818120    -0.8454740
  H        3.7649310    -0.8918910     0.2258400
  H       -3.6032960     1.1610050     0.2088840
units angstrom
no_reorient  #important for SAPT in psi4, default
symmetry c1  #important for SAPT in psi4, default
}

set PROPERTIES_ORIGIN ["COM"]
properties('MP2/aug-cc-pvtz', properties = ['dipole'])
--------------------------------------------------------------------------

    Molecular point group: c1
  Charge       = 0
  Multiplicity = 1
  Basis Set: AUG-CC-PVTZ
    Blend: AUG-CC-PVTZ
  Basis Set: (AUG-CC-PVTZ AUX)
    Blend: AUG-CC-PVTZ-JKFIT

    Orbital Energies [Eh]
    ---------------------

    Doubly Occupied:

       1A    -20.616143     2A    -20.530259     3A    -15.619086
       4A    -11.366295     5A    -11.330900     6A    -11.281492
       7A    -11.280607     8A    -11.247288     9A    -11.227374
      10A    -11.215963    11A     -1.442251    12A     -1.386988
      13A     -1.267331    14A     -1.079801    15A     -1.032407
      16A     -0.991209    17A     -0.955304    18A     -0.838990
      19A     -0.791262    20A     -0.744578    21A     -0.703696
      22A     -0.680885    23A     -0.671370    24A     -0.647047
      25A     -0.615884    26A     -0.592774    27A     -0.589457
      28A     -0.588509    29A     -0.568457    30A     -0.559314
      31A     -0.548196    32A     -0.539278    33A     -0.529090
      34A     -0.438858    35A     -0.433316    36A     -0.390506
      37A     -0.288284

  @DF-RHF Final Energy:  -474.63058654645266

   => Energetics <=

    Nuclear Repulsion Energy =            527.8433114476302990
    One-Electron Energy =               -1693.6868952393429026
    Two-Electron Energy =                 691.2129972452601123
    Total Energy =                       -474.6305865464526050
  Basis Set: (AUG-CC-PVTZ AUX)
    Blend: AUG-CC-PVTZ-RI
    Molecular point group: c1

    Geometry (in Angstrom), charge = 0, multiplicity = 1:

       Center              X                  Y                   Z               Mass
    ------------   -----------------  -----------------  -----------------  -----------------
         O           -1.495144944309     1.066627001379     0.094348511247    15.994914619570
         O            1.490508055691    -1.696061998621     0.047611511247    15.994914619570
         N            0.734850055691     0.457943001379    -0.077309488753    14.003074004430
         C           -0.569641244309     0.000676001379    -0.054094388753    12.000000000000
         C            0.970293055691     1.901382001379    -0.104411488753    12.000000000000
         C            1.741274055691    -0.489574998621     0.020876511247    12.000000000000
         C           -1.256647944309    -1.166276998621    -0.122076488753    12.000000000000
         C           -2.647118944309    -0.853112998621    -0.018733488753    12.000000000000
         C            3.168176055691     0.017601001379     0.082625511247    12.000000000000
         C           -2.747918944309     0.499916001379     0.107870511247    12.000000000000
         H            0.340527055691     2.354886001379    -0.870617488753     1.007825032230
         H            2.010831055691     2.094219001379    -0.349563488753     1.007825032230
         H            0.731890055691     2.360179001379     0.859622511247     1.007825032230
         H           -0.795226944309    -2.132405998621    -0.230981488753     1.007825032230
         H           -3.470563944309    -1.554214998621    -0.038730488753     1.007825032230
         H            3.324051055691     0.714146001379     0.910660511247     1.007825032230
         H            3.461245055691     0.516274001379    -0.845926488753     1.007825032230
         H            3.801405055691    -0.857428998621     0.225387511247     1.007825032230
         H           -3.566821944309     1.195467001379     0.208431511247     1.007825032230

  Basis Set: AUG-CC-PVTZ
    Blend: AUG-CC-PVTZ
  Basis Set: (AUG-CC-PVTZ AUX)
    Blend: AUG-CC-PVTZ-JKFIT
	 Reference Energy          =    -474.6305865464526619 [Eh]
	 Singles Energy            =      -0.0000000000000000 [Eh]
	 Same-Spin Energy          =      -0.4920414902927139 [Eh]
	 Opposite-Spin Energy      =      -1.5292098752837440 [Eh]
	 Correlation Energy        =      -2.0212513655764579 [Eh]
	 Total Energy              =    -476.6518379120291229 [Eh]

	 ================> DF-SCS-MP2 Energies <==================
	-----------------------------------------------------------
	 SCS Same-Spin Scale       =       0.3333333333333333 [-]
	 SCS Opposite-Spin Scale   =       1.2000000000000000 [-]
	 SCS Same-Spin Energy      =      -0.1640138300975713 [Eh]
	 SCS Opposite-Spin Energy  =      -1.8350518503404927 [Eh]
	 SCS Correlation Energy    =      -1.9990656804380640 [Eh]
	 SCS Total Energy          =    -476.6296522268906983 [Eh]
	-----------------------------------------------------------

  Dipole Moment: [D]
     X:     0.7823      Y:     3.2421      Z:    -0.1445     Total:     3.3382

*** Psi4 exiting successfully. Buy a developer a beer!
