                               Psi4 1.4a3.dev225

  ==> Input File <==

--------------------------------------------------------------------------
#psi4
#
memory 32 gb

molecule  {
0 1
  O       -1.5316190     1.0321650     0.0948010
  O        1.4540340    -1.7305240     0.0480640
  N        0.6983760     0.4234810    -0.0768570
  C       -0.6713167     0.0413100    -0.0431841
  C        0.9338190     1.8669200    -0.1039590
  C        1.7048000    -0.5240370     0.0213290
  C       -1.2931220    -1.2007390    -0.1216240
  C       -2.6835930    -0.8875750    -0.0182810
  C        3.1317020    -0.0168610     0.0830780
  C       -2.7843930     0.4654540     0.1083230
  H        0.3040530     2.3204240    -0.8701650
  H        1.9743570     2.0597570    -0.3491110
  H        0.6954160     2.3257170     0.8600750
  H       -0.8317010    -2.1668680    -0.2305290
  H       -3.5070380    -1.5886770    -0.0382780
  H        3.2875770     0.6796840     0.9111130
  H        3.4247710     0.4818120    -0.8454740
  H        3.7649310    -0.8918910     0.2258400
  H       -3.6032960     1.1610050     0.2088840
units angstrom
no_reorient  #important for SAPT in psi4, default
symmetry c1  #important for SAPT in psi4, default
}

set PROPERTIES_ORIGIN ["COM"]
properties('MP2/aug-cc-pvtz', properties = ['dipole'])
--------------------------------------------------------------------------

    Molecular point group: c1
  Charge       = 0
  Multiplicity = 1
  Basis Set: AUG-CC-PVTZ
    Blend: AUG-CC-PVTZ
  Basis Set: (AUG-CC-PVTZ AUX)
    Blend: AUG-CC-PVTZ-JKFIT

    Orbital Energies [Eh]
    ---------------------

    Doubly Occupied:

       1A    -20.633554     2A    -20.526862     3A    -15.615801
       4A    -11.365020     5A    -11.335026     6A    -11.279135
       7A    -11.277646     8A    -11.246391     9A    -11.231269
      10A    -11.215050    11A     -1.485177    12A     -1.382826
      13A     -1.258043    14A     -1.081257    15A     -1.031611
      16A     -0.990676    17A     -0.954722    18A     -0.833487
      19A     -0.799419    20A     -0.757571    21A     -0.702152
      22A     -0.680702    23A     -0.675417    24A     -0.651188
      25A     -0.629327    26A     -0.593003    27A     -0.591118
      28A     -0.588564    29A     -0.570578    30A     -0.561093
      31A     -0.553120    32A     -0.535747    33A     -0.525033
      34A     -0.431670    35A     -0.428220    36A     -0.393428
      37A     -0.286533

  @DF-RHF Final Energy:  -474.63287790080017

   => Energetics <=

    Nuclear Repulsion Energy =            528.1692624242360807
    One-Electron Energy =               -1694.2094010389957930
    Two-Electron Energy =                 691.4072607139594311
    Total Energy =                       -474.6328779008001675
  Basis Set: (AUG-CC-PVTZ AUX)
    Blend: AUG-CC-PVTZ-RI
    Molecular point group: c1

    Geometry (in Angstrom), charge = 0, multiplicity = 1:

       Center              X                  Y                   Z               Mass
    ------------   -----------------  -----------------  -----------------  -----------------
         O           -1.489518609831     1.060146845830     0.093446090736    15.994914619570
         O            1.496134390169    -1.702542154170     0.046709090736    15.994914619570
         N            0.740476390169     0.451462845830    -0.078211909264    14.003074004430
         C           -0.629216309831     0.069291845830    -0.044539009264    12.000000000000
         C            0.975919390169     1.894901845830    -0.105313909264    12.000000000000
         C            1.746900390169    -0.496055154170     0.019974090736    12.000000000000
         C           -1.251021609831    -1.172757154170    -0.122978909264    12.000000000000
         C           -2.641492609831    -0.859593154170    -0.019635909264    12.000000000000
         C            3.173802390169     0.011120845830     0.081723090736    12.000000000000
         C           -2.742292609831     0.493435845830     0.106968090736    12.000000000000
         H            0.346153390169     2.348405845830    -0.871519909264     1.007825032230
         H            2.016457390169     2.087738845830    -0.350465909264     1.007825032230
         H            0.737516390169     2.353698845830     0.858720090736     1.007825032230
         H           -0.789600609831    -2.138886154170    -0.231883909264     1.007825032230
         H           -3.464937609831    -1.560695154170    -0.039632909264     1.007825032230
         H            3.329677390169     0.707665845830     0.909758090736     1.007825032230
         H            3.466871390169     0.509793845830    -0.846828909264     1.007825032230
         H            3.807031390169    -0.863909154170     0.224485090736     1.007825032230
         H           -3.561195609831     1.188986845830     0.207529090736     1.007825032230

  Basis Set: AUG-CC-PVTZ
    Blend: AUG-CC-PVTZ
  Basis Set: (AUG-CC-PVTZ AUX)
    Blend: AUG-CC-PVTZ-JKFIT
	 Reference Energy          =    -474.6328779008001675 [Eh]
	 Singles Energy            =      -0.0000000000000000 [Eh]
	 Same-Spin Energy          =      -0.4918229618214771 [Eh]
	 Opposite-Spin Energy      =      -1.5273372629550566 [Eh]
	 Correlation Energy        =      -2.0191602247765337 [Eh]
	 Total Energy              =    -476.6520381255767234 [Eh]

	 ================> DF-SCS-MP2 Energies <==================
	-----------------------------------------------------------
	 SCS Same-Spin Scale       =       0.3333333333333333 [-]
	 SCS Opposite-Spin Scale   =       1.2000000000000000 [-]
	 SCS Same-Spin Energy      =      -0.1639409872738257 [Eh]
	 SCS Opposite-Spin Energy  =      -1.8328047155460678 [Eh]
	 SCS Correlation Energy    =      -1.9967457028198936 [Eh]
	 SCS Total Energy          =    -476.6296236036200753 [Eh]
	-----------------------------------------------------------

  Dipole Moment: [D]
     X:     0.4937      Y:     3.3323      Z:    -0.1160     Total:     3.3707

*** Psi4 exiting successfully. Buy a developer a beer!
