                               Psi4 1.3.2 release

  ==> Input File <==

--------------------------------------------------------------------------
#psi4
#
memory 32 gb

molecule  {
0 1
  O       -1.5316190     1.0321650     0.0948010
  O        1.4540340    -1.7305240     0.0480640
  N        0.6983760     0.4234810    -0.0768570
  C       -0.7243472     0.0459828    -0.0403229
  C        0.9338190     1.8669200    -0.1039590
  C        1.7048000    -0.5240370     0.0213290
  C       -1.2931220    -1.2007390    -0.1216240
  C       -2.6835930    -0.8875750    -0.0182810
  C        3.1317020    -0.0168610     0.0830780
  C       -2.7843930     0.4654540     0.1083230
  H        0.3040530     2.3204240    -0.8701650
  H        1.9743570     2.0597570    -0.3491110
  H        0.6954160     2.3257170     0.8600750
  H       -0.8317010    -2.1668680    -0.2305290
  H       -3.5070380    -1.5886770    -0.0382780
  H        3.2875770     0.6796840     0.9111130
  H        3.4247710     0.4818120    -0.8454740
  H        3.7649310    -0.8918910     0.2258400
  H       -3.6032960     1.1610050     0.2088840
units angstrom
no_reorient  #important for SAPT in psi4, default
symmetry c1  #important for SAPT in psi4, default
}

set PROPERTIES_ORIGIN ["COM"]
properties('MP2/aug-cc-pvtz', properties = ['dipole'])
--------------------------------------------------------------------------

    Molecular point group: c1
  Charge       = 0
  Multiplicity = 1
  Basis Set: AUG-CC-PVTZ
    Blend: AUG-CC-PVTZ
  Basis Set: (AUG-CC-PVTZ AUX)
    Blend: AUG-CC-PVTZ-JKFIT

    Orbital Energies [Eh]
    ---------------------

    Doubly Occupied:

       1A    -20.640852     2A    -20.522857     3A    -15.611219
       4A    -11.361926     5A    -11.335747     6A    -11.280432
       7A    -11.274512     8A    -11.244189     9A    -11.234451
      10A    -11.214139    11A     -1.507049    12A     -1.378225
      13A     -1.245691    14A     -1.090408    15A     -1.028843
      16A     -0.991046    17A     -0.951959    18A     -0.830917
      19A     -0.799915    20A     -0.765970    21A     -0.700279
      22A     -0.684048    23A     -0.673724    24A     -0.649696
      25A     -0.632729    26A     -0.592652    27A     -0.590562
      28A     -0.588926    29A     -0.576527    30A     -0.559453
      31A     -0.553609    32A     -0.531656    33A     -0.521150
      34A     -0.427586    35A     -0.421113    36A     -0.397693
      37A     -0.292583

  @DF-RHF Final Energy:  -474.62659325863922

   => Energetics <=

    Nuclear Repulsion Energy =            528.2927697090485708
    One-Electron Energy =               -1694.4300578569493609
    Two-Electron Energy =                 691.5106948892615719
    Total Energy =                       -474.6265932586392182
  Basis Set: (AUG-CC-PVTZ AUX)
    Blend: AUG-CC-PVTZ-RI
    Molecular point group: c1

    Geometry (in Angstrom), charge = 0, multiplicity = 1:

       Center              X                  Y                   Z               Mass
    ------------   -----------------  -----------------  -----------------  -----------------
         O           -1.484942522039     1.059743622345     0.093199193151    15.994914619570
         O            1.500710477961    -1.702945377655     0.046462193151    15.994914619570
         N            0.745052477961     0.451059622345    -0.078458806849    14.003074004430
         C           -0.677670722039     0.073561422345    -0.041924706849    12.000000000000
         C            0.980495477961     1.894498622345    -0.105560806849    12.000000000000
         C            1.751476477961    -0.496458377655     0.019727193151    12.000000000000
         C           -1.246445522039    -1.173160377655    -0.123225806849    12.000000000000
         C           -2.636916522039    -0.859996377655    -0.019882806849    12.000000000000
         C            3.178378477961     0.010717622345     0.081476193151    12.000000000000
         C           -2.737716522039     0.493032622345     0.106721193151    12.000000000000
         H            0.350729477961     2.348002622345    -0.871766806849     1.007825032230
         H            2.021033477961     2.087335622345    -0.350712806849     1.007825032230
         H            0.742092477961     2.353295622345     0.858473193151     1.007825032230
         H           -0.785024522039    -2.139289377655    -0.232130806849     1.007825032230
         H           -3.460361522039    -1.561098377655    -0.039879806849     1.007825032230
         H            3.334253477961     0.707262622345     0.909511193151     1.007825032230
         H            3.471447477961     0.509390622345    -0.847075806849     1.007825032230
         H            3.811607477961    -0.864312377655     0.224238193151     1.007825032230
         H           -3.556619522039     1.188583622345     0.207282193151     1.007825032230

  Basis Set: AUG-CC-PVTZ
    Blend: AUG-CC-PVTZ
  Basis Set: (AUG-CC-PVTZ AUX)
    Blend: AUG-CC-PVTZ-JKFIT
	 Reference Energy          =    -474.6265932586392182 [Eh]
	 Singles Energy            =      -0.0000000000000000 [Eh]
	 Same-Spin Energy          =      -0.4912461045934756 [Eh]
	 Opposite-Spin Energy      =      -1.5262956769198173 [Eh]
	 Correlation Energy        =      -2.0175417815132928 [Eh]
	 Total Energy              =    -476.6441350401524915 [Eh]

	 ================> DF-SCS-MP2 Energies <==================
	-----------------------------------------------------------
	 SCS Same-Spin Scale       =       0.3333333333333333 [-]
	 SCS Opposite-Spin Scale   =       1.2000000000000000 [-]
	 SCS Same-Spin Energy      =      -0.1637487015311585 [Eh]
	 SCS Opposite-Spin Energy  =      -1.8315548123037806 [Eh]
	 SCS Correlation Energy    =      -1.9953035138349391 [Eh]
	 SCS Total Energy          =    -476.6218967724741447 [Eh]
	-----------------------------------------------------------

  Dipole Moment: [D]
     X:     0.2075      Y:     3.3017      Z:    -0.1093     Total:     3.3100

*** Psi4 exiting successfully. Buy a developer a beer!
