                               Psi4 1.3.2 release

  ==> Input File <==

--------------------------------------------------------------------------
#psi4
#
memory 32 gb

molecule  {
0 1
  O       -1.5316190     1.0321650     0.0948010
  O        1.4540340    -1.7305240     0.0480640
  N        0.6983760     0.4234810    -0.0768570
  C       -0.6387160     0.0037620    -0.0484130
  C        0.9338190     1.8669200    -0.1039590
  C        1.7048000    -0.5240370     0.0213290
  C       -1.2931220    -1.2007390    -0.1216240
  C       -2.6835930    -0.8875750    -0.0182810
  C        3.1317020    -0.0168610     0.0830780
  C       -2.8754999     0.4242404     0.1093064
  H        0.3040530     2.3204240    -0.8701650
  H        1.9743570     2.0597570    -0.3491110
  H        0.6954160     2.3257170     0.8600750
  H       -0.8317010    -2.1668680    -0.2305290
  H       -3.5070380    -1.5886770    -0.0382780
  H        3.2875770     0.6796840     0.9111130
  H        3.4247710     0.4818120    -0.8454740
  H        3.7649310    -0.8918910     0.2258400
  H       -3.6032960     1.1610050     0.2088840
units angstrom
no_reorient  #important for SAPT in psi4, default
symmetry c1  #important for SAPT in psi4, default
}

set PROPERTIES_ORIGIN ["COM"]
properties('MP2/aug-cc-pvtz', properties = ['dipole'])
--------------------------------------------------------------------------

    Molecular point group: c1
  Charge       = 0
  Multiplicity = 1
  Basis Set: AUG-CC-PVTZ
    Blend: AUG-CC-PVTZ
  Basis Set: (AUG-CC-PVTZ AUX)
    Blend: AUG-CC-PVTZ-JKFIT

    Orbital Energies [Eh]
    ---------------------

    Doubly Occupied:

       1A    -20.609225     2A    -20.529569     3A    -15.618168
       4A    -11.366496     5A    -11.336101     6A    -11.278221
       7A    -11.277841     8A    -11.247165     9A    -11.234396
      10A    -11.212711    11A     -1.429453    12A     -1.384293
      13A     -1.260427    14A     -1.081829    15A     -1.031105
      16A     -0.991731    17A     -0.952793    18A     -0.838307
      19A     -0.793777    20A     -0.742344    21A     -0.700825
      22A     -0.680630    23A     -0.668289    24A     -0.646062
      25A     -0.610304    26A     -0.592298    27A     -0.589111
      28A     -0.581852    29A     -0.569883    30A     -0.563649
      31A     -0.549483    32A     -0.534059    33A     -0.526233
      34A     -0.433572    35A     -0.430501    36A     -0.398862
      37A     -0.292892

  @DF-RHF Final Energy:  -474.62518171168233

   => Energetics <=

    Nuclear Repulsion Energy =            526.2443895441422228
    One-Electron Energy =               -1690.5702327791752850
    Two-Electron Energy =                 689.7006615233507318
    Total Energy =                       -474.6251817116823304
  Basis Set: (AUG-CC-PVTZ AUX)
    Blend: AUG-CC-PVTZ-RI
    Molecular point group: c1

    Geometry (in Angstrom), charge = 0, multiplicity = 1:

       Center              X                  Y                   Z               Mass
    ------------   -----------------  -----------------  -----------------  -----------------
         O           -1.484470015011     1.066943311944     0.093812441812    15.994914619570
         O            1.501182984989    -1.695745688056     0.047075441812    15.994914619570
         N            0.745524984989     0.458259311944    -0.077845558188    14.003074004430
         C           -0.591567015011     0.038540311944    -0.049401558188    12.000000000000
         C            0.980967984989     1.901698311944    -0.104947558188    12.000000000000
         C            1.751948984989    -0.489258688056     0.020340441812    12.000000000000
         C           -1.245973015011    -1.165960688056    -0.122612558188    12.000000000000
         C           -2.636444015011    -0.852796688056    -0.019269558188    12.000000000000
         C            3.178850984989     0.017917311944     0.082089441812    12.000000000000
         C           -2.828350915011     0.459018711944     0.108317841812    12.000000000000
         H            0.351201984989     2.355202311944    -0.871153558188     1.007825032230
         H            2.021505984989     2.094535311944    -0.350099558188     1.007825032230
         H            0.742564984989     2.360495311944     0.859086441812     1.007825032230
         H           -0.784552015011    -2.132089688056    -0.231517558188     1.007825032230
         H           -3.459889015011    -1.553898688056    -0.039266558188     1.007825032230
         H            3.334725984989     0.714462311944     0.910124441812     1.007825032230
         H            3.471919984989     0.516590311944    -0.846462558188     1.007825032230
         H            3.812079984989    -0.857112688056     0.224851441812     1.007825032230
         H           -3.556147015011     1.195783311944     0.207895441812     1.007825032230

  Basis Set: AUG-CC-PVTZ
    Blend: AUG-CC-PVTZ
  Basis Set: (AUG-CC-PVTZ AUX)
    Blend: AUG-CC-PVTZ-JKFIT
	 Reference Energy          =    -474.6251817116823304 [Eh]
	 Singles Energy            =      -0.0000000000000000 [Eh]
	 Same-Spin Energy          =      -0.4913685771788483 [Eh]
	 Opposite-Spin Energy      =      -1.5289103414366889 [Eh]
	 Correlation Energy        =      -2.0202789186155372 [Eh]
	 Total Energy              =    -476.6454606302978618 [Eh]

	 ================> DF-SCS-MP2 Energies <==================
	-----------------------------------------------------------
	 SCS Same-Spin Scale       =       0.3333333333333333 [-]
	 SCS Opposite-Spin Scale   =       1.2000000000000000 [-]
	 SCS Same-Spin Energy      =      -0.1637895257262827 [Eh]
	 SCS Opposite-Spin Energy  =      -1.8346924097240267 [Eh]
	 SCS Correlation Energy    =      -1.9984819354503094 [Eh]
	 SCS Total Energy          =    -476.6236636471326165 [Eh]
	-----------------------------------------------------------

  Dipole Moment: [D]
     X:     0.5375      Y:     3.1693      Z:    -0.1309     Total:     3.2172

*** Psi4 exiting successfully. Buy a developer a beer!
