                               Psi4 1.3.2 release

  ==> Input File <==

--------------------------------------------------------------------------
#psi4
#
memory 32 gb

molecule  {
0 1
  O       -1.5316190     1.0321650     0.0948010
  O        1.4540340    -1.7305240     0.0480640
  N        0.6983760     0.4234810    -0.0768570
  C       -0.6387160     0.0037620    -0.0484130
  C        0.9338190     1.8669200    -0.1039590
  C        1.7048000    -0.5240370     0.0213290
  C       -1.2741294    -1.1031389    -0.1137049
  C       -2.6835930    -0.8875750    -0.0182810
  C        3.1317020    -0.0168610     0.0830780
  C       -2.7843930     0.4654540     0.1083230
  H        0.3040530     2.3204240    -0.8701650
  H        1.9743570     2.0597570    -0.3491110
  H        0.6954160     2.3257170     0.8600750
  H       -0.8317010    -2.1668680    -0.2305290
  H       -3.5070380    -1.5886770    -0.0382780
  H        3.2875770     0.6796840     0.9111130
  H        3.4247710     0.4818120    -0.8454740
  H        3.7649310    -0.8918910     0.2258400
  H       -3.6032960     1.1610050     0.2088840
units angstrom
no_reorient  #important for SAPT in psi4, default
symmetry c1  #important for SAPT in psi4, default
}

set PROPERTIES_ORIGIN ["COM"]
properties('MP2/aug-cc-pvtz', properties = ['dipole'])
--------------------------------------------------------------------------

    Molecular point group: c1
  Charge       = 0
  Multiplicity = 1
  Basis Set: AUG-CC-PVTZ
    Blend: AUG-CC-PVTZ
  Basis Set: (AUG-CC-PVTZ AUX)
    Blend: AUG-CC-PVTZ-JKFIT

    Orbital Energies [Eh]
    ---------------------

    Doubly Occupied:

       1A    -20.617710     2A    -20.526223     3A    -15.614152
       4A    -11.364041     5A    -11.315837     6A    -11.283815
       7A    -11.277459     8A    -11.245571     9A    -11.228264
      10A    -11.208534    11A     -1.462180    12A     -1.383069
      13A     -1.260379    14A     -1.090496    15A     -1.032803
      16A     -0.994322    17A     -0.955783    18A     -0.836345
      19A     -0.799658    20A     -0.741483    21A     -0.702828
      22A     -0.678496    23A     -0.672734    24A     -0.649229
      25A     -0.623072    26A     -0.593096    27A     -0.590871
      28A     -0.586610    29A     -0.570600    30A     -0.557427
      31A     -0.546039    32A     -0.527194    33A     -0.524571
      34A     -0.436147    35A     -0.427748    36A     -0.392994
      37A     -0.299283

  @DF-RHF Final Energy:  -474.62296195420112

   => Energetics <=

    Nuclear Repulsion Energy =            530.0927926198730802
    One-Electron Energy =               -1698.1973886843929904
    Two-Electron Energy =                 693.4816341103188506
    Total Energy =                       -474.6229619542010596
  Basis Set: (AUG-CC-PVTZ AUX)
    Blend: AUG-CC-PVTZ-RI
    Molecular point group: c1

    Geometry (in Angstrom), charge = 0, multiplicity = 1:

       Center              X                  Y                   Z               Mass
    ------------   -----------------  -----------------  -----------------  -----------------
         O           -1.493970679305     1.054964852794     0.093213949018    15.994914619570
         O            1.491682320695    -1.707724147206     0.046476949018    15.994914619570
         N            0.736024320695     0.446280852794    -0.078444050982    14.003074004430
         C           -0.601067679305     0.026561852794    -0.050000050982    12.000000000000
         C            0.971467320695     1.889719852794    -0.105546050982    12.000000000000
         C            1.742448320695    -0.501237147206     0.019741949018    12.000000000000
         C           -1.236481079305    -1.080339047206    -0.115291950982    12.000000000000
         C           -2.645944679305    -0.864775147206    -0.019868050982    12.000000000000
         C            3.169350320695     0.005938852794     0.081490949018    12.000000000000
         C           -2.746744679305     0.488253852794     0.106735949018    12.000000000000
         H            0.341701320695     2.343223852794    -0.871752050982     1.007825032230
         H            2.012005320695     2.082556852794    -0.350698050982     1.007825032230
         H            0.733064320695     2.348516852794     0.858487949018     1.007825032230
         H           -0.794052679305    -2.144068147206    -0.232116050982     1.007825032230
         H           -3.469389679305    -1.565877147206    -0.039865050982     1.007825032230
         H            3.325225320695     0.702483852794     0.909525949018     1.007825032230
         H            3.462419320695     0.504611852794    -0.847061050982     1.007825032230
         H            3.802579320695    -0.869091147206     0.224252949018     1.007825032230
         H           -3.565647679305     1.183804852794     0.207296949018     1.007825032230

  Basis Set: AUG-CC-PVTZ
    Blend: AUG-CC-PVTZ
  Basis Set: (AUG-CC-PVTZ AUX)
    Blend: AUG-CC-PVTZ-JKFIT
	 Reference Energy          =    -474.6229619542011164 [Eh]
	 Singles Energy            =      -0.0000000000000000 [Eh]
	 Same-Spin Energy          =      -0.4907354563264705 [Eh]
	 Opposite-Spin Energy      =      -1.5263399350416043 [Eh]
	 Correlation Energy        =      -2.0170753913680746 [Eh]
	 Total Energy              =    -476.6400373455691692 [Eh]

	 ================> DF-SCS-MP2 Energies <==================
	-----------------------------------------------------------
	 SCS Same-Spin Scale       =       0.3333333333333333 [-]
	 SCS Opposite-Spin Scale   =       1.2000000000000000 [-]
	 SCS Same-Spin Energy      =      -0.1635784854421568 [Eh]
	 SCS Opposite-Spin Energy  =      -1.8316079220499251 [Eh]
	 SCS Correlation Energy    =      -1.9951864074920818 [Eh]
	 SCS Total Energy          =    -476.6181483616932155 [Eh]
	-----------------------------------------------------------

  Dipole Moment: [D]
     X:     0.5304      Y:     3.2028      Z:    -0.1338     Total:     3.2492

*** Psi4 exiting successfully. Buy a developer a beer!
