                               Psi4 1.3.2 release

  ==> Input File <==

--------------------------------------------------------------------------
#psi4
#
memory 32 gb

molecule  {
0 1
  O       -1.5316190     1.0321650     0.0948010
  O        1.4540340    -1.7305240     0.0480640
  N        0.6983760     0.4234810    -0.0768570
  C       -0.6387160     0.0037620    -0.0484130
  C        0.9338190     1.8669200    -0.1039590
  C        1.7048000    -0.5240370     0.0213290
  C       -1.2931220    -1.2007390    -0.1216240
  C       -2.6835930    -0.8875750    -0.0182810
  C        3.1317020    -0.0168610     0.0830780
  C       -2.9666069     0.3830268     0.1102898
  H        0.3040530     2.3204240    -0.8701650
  H        1.9743570     2.0597570    -0.3491110
  H        0.6954160     2.3257170     0.8600750
  H       -0.8317010    -2.1668680    -0.2305290
  H       -3.5070380    -1.5886770    -0.0382780
  H        3.2875770     0.6796840     0.9111130
  H        3.4247710     0.4818120    -0.8454740
  H        3.7649310    -0.8918910     0.2258400
  H       -3.6032960     1.1610050     0.2088840
units angstrom
no_reorient  #important for SAPT in psi4, default
symmetry c1  #important for SAPT in psi4, default
}

set PROPERTIES_ORIGIN ["COM"]
properties('MP2/aug-cc-pvtz', properties = ['dipole'])
--------------------------------------------------------------------------

    Molecular point group: c1
  Charge       = 0
  Multiplicity = 1
  Basis Set: AUG-CC-PVTZ
    Blend: AUG-CC-PVTZ
  Basis Set: (AUG-CC-PVTZ AUX)
    Blend: AUG-CC-PVTZ-JKFIT

    Orbital Energies [Eh]
    ---------------------

    Doubly Occupied:

       1A    -20.592522     2A    -20.530166     3A    -15.618345
       4A    -11.366922     5A    -11.338498     6A    -11.280239
       7A    -11.276310     8A    -11.247193     9A    -11.240499
      10A    -11.210486    11A     -1.406877    12A     -1.380789
      13A     -1.257572    14A     -1.084891    15A     -1.030160
      16A     -0.992992    17A     -0.951791    18A     -0.840157
      19A     -0.797257    20A     -0.735852    21A     -0.698831
      22A     -0.682559    23A     -0.665178    24A     -0.643053
      25A     -0.602679    26A     -0.598171    27A     -0.582858
      28A     -0.576553    29A     -0.573421    30A     -0.565346
      31A     -0.549180    32A     -0.524967    33A     -0.509530
      34A     -0.433524    35A     -0.428499    36A     -0.405775
      37A     -0.296787

  @DF-RHF Final Energy:  -474.60355743872117

   => Energetics <=

    Nuclear Repulsion Energy =            524.6032546958740568
    One-Electron Energy =               -1687.3807632619430024
    Two-Electron Energy =                 688.1739511273477774
    Total Energy =                       -474.6035574387211682
  Basis Set: (AUG-CC-PVTZ AUX)
    Blend: AUG-CC-PVTZ-RI
    Molecular point group: c1

    Geometry (in Angstrom), charge = 0, multiplicity = 1:

       Center              X                  Y                   Z               Mass
    ------------   -----------------  -----------------  -----------------  -----------------
         O           -1.476608244323     1.070499700283     0.093727582632    15.994914619570
         O            1.509044755677    -1.692189299717     0.046990582632    15.994914619570
         N            0.753386755677     0.461815700283    -0.077930417368    14.003074004430
         C           -0.583705244323     0.042096700283    -0.049486417368    12.000000000000
         C            0.988829755677     1.905254700283    -0.105032417368    12.000000000000
         C            1.759810755677    -0.485702299717     0.020255582632    12.000000000000
         C           -1.238111244323    -1.162404299717    -0.122697417368    12.000000000000
         C           -2.628582244323    -0.849240299717    -0.019354417368    12.000000000000
         C            3.186712755677     0.021473700283     0.082004582632    12.000000000000
         C           -2.911596144323     0.421361500283     0.109216382632    12.000000000000
         H            0.359063755677     2.358758700283    -0.871238417368     1.007825032230
         H            2.029367755677     2.098091700283    -0.350184417368     1.007825032230
         H            0.750426755677     2.364051700283     0.859001582632     1.007825032230
         H           -0.776690244323    -2.128533299717    -0.231602417368     1.007825032230
         H           -3.452027244323    -1.550342299717    -0.039351417368     1.007825032230
         H            3.342587755677     0.718018700283     0.910039582632     1.007825032230
         H            3.479781755677     0.520146700283    -0.846547417368     1.007825032230
         H            3.819941755677    -0.853556299717     0.224766582632     1.007825032230
         H           -3.548285244323     1.199339700283     0.207810582632     1.007825032230

  Basis Set: AUG-CC-PVTZ
    Blend: AUG-CC-PVTZ
  Basis Set: (AUG-CC-PVTZ AUX)
    Blend: AUG-CC-PVTZ-JKFIT
	 Reference Energy          =    -474.6035574387211682 [Eh]
	 Singles Energy            =      -0.0000000000000000 [Eh]
	 Same-Spin Energy          =      -0.4912621740770495 [Eh]
	 Opposite-Spin Energy      =      -1.5299371618338704 [Eh]
	 Correlation Energy        =      -2.0211993359109197 [Eh]
	 Total Energy              =    -476.6247567746320897 [Eh]

	 ================> DF-SCS-MP2 Energies <==================
	-----------------------------------------------------------
	 SCS Same-Spin Scale       =       0.3333333333333333 [-]
	 SCS Opposite-Spin Scale   =       1.2000000000000000 [-]
	 SCS Same-Spin Energy      =      -0.1637540580256832 [Eh]
	 SCS Opposite-Spin Energy  =      -1.8359245942006444 [Eh]
	 SCS Correlation Energy    =      -1.9996786522263275 [Eh]
	 SCS Total Energy          =    -476.6032360909475187 [Eh]
	-----------------------------------------------------------

  Dipole Moment: [D]
     X:     0.4301      Y:     3.0667      Z:    -0.1296     Total:     3.0994

*** Psi4 exiting successfully. Buy a developer a beer!
