                               Psi4 1.3.2 release

  ==> Input File <==

--------------------------------------------------------------------------
#psi4
#
memory 32 gb

molecule  {
0 1
  O       -1.5316190     1.0321650     0.0948010
  O        1.4540340    -1.7305240     0.0480640
  N        0.6983760     0.4234810    -0.0768570
  C       -0.6232257    -0.0424285    -0.0439099
  C        0.9338190     1.8669200    -0.1039590
  C        1.7048000    -0.5240370     0.0213290
  C       -1.2931220    -1.2007390    -0.1216240
  C       -2.6835930    -0.8875750    -0.0182810
  C        3.1317020    -0.0168610     0.0830780
  C       -2.7843930     0.4654540     0.1083230
  H        0.3040530     2.3204240    -0.8701650
  H        1.9743570     2.0597570    -0.3491110
  H        0.6954160     2.3257170     0.8600750
  H       -0.8317010    -2.1668680    -0.2305290
  H       -3.5070380    -1.5886770    -0.0382780
  H        3.2875770     0.6796840     0.9111130
  H        3.4247710     0.4818120    -0.8454740
  H        3.7649310    -0.8918910     0.2258400
  H       -3.6032960     1.1610050     0.2088840
units angstrom
no_reorient  #important for SAPT in psi4, default
symmetry c1  #important for SAPT in psi4, default
}

set PROPERTIES_ORIGIN ["COM"]
properties('MP2/aug-cc-pvtz', properties = ['dipole'])
--------------------------------------------------------------------------

    Molecular point group: c1
  Charge       = 0
  Multiplicity = 1
  Basis Set: AUG-CC-PVTZ
    Blend: AUG-CC-PVTZ
  Basis Set: (AUG-CC-PVTZ AUX)
    Blend: AUG-CC-PVTZ-JKFIT

    Orbital Energies [Eh]
    ---------------------

    Doubly Occupied:

       1A    -20.617405     2A    -20.528681     3A    -15.617529
       4A    -11.364929     5A    -11.329781     6A    -11.282533
       7A    -11.279351     8A    -11.246320     9A    -11.228260
      10A    -11.215211    11A     -1.444930    12A     -1.385247
      13A     -1.261887    14A     -1.084051    15A     -1.030737
      16A     -0.990688    17A     -0.954823    18A     -0.835684
      19A     -0.792458    20A     -0.746455    21A     -0.702714
      22A     -0.679514    23A     -0.669749    24A     -0.645669
      25A     -0.617041    26A     -0.591976    27A     -0.587924
      28A     -0.587641    29A     -0.568487    30A     -0.561007
      31A     -0.548055    32A     -0.542011    33A     -0.527680
      34A     -0.436694    35A     -0.431755    36A     -0.392172
      37A     -0.291898

  @DF-RHF Final Energy:  -474.63140468223537

   => Energetics <=

    Nuclear Repulsion Energy =            527.8228802085678808
    One-Electron Energy =               -1693.6706813353530379
    Two-Electron Energy =                 691.2163964445499005
    Total Energy =                       -474.6314046822353703
  Basis Set: (AUG-CC-PVTZ AUX)
    Blend: AUG-CC-PVTZ-RI
    Molecular point group: c1

    Geometry (in Angstrom), charge = 0, multiplicity = 1:

       Center              X                  Y                   Z               Mass
    ------------   -----------------  -----------------  -----------------  -----------------
         O           -1.493668460162     1.067372776711     0.093508721194    15.994914619570
         O            1.491984539838    -1.695316223289     0.046771721194    15.994914619570
         N            0.736326539838     0.458688776711    -0.078149278806    14.003074004430
         C           -0.585275160162    -0.007220723289    -0.045202178806    12.000000000000
         C            0.971769539838     1.902127776711    -0.105251278806    12.000000000000
         C            1.742750539838    -0.488829223289     0.020036721194    12.000000000000
         C           -1.255171460162    -1.165531223289    -0.122916278806    12.000000000000
         C           -2.645642460162    -0.852367223289    -0.019573278806    12.000000000000
         C            3.169652539838     0.018346776711     0.081785721194    12.000000000000
         C           -2.746442460162     0.500661776711     0.107030721194    12.000000000000
         H            0.342003539838     2.355631776711    -0.871457278806     1.007825032230
         H            2.012307539838     2.094964776711    -0.350403278806     1.007825032230
         H            0.733366539838     2.360924776711     0.858782721194     1.007825032230
         H           -0.793750460162    -2.131660223289    -0.231821278806     1.007825032230
         H           -3.469087460162    -1.553469223289    -0.039570278806     1.007825032230
         H            3.325527539838     0.714891776711     0.909820721194     1.007825032230
         H            3.462721539838     0.517019776711    -0.846766278806     1.007825032230
         H            3.802881539838    -0.856683223289     0.224547721194     1.007825032230
         H           -3.565345460162     1.196212776711     0.207591721194     1.007825032230

  Basis Set: AUG-CC-PVTZ
    Blend: AUG-CC-PVTZ
  Basis Set: (AUG-CC-PVTZ AUX)
    Blend: AUG-CC-PVTZ-JKFIT
	 Reference Energy          =    -474.6314046822353703 [Eh]
	 Singles Energy            =      -0.0000000000000000 [Eh]
	 Same-Spin Energy          =      -0.4916044210377670 [Eh]
	 Opposite-Spin Energy      =      -1.5286639183172084 [Eh]
	 Correlation Energy        =      -2.0202683393549754 [Eh]
	 Total Energy              =    -476.6516730215903408 [Eh]

	 ================> DF-SCS-MP2 Energies <==================
	-----------------------------------------------------------
	 SCS Same-Spin Scale       =       0.3333333333333333 [-]
	 SCS Opposite-Spin Scale   =       1.2000000000000000 [-]
	 SCS Same-Spin Energy      =      -0.1638681403459223 [Eh]
	 SCS Opposite-Spin Energy  =      -1.8343967019806500 [Eh]
	 SCS Correlation Energy    =      -1.9982648423265723 [Eh]
	 SCS Total Energy          =    -476.6296695245619617 [Eh]
	-----------------------------------------------------------

  Dipole Moment: [D]
     X:     0.6765      Y:     3.2084      Z:    -0.1437     Total:     3.2821

*** Psi4 exiting successfully. Buy a developer a beer!
