                               Psi4 1.3.2 release

  ==> Input File <==

--------------------------------------------------------------------------
#psi4
#
memory 32 gb

molecule  {
0 1
  O       -1.5316190     1.0321650     0.0948010
  O        1.4540340    -1.7305240     0.0480640
  N        0.6983760     0.4234810    -0.0768570
  C       -0.6387160     0.0037620    -0.0484130
  C        0.9338190     1.8669200    -0.1039590
  C        1.7048000    -0.5240370     0.0213290
  C       -1.2931220    -1.2007390    -0.1216240
  C       -2.6835930    -0.8875750    -0.0182810
  C        3.1317020    -0.0168610     0.0830780
  C       -2.6021791     0.5478812     0.1063562
  H        0.3040530     2.3204240    -0.8701650
  H        1.9743570     2.0597570    -0.3491110
  H        0.6954160     2.3257170     0.8600750
  H       -0.8317010    -2.1668680    -0.2305290
  H       -3.5070380    -1.5886770    -0.0382780
  H        3.2875770     0.6796840     0.9111130
  H        3.4247710     0.4818120    -0.8454740
  H        3.7649310    -0.8918910     0.2258400
  H       -3.6032960     1.1610050     0.2088840
units angstrom
no_reorient  #important for SAPT in psi4, default
symmetry c1  #important for SAPT in psi4, default
}

set PROPERTIES_ORIGIN ["COM"]
properties('MP2/aug-cc-pvtz', properties = ['dipole'])
--------------------------------------------------------------------------

    Molecular point group: c1
  Charge       = 0
  Multiplicity = 1
  Basis Set: AUG-CC-PVTZ
    Blend: AUG-CC-PVTZ
  Basis Set: (AUG-CC-PVTZ AUX)
    Blend: AUG-CC-PVTZ-JKFIT

    Orbital Energies [Eh]
    ---------------------

    Doubly Occupied:

       1A    -20.657682     2A    -20.524969     3A    -15.614573
       4A    -11.362372     5A    -11.321149     6A    -11.298652
       7A    -11.281292     8A    -11.245252     9A    -11.223428
      10A    -11.219156    11A     -1.566353    12A     -1.383140
      13A     -1.265774    14A     -1.085420    15A     -1.033928
      16A     -0.991081    17A     -0.964241    18A     -0.834624
      19A     -0.805278    20A     -0.777361    21A     -0.710539
      22A     -0.707950    23A     -0.677760    24A     -0.660912
      25A     -0.646750    26A     -0.599762    27A     -0.594407
      28A     -0.586520    29A     -0.582938    30A     -0.562372
      31A     -0.551783    32A     -0.528348    33A     -0.489534
      34A     -0.440410    35A     -0.429011    36A     -0.381996
      37A     -0.271649

  @DF-RHF Final Energy:  -474.58190206869563

   => Energetics <=

    Nuclear Repulsion Energy =            532.0297104182416206
    One-Electron Energy =               -1701.4664890450519579
    Two-Electron Energy =                 694.8548765581147109
    Total Energy =                       -474.5819020686956264
  Basis Set: (AUG-CC-PVTZ AUX)
    Blend: AUG-CC-PVTZ-RI
    Molecular point group: c1

    Geometry (in Angstrom), charge = 0, multiplicity = 1:

       Center              X                  Y                   Z               Mass
    ------------   -----------------  -----------------  -----------------  -----------------
         O           -1.508055309816     1.056274146926     0.094067019351    15.994914619570
         O            1.477597690184    -1.706414853074     0.047330019351    15.994914619570
         N            0.721939690184     0.447590146926    -0.077590980649    14.003074004430
         C           -0.615152309816     0.027871146926    -0.049146980649    12.000000000000
         C            0.957382690184     1.891029146926    -0.104692980649    12.000000000000
         C            1.728363690184    -0.499927853074     0.020595019351    12.000000000000
         C           -1.269558309816    -1.176629853074    -0.122357980649    12.000000000000
         C           -2.660029309816    -0.863465853074    -0.019014980649    12.000000000000
         C            3.155265690184     0.007248146926     0.082344019351    12.000000000000
         C           -2.578615409816     0.571990346926     0.105622219351    12.000000000000
         H            0.327616690184     2.344533146926    -0.870898980649     1.007825032230
         H            1.997920690184     2.083866146926    -0.349844980649     1.007825032230
         H            0.718979690184     2.349826146926     0.859341019351     1.007825032230
         H           -0.808137309816    -2.142758853074    -0.231262980649     1.007825032230
         H           -3.483474309816    -1.564567853074    -0.039011980649     1.007825032230
         H            3.311140690184     0.703793146926     0.910379019351     1.007825032230
         H            3.448334690184     0.505921146926    -0.846207980649     1.007825032230
         H            3.788494690184    -0.867781853074     0.225106019351     1.007825032230
         H           -3.579732309816     1.185114146926     0.208150019351     1.007825032230

  Basis Set: AUG-CC-PVTZ
    Blend: AUG-CC-PVTZ
  Basis Set: (AUG-CC-PVTZ AUX)
    Blend: AUG-CC-PVTZ-JKFIT
	 Reference Energy          =    -474.5819020686956264 [Eh]
	 Singles Energy            =      -0.0000000000000000 [Eh]
	 Same-Spin Energy          =      -0.4936754420826902 [Eh]
	 Opposite-Spin Energy      =      -1.5277914747662922 [Eh]
	 Correlation Energy        =      -2.0214669168489823 [Eh]
	 Total Energy              =    -476.6033689855445914 [Eh]

	 ================> DF-SCS-MP2 Energies <==================
	-----------------------------------------------------------
	 SCS Same-Spin Scale       =       0.3333333333333333 [-]
	 SCS Opposite-Spin Scale   =       1.2000000000000000 [-]
	 SCS Same-Spin Energy      =      -0.1645584806942300 [Eh]
	 SCS Opposite-Spin Energy  =      -1.8333497697195504 [Eh]
	 SCS Correlation Energy    =      -1.9979082504137804 [Eh]
	 SCS Total Energy          =    -476.5798103191094128 [Eh]
	-----------------------------------------------------------

  Dipole Moment: [D]
     X:     0.8326      Y:     3.5817      Z:    -0.1247     Total:     3.6794

*** Psi4 exiting successfully. Buy a developer a beer!
