                               Psi4 1.3.2 release

  ==> Input File <==

--------------------------------------------------------------------------
#psi4
#
memory 32 gb

molecule  {
0 1
  O       -1.5316190     1.0321650     0.0948010
  O        1.4540340    -1.7305240     0.0480640
  N        0.6983760     0.4234810    -0.0768570
  C       -0.6525616     0.0506854    -0.0489455
  C        0.9338190     1.8669200    -0.1039590
  C        1.7048000    -0.5240370     0.0213290
  C       -1.2931220    -1.2007390    -0.1216240
  C       -2.6835930    -0.8875750    -0.0182810
  C        3.1317020    -0.0168610     0.0830780
  C       -2.7843930     0.4654540     0.1083230
  H        0.3040530     2.3204240    -0.8701650
  H        1.9743570     2.0597570    -0.3491110
  H        0.6954160     2.3257170     0.8600750
  H       -0.8317010    -2.1668680    -0.2305290
  H       -3.5070380    -1.5886770    -0.0382780
  H        3.2875770     0.6796840     0.9111130
  H        3.4247710     0.4818120    -0.8454740
  H        3.7649310    -0.8918910     0.2258400
  H       -3.6032960     1.1610050     0.2088840
units angstrom
no_reorient  #important for SAPT in psi4, default
symmetry c1  #important for SAPT in psi4, default
}

set PROPERTIES_ORIGIN ["COM"]
properties('MP2/aug-cc-pvtz', properties = ['dipole'])
--------------------------------------------------------------------------

    Molecular point group: c1
  Charge       = 0
  Multiplicity = 1
  Basis Set: AUG-CC-PVTZ
    Blend: AUG-CC-PVTZ
  Basis Set: (AUG-CC-PVTZ AUX)
    Blend: AUG-CC-PVTZ-JKFIT

    Orbital Energies [Eh]
    ---------------------

    Doubly Occupied:

       1A    -20.632225     2A    -20.528610     3A    -15.617673
       4A    -11.366556     5A    -11.335899     6A    -11.279003
       7A    -11.277956     8A    -11.247481     9A    -11.230225
      10A    -11.215471    11A     -1.481280    12A     -1.384812
      13A     -1.263851    14A     -1.077079    15A     -1.033272
      16A     -0.990878    17A     -0.955759    18A     -0.836296
      19A     -0.798763    20A     -0.755245    21A     -0.703107
      22A     -0.681729    23A     -0.676545    24A     -0.652620
      25A     -0.628482    26A     -0.594042    27A     -0.592021
      28A     -0.589420    29A     -0.569931    30A     -0.559112
      31A     -0.553193    32A     -0.534643    33A     -0.526479
      34A     -0.433578    35A     -0.430789    36A     -0.391618
      37A     -0.282674

  @DF-RHF Final Energy:  -474.63208024732097

   => Energetics <=

    Nuclear Repulsion Energy =            528.1814940940715815
    One-Electron Energy =               -1694.2105085385655912
    Two-Electron Energy =                 691.3969341971728682
    Total Energy =                       -474.6320802473210279
  Basis Set: (AUG-CC-PVTZ AUX)
    Blend: AUG-CC-PVTZ-RI
    Molecular point group: c1

    Geometry (in Angstrom), charge = 0, multiplicity = 1:

       Center              X                  Y                   Z               Mass
    ------------   -----------------  -----------------  -----------------  -----------------
         O           -1.491137017806     1.059337827369     0.093943251279    15.994914619570
         O            1.494515982194    -1.703351172631     0.047206251279    15.994914619570
         N            0.738857982194     0.450653827369    -0.077714748721    14.003074004430
         C           -0.612079617806     0.077858227369    -0.049803248721    12.000000000000
         C            0.974300982194     1.894092827369    -0.104816748721    12.000000000000
         C            1.745281982194    -0.496864172631     0.020471251279    12.000000000000
         C           -1.252640017806    -1.173566172631    -0.122481748721    12.000000000000
         C           -2.643111017806    -0.860402172631    -0.019138748721    12.000000000000
         C            3.172183982194     0.010311827369     0.082220251279    12.000000000000
         C           -2.743911017806     0.492626827369     0.107465251279    12.000000000000
         H            0.344534982194     2.347596827369    -0.871022748721     1.007825032230
         H            2.014838982194     2.086929827369    -0.349968748721     1.007825032230
         H            0.735897982194     2.352889827369     0.859217251279     1.007825032230
         H           -0.791219017806    -2.139695172631    -0.231386748721     1.007825032230
         H           -3.466556017806    -1.561504172631    -0.039135748721     1.007825032230
         H            3.328058982194     0.706856827369     0.910255251279     1.007825032230
         H            3.465252982194     0.508984827369    -0.846331748721     1.007825032230
         H            3.805412982194    -0.864718172631     0.224982251279     1.007825032230
         H           -3.562814017806     1.188177827369     0.208026251279     1.007825032230

  Basis Set: AUG-CC-PVTZ
    Blend: AUG-CC-PVTZ
  Basis Set: (AUG-CC-PVTZ AUX)
    Blend: AUG-CC-PVTZ-JKFIT
	 Reference Energy          =    -474.6320802473209710 [Eh]
	 Singles Energy            =      -0.0000000000000000 [Eh]
	 Same-Spin Energy          =      -0.4922462458218896 [Eh]
	 Opposite-Spin Energy      =      -1.5278586961411627 [Eh]
	 Correlation Energy        =      -2.0201049419630523 [Eh]
	 Total Energy              =    -476.6521851892840118 [Eh]

	 ================> DF-SCS-MP2 Energies <==================
	-----------------------------------------------------------
	 SCS Same-Spin Scale       =       0.3333333333333333 [-]
	 SCS Opposite-Spin Scale   =       1.2000000000000000 [-]
	 SCS Same-Spin Energy      =      -0.1640820819406298 [Eh]
	 SCS Opposite-Spin Energy  =      -1.8334304353693951 [Eh]
	 SCS Correlation Energy    =      -1.9975125173100250 [Eh]
	 SCS Total Energy          =    -476.6295927646310133 [Eh]
	-----------------------------------------------------------

  Dipole Moment: [D]
     X:     0.6059      Y:     3.3653      Z:    -0.1160     Total:     3.4214

*** Psi4 exiting successfully. Buy a developer a beer!
