                               Psi4 1.3.2 release

  ==> Input File <==

--------------------------------------------------------------------------
#psi4
#
memory 32 gb

molecule  {
0 1
  O       -1.5316190     1.0321650     0.0948010
  O        1.4540340    -1.7305240     0.0480640
  N        0.7240799     0.3295533    -0.0862991
  C       -0.6387160     0.0037620    -0.0484130
  C        0.9338190     1.8669200    -0.1039590
  C        1.7048000    -0.5240370     0.0213290
  C       -1.2931220    -1.2007390    -0.1216240
  C       -2.6835930    -0.8875750    -0.0182810
  C        3.1317020    -0.0168610     0.0830780
  C       -2.7843930     0.4654540     0.1083230
  H        0.3040530     2.3204240    -0.8701650
  H        1.9743570     2.0597570    -0.3491110
  H        0.6954160     2.3257170     0.8600750
  H       -0.8317010    -2.1668680    -0.2305290
  H       -3.5070380    -1.5886770    -0.0382780
  H        3.2875770     0.6796840     0.9111130
  H        3.4247710     0.4818120    -0.8454740
  H        3.7649310    -0.8918910     0.2258400
  H       -3.6032960     1.1610050     0.2088840
units angstrom
no_reorient  #important for SAPT in psi4, default
symmetry c1  #important for SAPT in psi4, default
}

set PROPERTIES_ORIGIN ["COM"]
properties('MP2/aug-cc-pvtz', properties = ['dipole'])
--------------------------------------------------------------------------

    Molecular point group: c1
  Charge       = 0
  Multiplicity = 1
  Basis Set: AUG-CC-PVTZ
    Blend: AUG-CC-PVTZ
  Basis Set: (AUG-CC-PVTZ AUX)
    Blend: AUG-CC-PVTZ-JKFIT

    Orbital Energies [Eh]
    ---------------------

    Doubly Occupied:

       1A    -20.629990     2A    -20.510111     3A    -15.620151
       4A    -11.350107     5A    -11.333771     6A    -11.288825
       7A    -11.283921     8A    -11.243489     9A    -11.230799
      10A    -11.216377    11A     -1.464825    12A     -1.384853
      13A     -1.258303    14A     -1.081817    15A     -1.033034
      16A     -0.983142    17A     -0.968230    18A     -0.843830
      19A     -0.801981    20A     -0.752460    21A     -0.691998
      22A     -0.677118    23A     -0.672089    24A     -0.651906
      25A     -0.624833    26A     -0.598392    27A     -0.590331
      28A     -0.579129    29A     -0.565744    30A     -0.560704
      31A     -0.550876    32A     -0.535827    33A     -0.529044
      34A     -0.430247    35A     -0.422920    36A     -0.393362
      37A     -0.291415

  @DF-RHF Final Energy:  -474.62460491511814

   => Energetics <=

    Nuclear Repulsion Energy =            528.5166478253116793
    One-Electron Energy =               -1694.9906047149377173
    Two-Electron Energy =                 691.8493519745079539
    Total Energy =                       -474.6246049151181978
  Basis Set: (AUG-CC-PVTZ AUX)
    Blend: AUG-CC-PVTZ-RI
    Molecular point group: c1

    Geometry (in Angstrom), charge = 0, multiplicity = 1:

       Center              X                  Y                   Z               Mass
    ------------   -----------------  -----------------  -----------------  -----------------
         O           -1.494920048311     1.072845035589     0.094848079507    15.994914619570
         O            1.490732951689    -1.689843964411     0.048111079507    15.994914619570
         N            0.760778851689     0.370233335589    -0.086252020493    14.003074004430
         C           -0.602017048311     0.044442035589    -0.048365920493    12.000000000000
         C            0.970517951689     1.907600035589    -0.103911920493    12.000000000000
         C            1.741498951689    -0.483356964411     0.021376079507    12.000000000000
         C           -1.256423048311    -1.160058964411    -0.121576920493    12.000000000000
         C           -2.646894048311    -0.846894964411    -0.018233920493    12.000000000000
         C            3.168400951689     0.023819035589     0.083125079507    12.000000000000
         C           -2.747694048311     0.506134035589     0.108370079507    12.000000000000
         H            0.340751951689     2.361104035589    -0.870117920493     1.007825032230
         H            2.011055951689     2.100437035589    -0.349063920493     1.007825032230
         H            0.732114951689     2.366397035589     0.860122079507     1.007825032230
         H           -0.795002048311    -2.126187964411    -0.230481920493     1.007825032230
         H           -3.470339048311    -1.547996964411    -0.038230920493     1.007825032230
         H            3.324275951689     0.720364035589     0.911160079507     1.007825032230
         H            3.461469951689     0.522492035589    -0.845426920493     1.007825032230
         H            3.801629951689    -0.851210964411     0.225887079507     1.007825032230
         H           -3.566597048311     1.201685035589     0.208931079507     1.007825032230

  Basis Set: AUG-CC-PVTZ
    Blend: AUG-CC-PVTZ
  Basis Set: (AUG-CC-PVTZ AUX)
    Blend: AUG-CC-PVTZ-JKFIT
	 Reference Energy          =    -474.6246049151181410 [Eh]
	 Singles Energy            =      -0.0000000000000000 [Eh]
	 Same-Spin Energy          =      -0.4915364939307214 [Eh]
	 Opposite-Spin Energy      =      -1.5277883815930520 [Eh]
	 Correlation Energy        =      -2.0193248755237732 [Eh]
	 Total Energy              =    -476.6439297906418915 [Eh]

	 ================> DF-SCS-MP2 Energies <==================
	-----------------------------------------------------------
	 SCS Same-Spin Scale       =       0.3333333333333333 [-]
	 SCS Opposite-Spin Scale   =       1.2000000000000000 [-]
	 SCS Same-Spin Energy      =      -0.1638454979769071 [Eh]
	 SCS Opposite-Spin Energy  =      -1.8333460579116623 [Eh]
	 SCS Correlation Energy    =      -1.9971915558885693 [Eh]
	 SCS Total Energy          =    -476.6217964710066894 [Eh]
	-----------------------------------------------------------

  Dipole Moment: [D]
     X:     0.2742      Y:     3.6967      Z:    -0.1321     Total:     3.7092

*** Psi4 exiting successfully. Buy a developer a beer!
