                               Psi4 1.3.2 release

  ==> Input File <==

--------------------------------------------------------------------------
#psi4
#
memory 32 gb

molecule  {
0 1
  O       -1.4572067     1.0921468     0.0961215
  O        1.4540340    -1.7305240     0.0480640
  N        0.6983760     0.4234810    -0.0768570
  C       -0.6387160     0.0037620    -0.0484130
  C        0.9338190     1.8669200    -0.1039590
  C        1.7048000    -0.5240370     0.0213290
  C       -1.2931220    -1.2007390    -0.1216240
  C       -2.6835930    -0.8875750    -0.0182810
  C        3.1317020    -0.0168610     0.0830780
  C       -2.7843930     0.4654540     0.1083230
  H        0.3040530     2.3204240    -0.8701650
  H        1.9743570     2.0597570    -0.3491110
  H        0.6954160     2.3257170     0.8600750
  H       -0.8317010    -2.1668680    -0.2305290
  H       -3.5070380    -1.5886770    -0.0382780
  H        3.2875770     0.6796840     0.9111130
  H        3.4247710     0.4818120    -0.8454740
  H        3.7649310    -0.8918910     0.2258400
  H       -3.6032960     1.1610050     0.2088840
units angstrom
no_reorient  #important for SAPT in psi4, default
symmetry c1  #important for SAPT in psi4, default
}

set PROPERTIES_ORIGIN ["COM"]
properties('MP2/aug-cc-pvtz', properties = ['dipole'])
--------------------------------------------------------------------------

    Molecular point group: c1
  Charge       = 0
  Multiplicity = 1
  Basis Set: AUG-CC-PVTZ
    Blend: AUG-CC-PVTZ
  Basis Set: (AUG-CC-PVTZ AUX)
    Blend: AUG-CC-PVTZ-JKFIT

    Orbital Energies [Eh]
    ---------------------

    Doubly Occupied:

       1A    -20.622524     2A    -20.528012     3A    -15.614809
       4A    -11.364291     5A    -11.336277     6A    -11.286312
       7A    -11.276298     8A    -11.245667     9A    -11.240484
      10A    -11.216000    11A     -1.439562    12A     -1.383029
      13A     -1.257948    14A     -1.088035    15A     -1.028278
      16A     -0.986408    17A     -0.947951    18A     -0.836577
      19A     -0.790389    20A     -0.746906    21A     -0.699573
      22A     -0.678159    23A     -0.669620    24A     -0.637452
      25A     -0.612863    26A     -0.591689    27A     -0.588410
      28A     -0.586608    29A     -0.566401    30A     -0.562383
      31A     -0.549428    32A     -0.544372    33A     -0.525383
      34A     -0.432258    35A     -0.429624    36A     -0.401492
      37A     -0.288599

  @DF-RHF Final Energy:  -474.62316943505471

   => Energetics <=

    Nuclear Repulsion Energy =            527.0069883696684201
    One-Electron Energy =               -1692.0601739558890131
    Two-Electron Energy =                 690.4300161511657734
    Total Energy =                       -474.6231694350547059
  Basis Set: (AUG-CC-PVTZ AUX)
    Blend: AUG-CC-PVTZ-RI
    Molecular point group: c1

    Geometry (in Angstrom), charge = 0, multiplicity = 1:

       Center              X                  Y                   Z               Mass
    ------------   -----------------  -----------------  -----------------  -----------------
         O           -1.426478299857     1.116469681421     0.095065918500    15.994914619570
         O            1.484762400143    -1.706201118579     0.047008418500    15.994914619570
         N            0.729104400143     0.447803881421    -0.077912581500    14.003074004430
         C           -0.607987599857     0.028084881421    -0.049468581500    12.000000000000
         C            0.964547400143     1.891242881421    -0.105014581500    12.000000000000
         C            1.735528400143    -0.499714118579     0.020273418500    12.000000000000
         C           -1.262393599857    -1.176416118579    -0.122679581500    12.000000000000
         C           -2.652864599857    -0.863252118579    -0.019336581500    12.000000000000
         C            3.162430400143     0.007461881421     0.082022418500    12.000000000000
         C           -2.753664599857     0.489776881421     0.107267418500    12.000000000000
         H            0.334781400143     2.344746881421    -0.871220581500     1.007825032230
         H            2.005085400143     2.084079881421    -0.350166581500     1.007825032230
         H            0.726144400143     2.350039881421     0.859019418500     1.007825032230
         H           -0.800972599857    -2.142545118579    -0.231584581500     1.007825032230
         H           -3.476309599857    -1.564354118579    -0.039333581500     1.007825032230
         H            3.318305400143     0.704006881421     0.910057418500     1.007825032230
         H            3.455499400143     0.506134881421    -0.846529581500     1.007825032230
         H            3.795659400143    -0.867568118579     0.224784418500     1.007825032230
         H           -3.572567599857     1.185327881421     0.207828418500     1.007825032230

  Basis Set: AUG-CC-PVTZ
    Blend: AUG-CC-PVTZ
  Basis Set: (AUG-CC-PVTZ AUX)
    Blend: AUG-CC-PVTZ-JKFIT
	 Reference Energy          =    -474.6231694350547059 [Eh]
	 Singles Energy            =      -0.0000000000000000 [Eh]
	 Same-Spin Energy          =      -0.4922262264140591 [Eh]
	 Opposite-Spin Energy      =      -1.5310310376369980 [Eh]
	 Correlation Energy        =      -2.0232572640510571 [Eh]
	 Total Energy              =    -476.6464266991057457 [Eh]

	 ================> DF-SCS-MP2 Energies <==================
	-----------------------------------------------------------
	 SCS Same-Spin Scale       =       0.3333333333333333 [-]
	 SCS Opposite-Spin Scale   =       1.2000000000000000 [-]
	 SCS Same-Spin Energy      =      -0.1640754088046864 [Eh]
	 SCS Opposite-Spin Energy  =      -1.8372372451643975 [Eh]
	 SCS Correlation Energy    =      -2.0013126539690838 [Eh]
	 SCS Total Energy          =    -476.6244820890237861 [Eh]
	-----------------------------------------------------------

  Dipole Moment: [D]
     X:     0.4195      Y:     3.0482      Z:    -0.1436     Total:     3.0802

*** Psi4 exiting successfully. Buy a developer a beer!
