                               Psi4 1.3.2 release

  ==> Input File <==

--------------------------------------------------------------------------
#psi4
#
memory 32 gb

molecule  {
0 1
  O       -1.5316190     1.0321650     0.0948010
  O        1.4540340    -1.7305240     0.0480640
  N        0.6983760     0.4234810    -0.0768570
  C       -0.5686361     0.0687240    -0.0460676
  C        0.9338190     1.8669200    -0.1039590
  C        1.7048000    -0.5240370     0.0213290
  C       -1.2931220    -1.2007390    -0.1216240
  C       -2.6835930    -0.8875750    -0.0182810
  C        3.1317020    -0.0168610     0.0830780
  C       -2.7843930     0.4654540     0.1083230
  H        0.3040530     2.3204240    -0.8701650
  H        1.9743570     2.0597570    -0.3491110
  H        0.6954160     2.3257170     0.8600750
  H       -0.8317010    -2.1668680    -0.2305290
  H       -3.5070380    -1.5886770    -0.0382780
  H        3.2875770     0.6796840     0.9111130
  H        3.4247710     0.4818120    -0.8454740
  H        3.7649310    -0.8918910     0.2258400
  H       -3.6032960     1.1610050     0.2088840
units angstrom
no_reorient  #important for SAPT in psi4, default
symmetry c1  #important for SAPT in psi4, default
}

set PROPERTIES_ORIGIN ["COM"]
properties('MP2/aug-cc-pvtz', properties = ['dipole'])
--------------------------------------------------------------------------

    Molecular point group: c1
  Charge       = 0
  Multiplicity = 1
  Basis Set: AUG-CC-PVTZ
    Blend: AUG-CC-PVTZ
  Basis Set: (AUG-CC-PVTZ AUX)
    Blend: AUG-CC-PVTZ-JKFIT

    Orbital Energies [Eh]
    ---------------------

    Doubly Occupied:

       1A    -20.623386     2A    -20.536403     3A    -15.625125
       4A    -11.372670     5A    -11.339009     6A    -11.285217
       7A    -11.273522     8A    -11.251902     9A    -11.225691
      10A    -11.216632    11A     -1.458856    12A     -1.393989
      13A     -1.290132    14A     -1.062704    15A     -1.041033
      16A     -0.994293    17A     -0.956784    18A     -0.852600
      19A     -0.790160    20A     -0.743889    21A     -0.708077
      22A     -0.687354    23A     -0.682047    24A     -0.655954
      25A     -0.621232    26A     -0.598906    27A     -0.597147
      28A     -0.593752    29A     -0.572301    30A     -0.552050
      31A     -0.546326    32A     -0.535241    33A     -0.523012
      34A     -0.446137    35A     -0.438951    36A     -0.384180
      37A     -0.267771

  @DF-RHF Final Energy:  -474.61677603818771

   => Energetics <=

    Nuclear Repulsion Energy =            528.2913160970584840
    One-Electron Energy =               -1694.3273116170246340
    Two-Electron Energy =                 691.4192194817783275
    Total Energy =                       -474.6167760381877088
  Basis Set: (AUG-CC-PVTZ AUX)
    Blend: AUG-CC-PVTZ-RI
    Molecular point group: c1

    Geometry (in Angstrom), charge = 0, multiplicity = 1:

       Center              X                  Y                   Z               Mass
    ------------   -----------------  -----------------  -----------------  -----------------
         O           -1.498379085220     1.057781247340     0.093694912624    15.994914619570
         O            1.487273914780    -1.704907752660     0.046957912624    15.994914619570
         N            0.731615914780     0.449097247340    -0.077963087376    14.003074004430
         C           -0.535396185220     0.094340247340    -0.047173687376    12.000000000000
         C            0.967058914780     1.892536247340    -0.105065087376    12.000000000000
         C            1.738039914780    -0.498420752660     0.020222912624    12.000000000000
         C           -1.259882085220    -1.175122752660    -0.122730087376    12.000000000000
         C           -2.650353085220    -0.861958752660    -0.019387087376    12.000000000000
         C            3.164941914780     0.008755247340     0.081971912624    12.000000000000
         C           -2.751153085220     0.491070247340     0.107216912624    12.000000000000
         H            0.337292914780     2.346040247340    -0.871271087376     1.007825032230
         H            2.007596914780     2.085373247340    -0.350217087376     1.007825032230
         H            0.728655914780     2.351333247340     0.858968912624     1.007825032230
         H           -0.798461085220    -2.141251752660    -0.231635087376     1.007825032230
         H           -3.473798085220    -1.563060752660    -0.039384087376     1.007825032230
         H            3.320816914780     0.705300247340     0.910006912624     1.007825032230
         H            3.458010914780     0.507428247340    -0.846580087376     1.007825032230
         H            3.798170914780    -0.866274752660     0.224733912624     1.007825032230
         H           -3.570056085220     1.186621247340     0.207777912624     1.007825032230

  Basis Set: AUG-CC-PVTZ
    Blend: AUG-CC-PVTZ
  Basis Set: (AUG-CC-PVTZ AUX)
    Blend: AUG-CC-PVTZ-JKFIT
	 Reference Energy          =    -474.6167760381877088 [Eh]
	 Singles Energy            =      -0.0000000000000000 [Eh]
	 Same-Spin Energy          =      -0.4942536785238557 [Eh]
	 Opposite-Spin Energy      =      -1.5308733905549188 [Eh]
	 Correlation Energy        =      -2.0251270690787746 [Eh]
	 Total Energy              =    -476.6419031072665007 [Eh]

	 ================> DF-SCS-MP2 Energies <==================
	-----------------------------------------------------------
	 SCS Same-Spin Scale       =       0.3333333333333333 [-]
	 SCS Opposite-Spin Scale   =       1.2000000000000000 [-]
	 SCS Same-Spin Energy      =      -0.1647512261746186 [Eh]
	 SCS Opposite-Spin Energy  =      -1.8370480686659025 [Eh]
	 SCS Correlation Energy    =      -2.0017992948405210 [Eh]
	 SCS Total Energy          =    -476.6185753330282182 [Eh]
	-----------------------------------------------------------

  Dipole Moment: [D]
     X:     1.0758      Y:     3.4758      Z:    -0.1188     Total:     3.6404

*** Psi4 exiting successfully. Buy a developer a beer!
