                               Psi4 1.3.2 release

  ==> Input File <==

--------------------------------------------------------------------------
#psi4
#
memory 32 gb

molecule  {
0 1
  O       -1.5316190     1.0321650     0.0948010
  O        1.4540340    -1.7305240     0.0480640
  N        0.6983760     0.4234810    -0.0768570
  C       -0.6387160     0.0037620    -0.0484130
  C        0.9338190     1.8669200    -0.1039590
  C        1.7048000    -0.5240370     0.0213290
  C       -1.3051657    -1.2489964    -0.1253971
  C       -2.6835930    -0.8875750    -0.0182810
  C        3.1317020    -0.0168610     0.0830780
  C       -2.7843930     0.4654540     0.1083230
  H        0.3040530     2.3204240    -0.8701650
  H        1.9743570     2.0597570    -0.3491110
  H        0.6954160     2.3257170     0.8600750
  H       -0.8317010    -2.1668680    -0.2305290
  H       -3.5070380    -1.5886770    -0.0382780
  H        3.2875770     0.6796840     0.9111130
  H        3.4247710     0.4818120    -0.8454740
  H        3.7649310    -0.8918910     0.2258400
  H       -3.6032960     1.1610050     0.2088840
units angstrom
no_reorient  #important for SAPT in psi4, default
symmetry c1  #important for SAPT in psi4, default
}

set PROPERTIES_ORIGIN ["COM"]
properties('MP2/aug-cc-pvtz', properties = ['dipole'])
--------------------------------------------------------------------------

    Molecular point group: c1
  Charge       = 0
  Multiplicity = 1
  Basis Set: AUG-CC-PVTZ
    Blend: AUG-CC-PVTZ
  Basis Set: (AUG-CC-PVTZ AUX)
    Blend: AUG-CC-PVTZ-JKFIT

    Orbital Energies [Eh]
    ---------------------

    Doubly Occupied:

       1A    -20.628401     2A    -20.529683     3A    -15.619200
       4A    -11.366462     5A    -11.340272     6A    -11.279936
       7A    -11.278770     8A    -11.247491     9A    -11.230326
      10A    -11.218899    11A     -1.462671    12A     -1.385898
      13A     -1.263954    14A     -1.075964    15A     -1.031969
      16A     -0.989399    17A     -0.954619    18A     -0.837328
      19A     -0.793375    20A     -0.754210    21A     -0.703146
      22A     -0.680625    23A     -0.673213    24A     -0.650293
      25A     -0.622951    26A     -0.593621    27A     -0.590531
      28A     -0.589408    29A     -0.572826    30A     -0.565357
      31A     -0.550463    32A     -0.536563    33A     -0.527468
      34A     -0.435064    35A     -0.432211    36A     -0.391538
      37A     -0.282057

  @DF-RHF Final Energy:  -474.62853605220005

   => Energetics <=

    Nuclear Repulsion Energy =            526.9892662309118805
    One-Electron Energy =               -1691.8632792889773100
    Two-Electron Energy =                 690.2454770058653821
    Total Energy =                       -474.6285360522000474
  Basis Set: (AUG-CC-PVTZ AUX)
    Blend: AUG-CC-PVTZ-RI
    Molecular point group: c1

    Geometry (in Angstrom), charge = 0, multiplicity = 1:

       Center              X                  Y                   Z               Mass
    ------------   -----------------  -----------------  -----------------  -----------------
         O           -1.491292506677     1.067551132862     0.094222887905    15.994914619570
         O            1.494360493323    -1.695137867138     0.047485887905    15.994914619570
         N            0.738702493323     0.458867132862    -0.077435112095    14.003074004430
         C           -0.598389506677     0.039148132862    -0.048991112095    12.000000000000
         C            0.974145493323     1.902306132862    -0.104537112095    12.000000000000
         C            1.745126493323    -0.488650867138     0.020750887905    12.000000000000
         C           -1.264839206677    -1.213610267138    -0.125975212095    12.000000000000
         C           -2.643266506677    -0.852188867138    -0.018859112095    12.000000000000
         C            3.172028493323     0.018525132862     0.082499887905    12.000000000000
         C           -2.744066506677     0.500840132862     0.107744887905    12.000000000000
         H            0.344379493323     2.355810132862    -0.870743112095     1.007825032230
         H            2.014683493323     2.095143132862    -0.349689112095     1.007825032230
         H            0.735742493323     2.361103132862     0.859496887905     1.007825032230
         H           -0.791374506677    -2.131481867138    -0.231107112095     1.007825032230
         H           -3.466711506677    -1.553290867138    -0.038856112095     1.007825032230
         H            3.327903493323     0.715070132862     0.910534887905     1.007825032230
         H            3.465097493323     0.517198132862    -0.846052112095     1.007825032230
         H            3.805257493323    -0.856504867138     0.225261887905     1.007825032230
         H           -3.562969506677     1.196391132862     0.208305887905     1.007825032230

  Basis Set: AUG-CC-PVTZ
    Blend: AUG-CC-PVTZ
  Basis Set: (AUG-CC-PVTZ AUX)
    Blend: AUG-CC-PVTZ-JKFIT
	 Reference Energy          =    -474.6285360522000474 [Eh]
	 Singles Energy            =      -0.0000000000000000 [Eh]
	 Same-Spin Energy          =      -0.4926330379000416 [Eh]
	 Opposite-Spin Energy      =      -1.5295567202076248 [Eh]
	 Correlation Energy        =      -2.0221897581076664 [Eh]
	 Total Energy              =    -476.6507258103077334 [Eh]

	 ================> DF-SCS-MP2 Energies <==================
	-----------------------------------------------------------
	 SCS Same-Spin Scale       =       0.3333333333333333 [-]
	 SCS Opposite-Spin Scale   =       1.2000000000000000 [-]
	 SCS Same-Spin Energy      =      -0.1642110126333472 [Eh]
	 SCS Opposite-Spin Energy  =      -1.8354680642491497 [Eh]
	 SCS Correlation Energy    =      -1.9996790768824968 [Eh]
	 SCS Total Energy          =    -476.6282151290825482 [Eh]
	-----------------------------------------------------------

  Dipole Moment: [D]
     X:     0.6715      Y:     3.3253      Z:    -0.1281     Total:     3.3949

*** Psi4 exiting successfully. Buy a developer a beer!
