                               Psi4 1.3.2 release

  ==> Input File <==

--------------------------------------------------------------------------
#psi4
#
memory 32 gb

molecule  {
0 1
  O       -1.6016812     0.9671729     0.0927828
  O        1.4540340    -1.7305240     0.0480640
  N        0.6983760     0.4234810    -0.0768570
  C       -0.6387160     0.0037620    -0.0484130
  C        0.9338190     1.8669200    -0.1039590
  C        1.7048000    -0.5240370     0.0213290
  C       -1.2931220    -1.2007390    -0.1216240
  C       -2.6835930    -0.8875750    -0.0182810
  C        3.1317020    -0.0168610     0.0830780
  C       -2.7843930     0.4654540     0.1083230
  H        0.3040530     2.3204240    -0.8701650
  H        1.9743570     2.0597570    -0.3491110
  H        0.6954160     2.3257170     0.8600750
  H       -0.8317010    -2.1668680    -0.2305290
  H       -3.5070380    -1.5886770    -0.0382780
  H        3.2875770     0.6796840     0.9111130
  H        3.4247710     0.4818120    -0.8454740
  H        3.7649310    -0.8918910     0.2258400
  H       -3.6032960     1.1610050     0.2088840
units angstrom
no_reorient  #important for SAPT in psi4, default
symmetry c1  #important for SAPT in psi4, default
}

set PROPERTIES_ORIGIN ["COM"]
properties('MP2/aug-cc-pvtz', properties = ['dipole'])
--------------------------------------------------------------------------

    Molecular point group: c1
  Charge       = 0
  Multiplicity = 1
  Basis Set: AUG-CC-PVTZ
    Blend: AUG-CC-PVTZ
  Basis Set: (AUG-CC-PVTZ AUX)
    Blend: AUG-CC-PVTZ-JKFIT

    Orbital Energies [Eh]
    ---------------------

    Doubly Occupied:

       1A    -20.626354     2A    -20.528657     3A    -15.619669
       4A    -11.366532     5A    -11.328609     6A    -11.281505
       7A    -11.275636     8A    -11.247706     9A    -11.217393
      10A    -11.215082    11A     -1.493087    12A     -1.386026
      13A     -1.266333    14A     -1.073885    15A     -1.036547
      16A     -0.996525    17A     -0.962041    18A     -0.835220
      19A     -0.803969    20A     -0.751887    21A     -0.708151
      22A     -0.682821    23A     -0.677766    24A     -0.662829
      25A     -0.635177    26A     -0.595339    27A     -0.591376
      28A     -0.588338    29A     -0.565834    30A     -0.562588
      31A     -0.548364    32A     -0.531072    33A     -0.527447
      34A     -0.437526    35A     -0.432260    36A     -0.382186
      37A     -0.286127

  @DF-RHF Final Energy:  -474.62941374675376

   => Energetics <=

    Nuclear Repulsion Energy =            529.2729712218437044
    One-Electron Energy =               -1696.3490504544461146
    Two-Electron Energy =                 692.4466654858485981
    Total Energy =                       -474.6294137467536984
  Basis Set: (AUG-CC-PVTZ AUX)
    Blend: AUG-CC-PVTZ-RI
    Molecular point group: c1

    Geometry (in Angstrom), charge = 0, multiplicity = 1:

       Center              X                  Y                   Z               Mass
    ------------   -----------------  -----------------  -----------------  -----------------
         O           -1.554335498110     1.005870145110     0.092111232187    15.994914619570
         O            1.501379701890    -1.691826754890     0.047392432187    15.994914619570
         N            0.745721701890     0.462178245110    -0.077528567813    14.003074004430
         C           -0.591370298110     0.042459245110    -0.049084567813    12.000000000000
         C            0.981164701890     1.905617245110    -0.104630567813    12.000000000000
         C            1.752145701890    -0.485339754890     0.020657432187    12.000000000000
         C           -1.245776298110    -1.162041754890    -0.122295567813    12.000000000000
         C           -2.636247298110    -0.848877754890    -0.018952567813    12.000000000000
         C            3.179047701890     0.021836245110     0.082406432187    12.000000000000
         C           -2.737047298110     0.504151245110     0.107651432187    12.000000000000
         H            0.351398701890     2.359121245110    -0.870836567813     1.007825032230
         H            2.021702701890     2.098454245110    -0.349782567813     1.007825032230
         H            0.742761701890     2.364414245110     0.859403432187     1.007825032230
         H           -0.784355298110    -2.128170754890    -0.231200567813     1.007825032230
         H           -3.459692298110    -1.549979754890    -0.038949567813     1.007825032230
         H            3.334922701890     0.718381245110     0.910441432187     1.007825032230
         H            3.472116701890     0.520509245110    -0.846145567813     1.007825032230
         H            3.812276701890    -0.853193754890     0.225168432187     1.007825032230
         H           -3.555950298110     1.199702245110     0.208212432187     1.007825032230

  Basis Set: AUG-CC-PVTZ
    Blend: AUG-CC-PVTZ
  Basis Set: (AUG-CC-PVTZ AUX)
    Blend: AUG-CC-PVTZ-JKFIT
	 Reference Energy          =    -474.6294137467537553 [Eh]
	 Singles Energy            =      -0.0000000000000000 [Eh]
	 Same-Spin Energy          =      -0.4919253486729381 [Eh]
	 Opposite-Spin Energy      =      -1.5259296196701717 [Eh]
	 Correlation Energy        =      -2.0178549683431100 [Eh]
	 Total Energy              =    -476.6472687150968568 [Eh]

	 ================> DF-SCS-MP2 Energies <==================
	-----------------------------------------------------------
	 SCS Same-Spin Scale       =       0.3333333333333333 [-]
	 SCS Opposite-Spin Scale   =       1.2000000000000000 [-]
	 SCS Same-Spin Energy      =      -0.1639751162243127 [Eh]
	 SCS Opposite-Spin Energy  =      -1.8311155436042059 [Eh]
	 SCS Correlation Energy    =      -1.9950906598285187 [Eh]
	 SCS Total Energy          =    -476.6245044065822754 [Eh]
	-----------------------------------------------------------

  Dipole Moment: [D]
     X:     0.8388      Y:     3.5639      Z:    -0.1130     Total:     3.6630

*** Psi4 exiting successfully. Buy a developer a beer!
