                               Psi4 1.3.2 release

  ==> Input File <==

--------------------------------------------------------------------------
#psi4
#
memory 32 gb

molecule  {
0 1
  O       -1.5316190     1.0321650     0.0948010
  O        1.4540340    -1.7305240     0.0480640
  N        0.6983760     0.4234810    -0.0768570
  C       -0.5735145    -0.0713340    -0.0588708
  C        0.9338190     1.8669200    -0.1039590
  C        1.7048000    -0.5240370     0.0213290
  C       -1.2931220    -1.2007390    -0.1216240
  C       -2.6835930    -0.8875750    -0.0182810
  C        3.1317020    -0.0168610     0.0830780
  C       -2.7843930     0.4654540     0.1083230
  H        0.3040530     2.3204240    -0.8701650
  H        1.9743570     2.0597570    -0.3491110
  H        0.6954160     2.3257170     0.8600750
  H       -0.8317010    -2.1668680    -0.2305290
  H       -3.5070380    -1.5886770    -0.0382780
  H        3.2875770     0.6796840     0.9111130
  H        3.4247710     0.4818120    -0.8454740
  H        3.7649310    -0.8918910     0.2258400
  H       -3.6032960     1.1610050     0.2088840
units angstrom
no_reorient  #important for SAPT in psi4, default
symmetry c1  #important for SAPT in psi4, default
}

set PROPERTIES_ORIGIN ["COM"]
properties('MP2/aug-cc-pvtz', properties = ['dipole'])
--------------------------------------------------------------------------

    Molecular point group: c1
  Charge       = 0
  Multiplicity = 1
  Basis Set: AUG-CC-PVTZ
    Blend: AUG-CC-PVTZ
  Basis Set: (AUG-CC-PVTZ AUX)
    Blend: AUG-CC-PVTZ-JKFIT

    Orbital Energies [Eh]
    ---------------------

    Doubly Occupied:

       1A    -20.607260     2A    -20.532200     3A    -15.620933
       4A    -11.367215     5A    -11.330319     6A    -11.282310
       7A    -11.282196     8A    -11.247877     9A    -11.225397
      10A    -11.216545    11A     -1.425543    12A     -1.388626
      13A     -1.271999    14A     -1.079881    15A     -1.032901
      16A     -0.992253    17A     -0.955871    18A     -0.841857
      19A     -0.788307    20A     -0.738878    21A     -0.704764
      22A     -0.682543    23A     -0.671232    24A     -0.645215
      25A     -0.609693    26A     -0.592359    27A     -0.590341
      28A     -0.587858    29A     -0.570891    30A     -0.556304
      31A     -0.549405    32A     -0.532013    33A     -0.529039
      34A     -0.443291    35A     -0.435011    36A     -0.389375
      37A     -0.288707

  @DF-RHF Final Energy:  -474.62229387218991

   => Energetics <=

    Nuclear Repulsion Energy =            527.7239920672564040
    One-Electron Energy =               -1693.4797612582249258
    Two-Electron Energy =                 691.1334753187786646
    Total Energy =                       -474.6222938721898572
  Basis Set: (AUG-CC-PVTZ AUX)
    Blend: AUG-CC-PVTZ-RI
    Molecular point group: c1

    Geometry (in Angstrom), charge = 0, multiplicity = 1:

       Center              X                  Y                   Z               Mass
    ------------   -----------------  -----------------  -----------------  -----------------
         O           -1.497958120177     1.069867079153     0.094799721502    15.994914619570
         O            1.487694879823    -1.692821920847     0.048062721502    15.994914619570
         N            0.732036879823     0.461183079153    -0.076858278498    14.003074004430
         C           -0.539853620177    -0.033631920847    -0.058872078498    12.000000000000
         C            0.967479879823     1.904622079153    -0.103960278498    12.000000000000
         C            1.738460879823    -0.486334920847     0.021327721502    12.000000000000
         C           -1.259461120177    -1.163036920847    -0.121625278498    12.000000000000
         C           -2.649932120177    -0.849872920847    -0.018282278498    12.000000000000
         C            3.165362879823     0.020841079153     0.083076721502    12.000000000000
         C           -2.750732120177     0.503156079153     0.108321721502    12.000000000000
         H            0.337713879823     2.358126079153    -0.870166278498     1.007825032230
         H            2.008017879823     2.097459079153    -0.349112278498     1.007825032230
         H            0.729076879823     2.363419079153     0.860073721502     1.007825032230
         H           -0.798040120177    -2.129165920847    -0.230530278498     1.007825032230
         H           -3.473377120177    -1.550974920847    -0.038279278498     1.007825032230
         H            3.321237879823     0.717386079153     0.911111721502     1.007825032230
         H            3.458431879823     0.519514079153    -0.845475278498     1.007825032230
         H            3.798591879823    -0.854188920847     0.225838721502     1.007825032230
         H           -3.569635120177     1.198707079153     0.208882721502     1.007825032230

  Basis Set: AUG-CC-PVTZ
    Blend: AUG-CC-PVTZ
  Basis Set: (AUG-CC-PVTZ AUX)
    Blend: AUG-CC-PVTZ-JKFIT
	 Reference Energy          =    -474.6222938721899141 [Eh]
	 Singles Energy            =      -0.0000000000000000 [Eh]
	 Same-Spin Energy          =      -0.4923654578464213 [Eh]
	 Opposite-Spin Energy      =      -1.5304402160074075 [Eh]
	 Correlation Energy        =      -2.0228056738538287 [Eh]
	 Total Energy              =    -476.6450995460437525 [Eh]

	 ================> DF-SCS-MP2 Energies <==================
	-----------------------------------------------------------
	 SCS Same-Spin Scale       =       0.3333333333333333 [-]
	 SCS Opposite-Spin Scale   =       1.2000000000000000 [-]
	 SCS Same-Spin Energy      =      -0.1641218192821404 [Eh]
	 SCS Opposite-Spin Energy  =      -1.8365282592088890 [Eh]
	 SCS Correlation Energy    =      -2.0006500784910295 [Eh]
	 SCS Total Energy          =    -476.6229439506809626 [Eh]
	-----------------------------------------------------------

  Dipole Moment: [D]
     X:     0.9397      Y:     3.2032      Z:    -0.1579     Total:     3.3419

*** Psi4 exiting successfully. Buy a developer a beer!
