                               Psi4 1.3.2 release

  ==> Input File <==

--------------------------------------------------------------------------
#psi4
#
memory 32 gb

molecule  {
0 1
  O       -1.5316190     1.0321650     0.0948010
  O        1.4540340    -1.7305240     0.0480640
  N        0.6983760     0.4234810    -0.0768570
  C       -0.7682021     0.0647820    -0.0359180
  C        0.9338190     1.8669200    -0.1039590
  C        1.7048000    -0.5240370     0.0213290
  C       -1.2931220    -1.2007390    -0.1216240
  C       -2.6835930    -0.8875750    -0.0182810
  C        3.1317020    -0.0168610     0.0830780
  C       -2.7843930     0.4654540     0.1083230
  H        0.3040530     2.3204240    -0.8701650
  H        1.9743570     2.0597570    -0.3491110
  H        0.6954160     2.3257170     0.8600750
  H       -0.8317010    -2.1668680    -0.2305290
  H       -3.5070380    -1.5886770    -0.0382780
  H        3.2875770     0.6796840     0.9111130
  H        3.4247710     0.4818120    -0.8454740
  H        3.7649310    -0.8918910     0.2258400
  H       -3.6032960     1.1610050     0.2088840
units angstrom
no_reorient  #important for SAPT in psi4, default
symmetry c1  #important for SAPT in psi4, default
}

set PROPERTIES_ORIGIN ["COM"]
properties('MP2/aug-cc-pvtz', properties = ['dipole'])
--------------------------------------------------------------------------

    Molecular point group: c1
  Charge       = 0
  Multiplicity = 1
  Basis Set: AUG-CC-PVTZ
    Blend: AUG-CC-PVTZ
  Basis Set: (AUG-CC-PVTZ AUX)
    Blend: AUG-CC-PVTZ-JKFIT

    Orbital Energies [Eh]
    ---------------------

    Doubly Occupied:

       1A    -20.649021     2A    -20.519970     3A    -15.607459
       4A    -11.359868     5A    -11.338793     6A    -11.280446
       7A    -11.272319     8A    -11.242716     9A    -11.237381
      10A    -11.213755    11A     -1.533244    12A     -1.374925
      13A     -1.237545    14A     -1.096902    15A     -1.027750
      16A     -0.992024    17A     -0.949686    18A     -0.833729
      19A     -0.797813    20A     -0.774610    21A     -0.699213
      22A     -0.694161    23A     -0.672304    24A     -0.650146
      25A     -0.634444    26A     -0.597402    27A     -0.591639
      28A     -0.588951    29A     -0.577914    30A     -0.557414
      31A     -0.553706    32A     -0.523568    33A     -0.517922
      34A     -0.424706    35A     -0.415242    36A     -0.400947
      37A     -0.294860

  @DF-RHF Final Energy:  -474.61318413263393

   => Energetics <=

    Nuclear Repulsion Energy =            528.5156102253838526
    One-Electron Energy =               -1694.7885990196025432
    Two-Electron Energy =                 691.6598046615847579
    Total Energy =                       -474.6131841326339327
  Basis Set: (AUG-CC-PVTZ AUX)
    Blend: AUG-CC-PVTZ-RI
    Molecular point group: c1

    Geometry (in Angstrom), charge = 0, multiplicity = 1:

       Center              X                  Y                   Z               Mass
    ------------   -----------------  -----------------  -----------------  -----------------
         O           -1.481158211642     1.058121408909     0.092819087191    15.994914619570
         O            1.504494788358    -1.704567591091     0.046082087191    15.994914619570
         N            0.748836788358     0.449437408909    -0.078838912809    14.003074004430
         C           -0.717741311642     0.090738408909    -0.037899912809    12.000000000000
         C            0.984279788358     1.892876408909    -0.105940912809    12.000000000000
         C            1.755260788358    -0.498080591091     0.019347087191    12.000000000000
         C           -1.242661211642    -1.174782591091    -0.123605912809    12.000000000000
         C           -2.633132211642    -0.861618591091    -0.020262912809    12.000000000000
         C            3.182162788358     0.009095408909     0.081096087191    12.000000000000
         C           -2.733932211642     0.491410408909     0.106341087191    12.000000000000
         H            0.354513788358     2.346380408909    -0.872146912809     1.007825032230
         H            2.024817788358     2.085713408909    -0.351092912809     1.007825032230
         H            0.745876788358     2.351673408909     0.858093087191     1.007825032230
         H           -0.781240211642    -2.140911591091    -0.232510912809     1.007825032230
         H           -3.456577211642    -1.562720591091    -0.040259912809     1.007825032230
         H            3.338037788358     0.705640408909     0.909131087191     1.007825032230
         H            3.475231788358     0.507768408909    -0.847455912809     1.007825032230
         H            3.815391788358    -0.865934591091     0.223858087191     1.007825032230
         H           -3.552835211642     1.186961408909     0.206902087191     1.007825032230

  Basis Set: AUG-CC-PVTZ
    Blend: AUG-CC-PVTZ
  Basis Set: (AUG-CC-PVTZ AUX)
    Blend: AUG-CC-PVTZ-JKFIT
	 Reference Energy          =    -474.6131841326339327 [Eh]
	 Singles Energy            =      -0.0000000000000000 [Eh]
	 Same-Spin Energy          =      -0.4911477977175065 [Eh]
	 Opposite-Spin Energy      =      -1.5257440024931803 [Eh]
	 Correlation Energy        =      -2.0168918002106868 [Eh]
	 Total Energy              =    -476.6300759328446475 [Eh]

	 ================> DF-SCS-MP2 Energies <==================
	-----------------------------------------------------------
	 SCS Same-Spin Scale       =       0.3333333333333333 [-]
	 SCS Opposite-Spin Scale   =       1.2000000000000000 [-]
	 SCS Same-Spin Energy      =      -0.1637159325725022 [Eh]
	 SCS Opposite-Spin Energy  =      -1.8308928029918163 [Eh]
	 SCS Correlation Energy    =      -1.9946087355643185 [Eh]
	 SCS Total Energy          =    -476.6077928681982598 [Eh]
	-----------------------------------------------------------

  Dipole Moment: [D]
     X:    -0.0138      Y:     3.3150      Z:    -0.0983     Total:     3.3165

*** Psi4 exiting successfully. Buy a developer a beer!
