                               Psi4 1.3.2 release

  ==> Input File <==

--------------------------------------------------------------------------
#psi4
#
memory 32 gb

molecule  {
0 1
  O       -1.5316190     1.0321650     0.0948010
  O        1.4540340    -1.7305240     0.0480640
  N        0.6983760     0.4234810    -0.0768570
  C       -0.6311733    -0.0194007    -0.0461568
  C        0.9338190     1.8669200    -0.1039590
  C        1.7048000    -0.5240370     0.0213290
  C       -1.2931220    -1.2007390    -0.1216240
  C       -2.6835930    -0.8875750    -0.0182810
  C        3.1317020    -0.0168610     0.0830780
  C       -2.7843930     0.4654540     0.1083230
  H        0.3040530     2.3204240    -0.8701650
  H        1.9743570     2.0597570    -0.3491110
  H        0.6954160     2.3257170     0.8600750
  H       -0.8317010    -2.1668680    -0.2305290
  H       -3.5070380    -1.5886770    -0.0382780
  H        3.2875770     0.6796840     0.9111130
  H        3.4247710     0.4818120    -0.8454740
  H        3.7649310    -0.8918910     0.2258400
  H       -3.6032960     1.1610050     0.2088840
units angstrom
no_reorient  #important for SAPT in psi4, default
symmetry c1  #important for SAPT in psi4, default
}

set PROPERTIES_ORIGIN ["COM"]
properties('MP2/aug-cc-pvtz', properties = ['dipole'])
--------------------------------------------------------------------------

    Molecular point group: c1
  Charge       = 0
  Multiplicity = 1
  Basis Set: AUG-CC-PVTZ
    Blend: AUG-CC-PVTZ
  Basis Set: (AUG-CC-PVTZ AUX)
    Blend: AUG-CC-PVTZ-JKFIT

    Orbital Energies [Eh]
    ---------------------

    Doubly Occupied:

       1A    -20.621150     2A    -20.528547     3A    -15.617410
       4A    -11.365212     5A    -11.331038     6A    -11.281555
       7A    -11.279168     8A    -11.246534     9A    -11.228812
      10A    -11.215387    11A     -1.453327    12A     -1.385058
      13A     -1.262225    14A     -1.082051    15A     -1.031347
      16A     -0.990639    17A     -0.954797    18A     -0.835929
      19A     -0.793603    20A     -0.748620    21A     -0.702772
      22A     -0.679537    23A     -0.671209    24A     -0.647324
      25A     -0.619927    26A     -0.592449    27A     -0.588905
      28A     -0.588081    29A     -0.566682    30A     -0.562491
      31A     -0.548634    32A     -0.542346    33A     -0.527347
      34A     -0.435562    35A     -0.431579    36A     -0.391988
      37A     -0.289806

  @DF-RHF Final Energy:  -474.63355034416338

   => Energetics <=

    Nuclear Repulsion Energy =            527.9036133391398380
    One-Electron Energy =               -1693.7962318512736601
    Two-Electron Energy =                 691.2590681679704403
    Total Energy =                       -474.6335503441633819
  Basis Set: (AUG-CC-PVTZ AUX)
    Blend: AUG-CC-PVTZ-RI
    Molecular point group: c1

    Geometry (in Angstrom), charge = 0, multiplicity = 1:

       Center              X                  Y                   Z               Mass
    ------------   -----------------  -----------------  -----------------  -----------------
         O           -1.492982648877     1.065385670527     0.093702609837    15.994914619570
         O            1.492670351123    -1.697303329473     0.046965609837    15.994914619570
         N            0.737012351123     0.456701670527    -0.077955390163    14.003074004430
         C           -0.592536948877     0.013819970527    -0.047255190163    12.000000000000
         C            0.972455351123     1.900140670527    -0.105057390163    12.000000000000
         C            1.743436351123    -0.490816329473     0.020230609837    12.000000000000
         C           -1.254485648877    -1.167518329473    -0.122722390163    12.000000000000
         C           -2.644956648877    -0.854354329473    -0.019379390163    12.000000000000
         C            3.170338351123     0.016359670527     0.081979609837    12.000000000000
         C           -2.745756648877     0.498674670527     0.107224609837    12.000000000000
         H            0.342689351123     2.353644670527    -0.871263390163     1.007825032230
         H            2.012993351123     2.092977670527    -0.350209390163     1.007825032230
         H            0.734052351123     2.358937670527     0.858976609837     1.007825032230
         H           -0.793064648877    -2.133647329473    -0.231627390163     1.007825032230
         H           -3.468401648877    -1.555456329473    -0.039376390163     1.007825032230
         H            3.326213351123     0.712904670527     0.910014609837     1.007825032230
         H            3.463407351123     0.515032670527    -0.846572390163     1.007825032230
         H            3.803567351123    -0.858670329473     0.224741609837     1.007825032230
         H           -3.564659648877     1.194225670527     0.207785609837     1.007825032230

  Basis Set: AUG-CC-PVTZ
    Blend: AUG-CC-PVTZ
  Basis Set: (AUG-CC-PVTZ AUX)
    Blend: AUG-CC-PVTZ-JKFIT
	 Reference Energy          =    -474.6335503441633819 [Eh]
	 Singles Energy            =      -0.0000000000000000 [Eh]
	 Same-Spin Energy          =      -0.4917192001009283 [Eh]
	 Opposite-Spin Energy      =      -1.5283964861116899 [Eh]
	 Correlation Energy        =      -2.0201156862126184 [Eh]
	 Total Energy              =    -476.6536660303759732 [Eh]

	 ================> DF-SCS-MP2 Energies <==================
	-----------------------------------------------------------
	 SCS Same-Spin Scale       =       0.3333333333333333 [-]
	 SCS Opposite-Spin Scale   =       1.2000000000000000 [-]
	 SCS Same-Spin Energy      =      -0.1639064000336428 [Eh]
	 SCS Opposite-Spin Energy  =      -1.8340757833340278 [Eh]
	 SCS Correlation Energy    =      -1.9979821833676705 [Eh]
	 SCS Total Energy          =    -476.6315325275310784 [Eh]
	-----------------------------------------------------------

  Dipole Moment: [D]
     X:     0.6532      Y:     3.2461      Z:    -0.1372     Total:     3.3140

*** Psi4 exiting successfully. Buy a developer a beer!
