                               Psi4 1.3.2 release

  ==> Input File <==

--------------------------------------------------------------------------
#psi4
#
memory 32 gb

molecule  {
0 1
  O       -1.6350187     0.9329749     0.0906665
  O        1.4540340    -1.7305240     0.0480640
  N        0.6983760     0.4234810    -0.0768570
  C       -0.6387160     0.0037620    -0.0484130
  C        0.9338190     1.8669200    -0.1039590
  C        1.7048000    -0.5240370     0.0213290
  C       -1.2931220    -1.2007390    -0.1216240
  C       -2.6835930    -0.8875750    -0.0182810
  C        3.1317020    -0.0168610     0.0830780
  C       -2.7843930     0.4654540     0.1083230
  H        0.3040530     2.3204240    -0.8701650
  H        1.9743570     2.0597570    -0.3491110
  H        0.6954160     2.3257170     0.8600750
  H       -0.8317010    -2.1668680    -0.2305290
  H       -3.5070380    -1.5886770    -0.0382780
  H        3.2875770     0.6796840     0.9111130
  H        3.4247710     0.4818120    -0.8454740
  H        3.7649310    -0.8918910     0.2258400
  H       -3.6032960     1.1610050     0.2088840
units angstrom
no_reorient  #important for SAPT in psi4, default
symmetry c1  #important for SAPT in psi4, default
}

set PROPERTIES_ORIGIN ["COM"]
properties('MP2/aug-cc-pvtz', properties = ['dipole'])
--------------------------------------------------------------------------

    Molecular point group: c1
  Charge       = 0
  Multiplicity = 1
  Basis Set: AUG-CC-PVTZ
    Blend: AUG-CC-PVTZ
  Basis Set: (AUG-CC-PVTZ AUX)
    Blend: AUG-CC-PVTZ-JKFIT

    Orbital Energies [Eh]
    ---------------------

    Doubly Occupied:

       1A    -20.626938     2A    -20.528636     3A    -15.620705
       4A    -11.366903     5A    -11.326708     6A    -11.282646
       7A    -11.273709     8A    -11.248089     9A    -11.215150
      10A    -11.210939    11A     -1.511824    12A     -1.386363
      13A     -1.267827    14A     -1.072348    15A     -1.038862
      16A     -0.999884    17A     -0.965194    18A     -0.834646
      19A     -0.809356    20A     -0.752154    21A     -0.712022
      22A     -0.686759    23A     -0.680241    24A     -0.668560
      25A     -0.641340    26A     -0.596299    27A     -0.591848
      28A     -0.588625    29A     -0.565991    30A     -0.562361
      31A     -0.546008    32A     -0.529963    33A     -0.521942
      34A     -0.439041    35A     -0.432500    36A     -0.377619
      37A     -0.285101

  @DF-RHF Final Energy:  -474.61865877708391

   => Energetics <=

    Nuclear Repulsion Energy =            530.0293385006743847
    One-Electron Energy =               -1697.7657954887379219
    Two-Electron Energy =                 693.1177982109795721
    Total Energy =                       -474.6186587770839651
  Basis Set: (AUG-CC-PVTZ AUX)
    Blend: AUG-CC-PVTZ-RI
    Molecular point group: c1

    Geometry (in Angstrom), charge = 0, multiplicity = 1:

       Center              X                  Y                   Z               Mass
    ------------   -----------------  -----------------  -----------------  -----------------
         O           -1.583838554682     0.975605562323     0.090238346739    15.994914619570
         O            1.505214145318    -1.687893337677     0.047635846739    15.994914619570
         N            0.749556145318     0.466111662323    -0.077285153261    14.003074004430
         C           -0.587535854682     0.046392662323    -0.048841153261    12.000000000000
         C            0.984999145318     1.909550662323    -0.104387153261    12.000000000000
         C            1.755980145318    -0.481406337677     0.020900846739    12.000000000000
         C           -1.241941854682    -1.158108337677    -0.122052153261    12.000000000000
         C           -2.632412854682    -0.844944337677    -0.018709153261    12.000000000000
         C            3.182882145318     0.025769662323     0.082649846739    12.000000000000
         C           -2.733212854682     0.508084662323     0.107894846739    12.000000000000
         H            0.355233145318     2.363054662323    -0.870593153261     1.007825032230
         H            2.025537145318     2.102387662323    -0.349539153261     1.007825032230
         H            0.746596145318     2.368347662323     0.859646846739     1.007825032230
         H           -0.780520854682    -2.124237337677    -0.230957153261     1.007825032230
         H           -3.455857854682    -1.546046337677    -0.038706153261     1.007825032230
         H            3.338757145318     0.722314662323     0.910684846739     1.007825032230
         H            3.475951145318     0.524442662323    -0.845902153261     1.007825032230
         H            3.816111145318    -0.849260337677     0.225411846739     1.007825032230
         H           -3.552115854682     1.203635662323     0.208455846739     1.007825032230

  Basis Set: AUG-CC-PVTZ
    Blend: AUG-CC-PVTZ
  Basis Set: (AUG-CC-PVTZ AUX)
    Blend: AUG-CC-PVTZ-JKFIT
	 Reference Energy          =    -474.6186587770839083 [Eh]
	 Singles Energy            =      -0.0000000000000000 [Eh]
	 Same-Spin Energy          =      -0.4920749173582943 [Eh]
	 Opposite-Spin Energy      =      -1.5250186050756427 [Eh]
	 Correlation Energy        =      -2.0170935224339370 [Eh]
	 Total Energy              =    -476.6357522995178329 [Eh]

	 ================> DF-SCS-MP2 Energies <==================
	-----------------------------------------------------------
	 SCS Same-Spin Scale       =       0.3333333333333333 [-]
	 SCS Opposite-Spin Scale   =       1.2000000000000000 [-]
	 SCS Same-Spin Energy      =      -0.1640249724527648 [Eh]
	 SCS Opposite-Spin Energy  =      -1.8300223260907711 [Eh]
	 SCS Correlation Energy    =      -1.9940472985435358 [Eh]
	 SCS Total Energy          =    -476.6127060756274432 [Eh]
	-----------------------------------------------------------

  Dipole Moment: [D]
     X:     0.9386      Y:     3.7205      Z:    -0.1021     Total:     3.8384

*** Psi4 exiting successfully. Buy a developer a beer!
