                               Psi4 1.3.2 release

  ==> Input File <==

--------------------------------------------------------------------------
#psi4
#
memory 32 gb

molecule  {
0 1
  O       -1.5316190     1.0321650     0.0948010
  O        1.4540340    -1.7305240     0.0480640
  N        0.6830721     0.4697063    -0.0720811
  C       -0.6387160     0.0037620    -0.0484130
  C        0.9338190     1.8669200    -0.1039590
  C        1.7048000    -0.5240370     0.0213290
  C       -1.2931220    -1.2007390    -0.1216240
  C       -2.6835930    -0.8875750    -0.0182810
  C        3.1317020    -0.0168610     0.0830780
  C       -2.7843930     0.4654540     0.1083230
  H        0.3040530     2.3204240    -0.8701650
  H        1.9743570     2.0597570    -0.3491110
  H        0.6954160     2.3257170     0.8600750
  H       -0.8317010    -2.1668680    -0.2305290
  H       -3.5070380    -1.5886770    -0.0382780
  H        3.2875770     0.6796840     0.9111130
  H        3.4247710     0.4818120    -0.8454740
  H        3.7649310    -0.8918910     0.2258400
  H       -3.6032960     1.1610050     0.2088840
units angstrom
no_reorient  #important for SAPT in psi4, default
symmetry c1  #important for SAPT in psi4, default
}

set PROPERTIES_ORIGIN ["COM"]
properties('MP2/aug-cc-pvtz', properties = ['dipole'])
--------------------------------------------------------------------------

    Molecular point group: c1
  Charge       = 0
  Multiplicity = 1
  Basis Set: AUG-CC-PVTZ
    Blend: AUG-CC-PVTZ
  Basis Set: (AUG-CC-PVTZ AUX)
    Blend: AUG-CC-PVTZ-JKFIT

    Orbital Energies [Eh]
    ---------------------

    Doubly Occupied:

       1A    -20.622320     2A    -20.537251     3A    -15.615309
       4A    -11.372747     5A    -11.332322     6A    -11.278920
       7A    -11.273893     8A    -11.248612     9A    -11.228686
      10A    -11.215321    11A     -1.461015    12A     -1.386738
      13A     -1.265450    14A     -1.079581    15A     -1.031949
      16A     -0.994886    17A     -0.947829    18A     -0.833058
      19A     -0.791188    20A     -0.750281    21A     -0.708138
      22A     -0.682207    23A     -0.673637    24A     -0.647632
      25A     -0.622085    26A     -0.595431    27A     -0.594230
      28A     -0.585243    29A     -0.566801    30A     -0.563419
      31A     -0.550520    32A     -0.541554    33A     -0.524669
      34A     -0.436073    35A     -0.433196    36A     -0.391084
      37A     -0.285641

  @DF-RHF Final Energy:  -474.62987234131566

   => Energetics <=

    Nuclear Repulsion Energy =            527.7963099982615631
    One-Electron Energy =               -1693.5145306584620357
    Two-Electron Energy =                 691.0883483188849823
    Total Energy =                       -474.6298723413156040
  Basis Set: (AUG-CC-PVTZ AUX)
    Blend: AUG-CC-PVTZ-RI
    Molecular point group: c1

    Geometry (in Angstrom), charge = 0, multiplicity = 1:

       Center              X                  Y                   Z               Mass
    ------------   -----------------  -----------------  -----------------  -----------------
         O           -1.490790740719     1.058732236394     0.093416388577    15.994914619570
         O            1.494862259281    -1.703956763606     0.046679388577    15.994914619570
         N            0.723900359281     0.496273536394    -0.073465711423    14.003074004430
         C           -0.597887740719     0.030329236394    -0.049797611423    12.000000000000
         C            0.974647259281     1.893487236394    -0.105343611423    12.000000000000
         C            1.745628259281    -0.497469763606     0.019944388577    12.000000000000
         C           -1.252293740719    -1.174171763606    -0.123008611423    12.000000000000
         C           -2.642764740719    -0.861007763606    -0.019665611423    12.000000000000
         C            3.172530259281     0.009706236394     0.081693388577    12.000000000000
         C           -2.743564740719     0.492021236394     0.106938388577    12.000000000000
         H            0.344881259281     2.346991236394    -0.871549611423     1.007825032230
         H            2.015185259281     2.086324236394    -0.350495611423     1.007825032230
         H            0.736244259281     2.352284236394     0.858690388577     1.007825032230
         H           -0.790872740719    -2.140300763606    -0.231913611423     1.007825032230
         H           -3.466209740719    -1.562109763606    -0.039662611423     1.007825032230
         H            3.328405259281     0.706251236394     0.909728388577     1.007825032230
         H            3.465599259281     0.508379236394    -0.846858611423     1.007825032230
         H            3.805759259281    -0.865323763606     0.224455388577     1.007825032230
         H           -3.562467740719     1.187572236394     0.207499388577     1.007825032230

  Basis Set: AUG-CC-PVTZ
    Blend: AUG-CC-PVTZ
  Basis Set: (AUG-CC-PVTZ AUX)
    Blend: AUG-CC-PVTZ-JKFIT
	 Reference Energy          =    -474.6298723413156608 [Eh]
	 Singles Energy            =      -0.0000000000000000 [Eh]
	 Same-Spin Energy          =      -0.4923682868610630 [Eh]
	 Opposite-Spin Energy      =      -1.5290417184922052 [Eh]
	 Correlation Energy        =      -2.0214100053532680 [Eh]
	 Total Energy              =    -476.6512823466689497 [Eh]

	 ================> DF-SCS-MP2 Energies <==================
	-----------------------------------------------------------
	 SCS Same-Spin Scale       =       0.3333333333333333 [-]
	 SCS Opposite-Spin Scale   =       1.2000000000000000 [-]
	 SCS Same-Spin Energy      =      -0.1641227622870210 [Eh]
	 SCS Opposite-Spin Energy  =      -1.8348500621906461 [Eh]
	 SCS Correlation Energy    =      -1.9989728244776670 [Eh]
	 SCS Total Energy          =    -476.6288451657933365 [Eh]
	-----------------------------------------------------------

  Dipole Moment: [D]
     X:     0.8200      Y:     3.0634      Z:    -0.1316     Total:     3.1740

*** Psi4 exiting successfully. Buy a developer a beer!
