                               Psi4 1.3.2 release

  ==> Input File <==

--------------------------------------------------------------------------
#psi4
#
memory 32 gb

molecule  {
0 1
  O       -1.5316190     1.0321650     0.0948010
  O        1.4540340    -1.7305240     0.0480640
  N        0.6983760     0.4234810    -0.0768570
  C       -0.6387160     0.0037620    -0.0484130
  C        0.9338190     1.8669200    -0.1039590
  C        1.7048000    -0.5240370     0.0213290
  C       -1.2827724    -1.1521001    -0.1177250
  C       -2.6835930    -0.8875750    -0.0182810
  C        3.1317020    -0.0168610     0.0830780
  C       -2.7843930     0.4654540     0.1083230
  H        0.3040530     2.3204240    -0.8701650
  H        1.9743570     2.0597570    -0.3491110
  H        0.6954160     2.3257170     0.8600750
  H       -0.8317010    -2.1668680    -0.2305290
  H       -3.5070380    -1.5886770    -0.0382780
  H        3.2875770     0.6796840     0.9111130
  H        3.4247710     0.4818120    -0.8454740
  H        3.7649310    -0.8918910     0.2258400
  H       -3.6032960     1.1610050     0.2088840
units angstrom
no_reorient  #important for SAPT in psi4, default
symmetry c1  #important for SAPT in psi4, default
}

set PROPERTIES_ORIGIN ["COM"]
properties('MP2/aug-cc-pvtz', properties = ['dipole'])
--------------------------------------------------------------------------

    Molecular point group: c1
  Charge       = 0
  Multiplicity = 1
  Basis Set: AUG-CC-PVTZ
    Blend: AUG-CC-PVTZ
  Basis Set: (AUG-CC-PVTZ AUX)
    Blend: AUG-CC-PVTZ-JKFIT

    Orbital Energies [Eh]
    ---------------------

    Doubly Occupied:

       1A    -20.621255     2A    -20.527337     3A    -15.615705
       4A    -11.364771     5A    -11.324289     6A    -11.282147
       7A    -11.278216     8A    -11.246158     9A    -11.228634
      10A    -11.212030    11A     -1.461939    12A     -1.383973
      13A     -1.261466    14A     -1.085050    15A     -1.032240
      16A     -0.992304    17A     -0.955343    18A     -0.835792
      19A     -0.797279    20A     -0.746408    21A     -0.702744
      22A     -0.679064    23A     -0.672748    24A     -0.648751
      25A     -0.622839    26A     -0.592532    27A     -0.590406
      28A     -0.587524    29A     -0.567882    30A     -0.557695
      31A     -0.548432    32A     -0.537266    33A     -0.526470
      34A     -0.435039    35A     -0.429863    36A     -0.392328
      37A     -0.293343

  @DF-RHF Final Energy:  -474.63286901705305

   => Energetics <=

    Nuclear Repulsion Energy =            529.0230292540531991
    One-Electron Energy =               -1696.0372748376933032
    Two-Electron Energy =                 692.3813765665870505
    Total Energy =                       -474.6328690170530535
  Basis Set: (AUG-CC-PVTZ AUX)
    Blend: AUG-CC-PVTZ-RI
    Molecular point group: c1

    Geometry (in Angstrom), charge = 0, multiplicity = 1:

       Center              X                  Y                   Z               Mass
    ------------   -----------------  -----------------  -----------------  -----------------
         O           -1.493224860827     1.059189794094     0.093560849962    15.994914619570
         O            1.492428139173    -1.703499205906     0.046823849962    15.994914619570
         N            0.736770139173     0.450505794094    -0.078097150038    14.003074004430
         C           -0.600321860827     0.030786794094    -0.049653150038    12.000000000000
         C            0.972213139173     1.893944794094    -0.105199150038    12.000000000000
         C            1.743194139173    -0.497012205906     0.020088849962    12.000000000000
         C           -1.244378260827    -1.125075305906    -0.118965150038    12.000000000000
         C           -2.645198860827    -0.860550205906    -0.019521150038    12.000000000000
         C            3.170096139173     0.010163794094     0.081837849962    12.000000000000
         C           -2.745998860827     0.492478794094     0.107082849962    12.000000000000
         H            0.342447139173     2.347448794094    -0.871405150038     1.007825032230
         H            2.012751139173     2.086781794094    -0.350351150038     1.007825032230
         H            0.733810139173     2.352741794094     0.858834849962     1.007825032230
         H           -0.793306860827    -2.139843205906    -0.231769150038     1.007825032230
         H           -3.468643860827    -1.561652205906    -0.039518150038     1.007825032230
         H            3.325971139173     0.706708794094     0.909872849962     1.007825032230
         H            3.463165139173     0.508836794094    -0.846714150038     1.007825032230
         H            3.803325139173    -0.864866205906     0.224599849962     1.007825032230
         H           -3.564901860827     1.188029794094     0.207643849962     1.007825032230

  Basis Set: AUG-CC-PVTZ
    Blend: AUG-CC-PVTZ
  Basis Set: (AUG-CC-PVTZ AUX)
    Blend: AUG-CC-PVTZ-JKFIT
	 Reference Energy          =    -474.6328690170530535 [Eh]
	 Singles Energy            =      -0.0000000000000000 [Eh]
	 Same-Spin Energy          =      -0.4912254284389705 [Eh]
	 Opposite-Spin Energy      =      -1.5270949570807104 [Eh]
	 Correlation Energy        =      -2.0183203855196812 [Eh]
	 Total Energy              =    -476.6511894025727543 [Eh]

	 ================> DF-SCS-MP2 Energies <==================
	-----------------------------------------------------------
	 SCS Same-Spin Scale       =       0.3333333333333333 [-]
	 SCS Opposite-Spin Scale   =       1.2000000000000000 [-]
	 SCS Same-Spin Energy      =      -0.1637418094796568 [Eh]
	 SCS Opposite-Spin Energy  =      -1.8325139484968525 [Eh]
	 SCS Correlation Energy    =      -1.9962557579765092 [Eh]
	 SCS Total Energy          =    -476.6291247750295383 [Eh]
	-----------------------------------------------------------

  Dipole Moment: [D]
     X:     0.5858      Y:     3.2429      Z:    -0.1325     Total:     3.2980

*** Psi4 exiting successfully. Buy a developer a beer!
