                               Psi4 1.3.2 release

  ==> Input File <==

--------------------------------------------------------------------------
#psi4
#
memory 32 gb

molecule  {
0 1
  O       -1.5134024     1.0476288     0.0953385
  O        1.4540340    -1.7305240     0.0480640
  N        0.6983760     0.4234810    -0.0768570
  C       -0.6387160     0.0037620    -0.0484130
  C        0.9338190     1.8669200    -0.1039590
  C        1.7048000    -0.5240370     0.0213290
  C       -1.2931220    -1.2007390    -0.1216240
  C       -2.6835930    -0.8875750    -0.0182810
  C        3.1317020    -0.0168610     0.0830780
  C       -2.7843930     0.4654540     0.1083230
  H        0.3040530     2.3204240    -0.8701650
  H        1.9743570     2.0597570    -0.3491110
  H        0.6954160     2.3257170     0.8600750
  H       -0.8317010    -2.1668680    -0.2305290
  H       -3.5070380    -1.5886770    -0.0382780
  H        3.2875770     0.6796840     0.9111130
  H        3.4247710     0.4818120    -0.8454740
  H        3.7649310    -0.8918910     0.2258400
  H       -3.6032960     1.1610050     0.2088840
units angstrom
no_reorient  #important for SAPT in psi4, default
symmetry c1  #important for SAPT in psi4, default
}

set PROPERTIES_ORIGIN ["COM"]
properties('MP2/aug-cc-pvtz', properties = ['dipole'])
--------------------------------------------------------------------------

    Molecular point group: c1
  Charge       = 0
  Multiplicity = 1
  Basis Set: AUG-CC-PVTZ
    Blend: AUG-CC-PVTZ
  Basis Set: (AUG-CC-PVTZ AUX)
    Blend: AUG-CC-PVTZ-JKFIT

    Orbital Energies [Eh]
    ---------------------

    Doubly Occupied:

       1A    -20.624352     2A    -20.528401     3A    -15.616777
       4A    -11.365288     5A    -11.333439     6A    -11.281854
       7A    -11.278387     8A    -11.246538     9A    -11.232195
      10A    -11.215615    11A     -1.455737    12A     -1.384525
      13A     -1.261584    14A     -1.082097    15A     -1.030977
      16A     -0.989438    17A     -0.953130    18A     -0.836266
      19A     -0.793397    20A     -0.750137    21A     -0.701908
      22A     -0.679351    23A     -0.671940    24A     -0.645754
      25A     -0.620023    26A     -0.592348    27A     -0.589433
      28A     -0.588594    29A     -0.566309    30A     -0.562734
      31A     -0.550134    32A     -0.542388    33A     -0.526667
      34A     -0.433965    35A     -0.431055    36A     -0.394275
      37A     -0.287857

  @DF-RHF Final Energy:  -474.63289731121813

   => Energetics <=

    Nuclear Repulsion Energy =            527.7154873762061698
    One-Electron Energy =               -1693.4070314417920144
    Two-Electron Energy =                 691.0586467543676008
    Total Energy =                       -474.6328973112181302
  Basis Set: (AUG-CC-PVTZ AUX)
    Blend: AUG-CC-PVTZ-RI
    Molecular point group: c1

    Geometry (in Angstrom), charge = 0, multiplicity = 1:

       Center              X                  Y                   Z               Mass
    ------------   -----------------  -----------------  -----------------  -----------------
         O           -1.476210430827     1.077072093945     0.094372978319    15.994914619570
         O            1.491225969173    -1.701080706055     0.047098478319    15.994914619570
         N            0.735567969173     0.452924293945    -0.077822521681    14.003074004430
         C           -0.601524030827     0.033205293945    -0.049378521681    12.000000000000
         C            0.971010969173     1.896363293945    -0.104924521681    12.000000000000
         C            1.741991969173    -0.494593706055     0.020363478319    12.000000000000
         C           -1.255930030827    -1.171295706055    -0.122589521681    12.000000000000
         C           -2.646401030827    -0.858131706055    -0.019246521681    12.000000000000
         C            3.168893969173     0.012582293945     0.082112478319    12.000000000000
         C           -2.747201030827     0.494897293945     0.107357478319    12.000000000000
         H            0.341244969173     2.349867293945    -0.871130521681     1.007825032230
         H            2.011548969173     2.089200293945    -0.350076521681     1.007825032230
         H            0.732607969173     2.355160293945     0.859109478319     1.007825032230
         H           -0.794509030827    -2.137424706055    -0.231494521681     1.007825032230
         H           -3.469846030827    -1.559233706055    -0.039243521681     1.007825032230
         H            3.324768969173     0.709127293945     0.910147478319     1.007825032230
         H            3.461962969173     0.511255293945    -0.846439521681     1.007825032230
         H            3.802122969173    -0.862447706055     0.224874478319     1.007825032230
         H           -3.566104030827     1.190448293945     0.207918478319     1.007825032230

  Basis Set: AUG-CC-PVTZ
    Blend: AUG-CC-PVTZ
  Basis Set: (AUG-CC-PVTZ AUX)
    Blend: AUG-CC-PVTZ-JKFIT
	 Reference Energy          =    -474.6328973112181302 [Eh]
	 Singles Energy            =      -0.0000000000000000 [Eh]
	 Same-Spin Energy          =      -0.4919155599518718 [Eh]
	 Opposite-Spin Energy      =      -1.5288334035443312 [Eh]
	 Correlation Energy        =      -2.0207489634962030 [Eh]
	 Total Energy              =    -476.6536462747143332 [Eh]

	 ================> DF-SCS-MP2 Energies <==================
	-----------------------------------------------------------
	 SCS Same-Spin Scale       =       0.3333333333333333 [-]
	 SCS Opposite-Spin Scale   =       1.2000000000000000 [-]
	 SCS Same-Spin Energy      =      -0.1639718533172906 [Eh]
	 SCS Opposite-Spin Energy  =      -1.8346000842531973 [Eh]
	 SCS Correlation Energy    =      -1.9985719375704880 [Eh]
	 SCS Total Energy          =    -476.6314692487886191 [Eh]
	-----------------------------------------------------------

  Dipole Moment: [D]
     X:     0.5808      Y:     3.2214      Z:    -0.1343     Total:     3.2761

*** Psi4 exiting successfully. Buy a developer a beer!
