                               Psi4 1.3.2 release

  ==> Input File <==

--------------------------------------------------------------------------
#psi4
#
memory 32 gb

molecule  {
0 1
  O       -1.5316190     1.0321650     0.0948010
  O        1.4540340    -1.7305240     0.0480640
  N        0.6983760     0.4234810    -0.0768570
  C       -0.5163997    -0.0704547    -0.0617101
  C        0.9338190     1.8669200    -0.1039590
  C        1.7048000    -0.5240370     0.0213290
  C       -1.2931220    -1.2007390    -0.1216240
  C       -2.6835930    -0.8875750    -0.0182810
  C        3.1317020    -0.0168610     0.0830780
  C       -2.7843930     0.4654540     0.1083230
  H        0.3040530     2.3204240    -0.8701650
  H        1.9743570     2.0597570    -0.3491110
  H        0.6954160     2.3257170     0.8600750
  H       -0.8317010    -2.1668680    -0.2305290
  H       -3.5070380    -1.5886770    -0.0382780
  H        3.2875770     0.6796840     0.9111130
  H        3.4247710     0.4818120    -0.8454740
  H        3.7649310    -0.8918910     0.2258400
  H       -3.6032960     1.1610050     0.2088840
units angstrom
no_reorient  #important for SAPT in psi4, default
symmetry c1  #important for SAPT in psi4, default
}

set PROPERTIES_ORIGIN ["COM"]
properties('MP2/aug-cc-pvtz', properties = ['dipole'])
--------------------------------------------------------------------------

    Molecular point group: c1
  Charge       = 0
  Multiplicity = 1
  Basis Set: AUG-CC-PVTZ
    Blend: AUG-CC-PVTZ
  Basis Set: (AUG-CC-PVTZ AUX)
    Blend: AUG-CC-PVTZ-JKFIT

    Orbital Energies [Eh]
    ---------------------

    Doubly Occupied:

       1A    -20.599592     2A    -20.537286     3A    -15.625423
       4A    -11.371132     5A    -11.333812     6A    -11.286540
       7A    -11.279593     8A    -11.250605     9A    -11.222440
      10A    -11.218752    11A     -1.417550    12A     -1.390755
      13A     -1.288384    14A     -1.070547    15A     -1.037728
      16A     -0.996066    17A     -0.955091    18A     -0.852494
      19A     -0.783213    20A     -0.732333    21A     -0.708414
      22A     -0.686613    23A     -0.677324    24A     -0.646647
      25A     -0.606967    26A     -0.596437    27A     -0.594488
      28A     -0.587119    29A     -0.572214    30A     -0.551562
      31A     -0.547738    32A     -0.536359    33A     -0.515413
      34A     -0.451374    35A     -0.439337    36A     -0.384501
      37A     -0.279554

  @DF-RHF Final Energy:  -474.60783132892414

   => Energetics <=

    Nuclear Repulsion Energy =            527.8146180541448302
    One-Electron Energy =               -1693.5821021118297267
    Two-Electron Energy =                 691.1596527287607614
    Total Energy =                       -474.6078313289241351
  Basis Set: (AUG-CC-PVTZ AUX)
    Blend: AUG-CC-PVTZ-RI
    Molecular point group: c1

    Geometry (in Angstrom), charge = 0, multiplicity = 1:

       Center              X                  Y                   Z               Mass
    ------------   -----------------  -----------------  -----------------  -----------------
         O           -1.502886648835     1.069791202931     0.095044729301    15.994914619570
         O            1.482766351165    -1.692897797069     0.048307729301    15.994914619570
         N            0.727108351165     0.461107202931    -0.076613270699    14.003074004430
         C           -0.487667348835    -0.032828497069    -0.061466370699    12.000000000000
         C            0.962551351165     1.904546202931    -0.103715270699    12.000000000000
         C            1.733532351165    -0.486410797069     0.021572729301    12.000000000000
         C           -1.264389648835    -1.163112797069    -0.121380270699    12.000000000000
         C           -2.654860648835    -0.849948797069    -0.018037270699    12.000000000000
         C            3.160434351165     0.020765202931     0.083321729301    12.000000000000
         C           -2.755660648835     0.503080202931     0.108566729301    12.000000000000
         H            0.332785351165     2.358050202931    -0.869921270699     1.007825032230
         H            2.003089351165     2.097383202931    -0.348867270699     1.007825032230
         H            0.724148351165     2.363343202931     0.860318729301     1.007825032230
         H           -0.802968648835    -2.129241797069    -0.230285270699     1.007825032230
         H           -3.478305648835    -1.551050797069    -0.038034270699     1.007825032230
         H            3.316309351165     0.717310202931     0.911356729301     1.007825032230
         H            3.453503351165     0.519438202931    -0.845230270699     1.007825032230
         H            3.793663351165    -0.854264797069     0.226083729301     1.007825032230
         H           -3.574563648835     1.198631202931     0.209127729301     1.007825032230

  Basis Set: AUG-CC-PVTZ
    Blend: AUG-CC-PVTZ
  Basis Set: (AUG-CC-PVTZ AUX)
    Blend: AUG-CC-PVTZ-JKFIT
	 Reference Energy          =    -474.6078313289241351 [Eh]
	 Singles Energy            =      -0.0000000000000000 [Eh]
	 Same-Spin Energy          =      -0.4939004141718654 [Eh]
	 Opposite-Spin Energy      =      -1.5328568064761237 [Eh]
	 Correlation Energy        =      -2.0267572206479891 [Eh]
	 Total Energy              =    -476.6345885495721291 [Eh]

	 ================> DF-SCS-MP2 Energies <==================
	-----------------------------------------------------------
	 SCS Same-Spin Scale       =       0.3333333333333333 [-]
	 SCS Opposite-Spin Scale   =       1.2000000000000000 [-]
	 SCS Same-Spin Energy      =      -0.1646334713906218 [Eh]
	 SCS Opposite-Spin Energy  =      -1.8394281677713482 [Eh]
	 SCS Correlation Energy    =      -2.0040616391619701 [Eh]
	 SCS Total Energy          =    -476.6118929680861243 [Eh]
	-----------------------------------------------------------

  Dipole Moment: [D]
     X:     1.2778      Y:     3.2738      Z:    -0.1617     Total:     3.5180

*** Psi4 exiting successfully. Buy a developer a beer!
