                               Psi4 1.4a3.dev225

  ==> Input File <==

--------------------------------------------------------------------------
#psi4
#
memory 32 gb

molecule  {
0 1
  O       -1.5316190     1.0321650     0.0948010
  O        1.4540340    -1.7305240     0.0480640
  N        0.6983760     0.4234810    -0.0768570
  C       -0.6387160     0.0037620    -0.0484130
  C        0.9338190     1.8669200    -0.1039590
  C        1.7048000    -0.5240370     0.0213290
  C       -1.2931220    -1.2007390    -0.1216240
  C       -2.6835930    -0.8875750    -0.0182810
  C        3.1317020    -0.0168610     0.0830780
  C       -2.7661716     0.4736967     0.1081263
  H        0.3040530     2.3204240    -0.8701650
  H        1.9743570     2.0597570    -0.3491110
  H        0.6954160     2.3257170     0.8600750
  H       -0.8317010    -2.1668680    -0.2305290
  H       -3.5070380    -1.5886770    -0.0382780
  H        3.2875770     0.6796840     0.9111130
  H        3.4247710     0.4818120    -0.8454740
  H        3.7649310    -0.8918910     0.2258400
  H       -3.6032960     1.1610050     0.2088840
units angstrom
no_reorient  #important for SAPT in psi4, default
symmetry c1  #important for SAPT in psi4, default
}

set PROPERTIES_ORIGIN ["COM"]
properties('MP2/aug-cc-pvtz', properties = ['dipole'])
--------------------------------------------------------------------------

    Molecular point group: c1
  Charge       = 0
  Multiplicity = 1
  Basis Set: AUG-CC-PVTZ
    Blend: AUG-CC-PVTZ
  Basis Set: (AUG-CC-PVTZ AUX)
    Blend: AUG-CC-PVTZ-JKFIT

    Orbital Energies [Eh]
    ---------------------

    Doubly Occupied:

       1A    -20.627929     2A    -20.528217     3A    -15.617175
       4A    -11.365334     5A    -11.331593     6A    -11.281475
       7A    -11.279261     8A    -11.246687     9A    -11.228370
      10A    -11.216143    11A     -1.470009    12A     -1.384874
      13A     -1.263041    14A     -1.080124    15A     -1.032155
      16A     -0.990486    17A     -0.955573    18A     -0.835684
      19A     -0.795798    20A     -0.752761    21A     -0.703295
      22A     -0.679993    23A     -0.674086    24A     -0.649867
      25A     -0.625647    26A     -0.593422    27A     -0.591312
      28A     -0.588198    29A     -0.566117    30A     -0.563938
      31A     -0.551640    32A     -0.536997    33A     -0.527097
      34A     -0.435064    35A     -0.431313    36A     -0.390537
      37A     -0.286311

  @DF-RHF Final Energy:  -474.63413674303285

   => Energetics <=

    Nuclear Repulsion Energy =            528.3552379557346512
    One-Electron Energy =               -1694.6237062809038889
    Two-Electron Energy =                 691.6343315821362694
    Total Energy =                       -474.6341367430328546
  Basis Set: (AUG-CC-PVTZ AUX)
    Blend: AUG-CC-PVTZ-RI
    Molecular point group: c1

    Geometry (in Angstrom), charge = 0, multiplicity = 1:

       Center              X                  Y                   Z               Mass
    ------------   -----------------  -----------------  -----------------  -----------------
         O           -1.493904131207     1.062675647663     0.093914274553    15.994914619570
         O            1.491748868793    -1.700013352337     0.047177274553    15.994914619570
         N            0.736090868793     0.453991647663    -0.077743725447    14.003074004430
         C           -0.601001131207     0.034272647663    -0.049299725447    12.000000000000
         C            0.971533868793     1.897430647663    -0.104845725447    12.000000000000
         C            1.742514868793    -0.493526352337     0.020442274553    12.000000000000
         C           -1.255407131207    -1.170228352337    -0.122510725447    12.000000000000
         C           -2.645878131207    -0.857064352337    -0.019167725447    12.000000000000
         C            3.169416868793     0.013649647663     0.082191274553    12.000000000000
         C           -2.728456731207     0.504207347663     0.107239574553    12.000000000000
         H            0.341767868793     2.350934647663    -0.871051725447     1.007825032230
         H            2.012071868793     2.090267647663    -0.349997725447     1.007825032230
         H            0.733130868793     2.356227647663     0.859188274553     1.007825032230
         H           -0.793986131207    -2.136357352337    -0.231415725447     1.007825032230
         H           -3.469323131207    -1.558166352337    -0.039164725447     1.007825032230
         H            3.325291868793     0.710194647663     0.910226274553     1.007825032230
         H            3.462485868793     0.512322647663    -0.846360725447     1.007825032230
         H            3.802645868793    -0.861380352337     0.224953274553     1.007825032230
         H           -3.565581131207     1.191515647663     0.207997274553     1.007825032230

  Basis Set: AUG-CC-PVTZ
    Blend: AUG-CC-PVTZ
  Basis Set: (AUG-CC-PVTZ AUX)
    Blend: AUG-CC-PVTZ-JKFIT
	 Reference Energy          =    -474.6341367430328546 [Eh]
	 Singles Energy            =      -0.0000000000000000 [Eh]
	 Same-Spin Energy          =      -0.4920185744082587 [Eh]
	 Opposite-Spin Energy      =      -1.5280882648603591 [Eh]
	 Correlation Energy        =      -2.0201068392686179 [Eh]
	 Total Energy              =    -476.6542435823014898 [Eh]

	 ================> DF-SCS-MP2 Energies <==================
	-----------------------------------------------------------
	 SCS Same-Spin Scale       =       0.3333333333333333 [-]
	 SCS Opposite-Spin Scale   =       1.2000000000000000 [-]
	 SCS Same-Spin Energy      =      -0.1640061914694196 [Eh]
	 SCS Opposite-Spin Energy  =      -1.8337059178324309 [Eh]
	 SCS Correlation Energy    =      -1.9977121093018504 [Eh]
	 SCS Total Energy          =    -476.6318488523347128 [Eh]
	-----------------------------------------------------------

  Dipole Moment: [D]
     X:     0.6521      Y:     3.3095      Z:    -0.1303     Total:     3.3757

*** Psi4 exiting successfully. Buy a developer a beer!
