                               Psi4 1.3.2 release

  ==> Input File <==

--------------------------------------------------------------------------
#psi4
#
memory 32 gb

molecule  {
0 1
  O       -1.5316190     1.0321650     0.0948010
  O        1.4540340    -1.7305240     0.0480640
  N        0.6983760     0.4234810    -0.0768570
  C       -0.5874822    -0.1337146    -0.0470257
  C        0.9338190     1.8669200    -0.1039590
  C        1.7048000    -0.5240370     0.0213290
  C       -1.2931220    -1.2007390    -0.1216240
  C       -2.6835930    -0.8875750    -0.0182810
  C        3.1317020    -0.0168610     0.0830780
  C       -2.7843930     0.4654540     0.1083230
  H        0.3040530     2.3204240    -0.8701650
  H        1.9743570     2.0597570    -0.3491110
  H        0.6954160     2.3257170     0.8600750
  H       -0.8317010    -2.1668680    -0.2305290
  H       -3.5070380    -1.5886770    -0.0382780
  H        3.2875770     0.6796840     0.9111130
  H        3.4247710     0.4818120    -0.8454740
  H        3.7649310    -0.8918910     0.2258400
  H       -3.6032960     1.1610050     0.2088840
units angstrom
no_reorient  #important for SAPT in psi4, default
symmetry c1  #important for SAPT in psi4, default
}

set PROPERTIES_ORIGIN ["COM"]
properties('MP2/aug-cc-pvtz', properties = ['dipole'])
--------------------------------------------------------------------------

    Molecular point group: c1
  Charge       = 0
  Multiplicity = 1
  Basis Set: AUG-CC-PVTZ
    Blend: AUG-CC-PVTZ
  Basis Set: (AUG-CC-PVTZ AUX)
    Blend: AUG-CC-PVTZ-JKFIT

    Orbital Energies [Eh]
    ---------------------

    Doubly Occupied:

       1A    -20.601204     2A    -20.530074     3A    -15.619176
       4A    -11.364708     5A    -11.326744     6A    -11.285442
       7A    -11.280651     8A    -11.246016     9A    -11.225602
      10A    -11.214263    11A     -1.415384    12A     -1.385807
      13A     -1.261518    14A     -1.093294    15A     -1.028698
      16A     -0.991363    17A     -0.956644    18A     -0.834116
      19A     -0.789858    20A     -0.738272    21A     -0.702945
      22A     -0.680922    23A     -0.666221    24A     -0.640517
      25A     -0.606398    26A     -0.590188    27A     -0.586983
      28A     -0.584515    29A     -0.573658    30A     -0.556554
      31A     -0.552239    32A     -0.529601    33A     -0.523961
      34A     -0.442584    35A     -0.432900    36A     -0.393241
      37A     -0.298880

  @DF-RHF Final Energy:  -474.61105131845483

   => Energetics <=

    Nuclear Repulsion Energy =            527.5324237715993831
    One-Electron Energy =               -1693.1846718044973841
    Two-Electron Energy =                 691.0411967144433447
    Total Energy =                       -474.6110513184547699
  Basis Set: (AUG-CC-PVTZ AUX)
    Blend: AUG-CC-PVTZ-RI
    Molecular point group: c1

    Geometry (in Angstrom), charge = 0, multiplicity = 1:

       Center              X                  Y                   Z               Mass
    ------------   -----------------  -----------------  -----------------  -----------------
         O           -1.496752824707     1.075250002228     0.093777588626    15.994914619570
         O            1.488900175293    -1.687438997772     0.047040588626    15.994914619570
         N            0.733242175293     0.466566002228    -0.077880411374    14.003074004430
         C           -0.552616024707    -0.090629597772    -0.048049111374    12.000000000000
         C            0.968685175293     1.910005002228    -0.104982411374    12.000000000000
         C            1.739666175293    -0.480951997772     0.020305588626    12.000000000000
         C           -1.258255824707    -1.157653997772    -0.122647411374    12.000000000000
         C           -2.648726824707    -0.844489997772    -0.019304411374    12.000000000000
         C            3.166568175293     0.026224002228     0.082054588626    12.000000000000
         C           -2.749526824707     0.508539002228     0.107299588626    12.000000000000
         H            0.338919175293     2.363509002228    -0.871188411374     1.007825032230
         H            2.009223175293     2.102842002228    -0.350134411374     1.007825032230
         H            0.730282175293     2.368802002228     0.859051588626     1.007825032230
         H           -0.796834824707    -2.123782997772    -0.231552411374     1.007825032230
         H           -3.472171824707    -1.545591997772    -0.039301411374     1.007825032230
         H            3.322443175293     0.722769002228     0.910089588626     1.007825032230
         H            3.459637175293     0.524897002228    -0.846497411374     1.007825032230
         H            3.799797175293    -0.848805997772     0.224816588626     1.007825032230
         H           -3.568429824707     1.204090002228     0.207860588626     1.007825032230

  Basis Set: AUG-CC-PVTZ
    Blend: AUG-CC-PVTZ
  Basis Set: (AUG-CC-PVTZ AUX)
    Blend: AUG-CC-PVTZ-JKFIT
	 Reference Energy          =    -474.6110513184548267 [Eh]
	 Singles Energy            =      -0.0000000000000000 [Eh]
	 Same-Spin Energy          =      -0.4915477171248067 [Eh]
	 Opposite-Spin Energy      =      -1.5302509432849520 [Eh]
	 Correlation Energy        =      -2.0217986604097589 [Eh]
	 Total Energy              =    -476.6328499788646127 [Eh]

	 ================> DF-SCS-MP2 Energies <==================
	-----------------------------------------------------------
	 SCS Same-Spin Scale       =       0.3333333333333333 [-]
	 SCS Opposite-Spin Scale   =       1.2000000000000000 [-]
	 SCS Same-Spin Energy      =      -0.1638492390416022 [Eh]
	 SCS Opposite-Spin Energy  =      -1.8363011319419424 [Eh]
	 SCS Correlation Energy    =      -2.0001503709835449 [Eh]
	 SCS Total Energy          =    -476.6112016894383601 [Eh]
	-----------------------------------------------------------

  Dipole Moment: [D]
     X:     0.8110      Y:     3.0594      Z:    -0.1713     Total:     3.1697

*** Psi4 exiting successfully. Buy a developer a beer!
