                               Psi4 1.3.2 release

  ==> Input File <==

--------------------------------------------------------------------------
#psi4
#
memory 32 gb

molecule  {
0 1
  O       -1.5316190     1.0321650     0.0948010
  O        1.4540340    -1.7305240     0.0480640
  N        0.6983760     0.4234810    -0.0768570
  C       -0.7691190     0.1539539    -0.0274975
  C        0.9338190     1.8669200    -0.1039590
  C        1.7048000    -0.5240370     0.0213290
  C       -1.2931220    -1.2007390    -0.1216240
  C       -2.6835930    -0.8875750    -0.0182810
  C        3.1317020    -0.0168610     0.0830780
  C       -2.7843930     0.4654540     0.1083230
  H        0.3040530     2.3204240    -0.8701650
  H        1.9743570     2.0597570    -0.3491110
  H        0.6954160     2.3257170     0.8600750
  H       -0.8317010    -2.1668680    -0.2305290
  H       -3.5070380    -1.5886770    -0.0382780
  H        3.2875770     0.6796840     0.9111130
  H        3.4247710     0.4818120    -0.8454740
  H        3.7649310    -0.8918910     0.2258400
  H       -3.6032960     1.1610050     0.2088840
units angstrom
no_reorient  #important for SAPT in psi4, default
symmetry c1  #important for SAPT in psi4, default
}

set PROPERTIES_ORIGIN ["COM"]
properties('MP2/aug-cc-pvtz', properties = ['dipole'])
--------------------------------------------------------------------------

    Molecular point group: c1
  Charge       = 0
  Multiplicity = 1
  Basis Set: AUG-CC-PVTZ
    Blend: AUG-CC-PVTZ
  Basis Set: (AUG-CC-PVTZ AUX)
    Blend: AUG-CC-PVTZ-JKFIT

    Orbital Energies [Eh]
    ---------------------

    Doubly Occupied:

       1A    -20.661627     2A    -20.522427     3A    -15.610689
       4A    -11.363795     5A    -11.347896     6A    -11.274520
       7A    -11.273367     8A    -11.245379     9A    -11.237316
      10A    -11.212797    11A     -1.575962    12A     -1.377111
      13A     -1.244773    14A     -1.090587    15A     -1.030779
      16A     -0.994854    17A     -0.953916    18A     -0.832993
      19A     -0.810601    20A     -0.781663    21A     -0.716255
      22A     -0.699960    23A     -0.676684    24A     -0.656030
      25A     -0.639761    26A     -0.598829    27A     -0.593999
      28A     -0.592125    29A     -0.580954    30A     -0.557419
      31A     -0.550807    32A     -0.520759    33A     -0.506566
      34A     -0.426840    35A     -0.415114    36A     -0.400380
      37A     -0.281031

  @DF-RHF Final Energy:  -474.58376375667189

   => Energetics <=

    Nuclear Repulsion Energy =            529.0093367008665837
    One-Electron Energy =               -1695.4730713689377808
    Two-Electron Energy =                 691.8799709113992549
    Total Energy =                       -474.5837637566718286
  Basis Set: (AUG-CC-PVTZ AUX)
    Blend: AUG-CC-PVTZ-RI
    Molecular point group: c1

    Geometry (in Angstrom), charge = 0, multiplicity = 1:

       Center              X                  Y                   Z               Mass
    ------------   -----------------  -----------------  -----------------  -----------------
         O           -1.481079090855     1.050426621137     0.092092468599    15.994914619570
         O            1.504573909145    -1.712262378863     0.045355468599    15.994914619570
         N            0.748915909145     0.441742621137    -0.079565531401    14.003074004430
         C           -0.718579090855     0.172215521137    -0.030206031401    12.000000000000
         C            0.984358909145     1.885181621137    -0.106667531401    12.000000000000
         C            1.755339909145    -0.505775378863     0.018620468599    12.000000000000
         C           -1.242582090855    -1.182477378863    -0.124332531401    12.000000000000
         C           -2.633053090855    -0.869313378863    -0.020989531401    12.000000000000
         C            3.182241909145     0.001400621137     0.080369468599    12.000000000000
         C           -2.733853090855     0.483715621137     0.105614468599    12.000000000000
         H            0.354592909145     2.338685621137    -0.872873531401     1.007825032230
         H            2.024896909145     2.078018621137    -0.351819531401     1.007825032230
         H            0.745955909145     2.343978621137     0.857366468599     1.007825032230
         H           -0.781161090855    -2.148606378863    -0.233237531401     1.007825032230
         H           -3.456498090855    -1.570415378863    -0.040986531401     1.007825032230
         H            3.338116909145     0.697945621137     0.908404468599     1.007825032230
         H            3.475310909145     0.500073621137    -0.848182531401     1.007825032230
         H            3.815470909145    -0.873629378863     0.223131468599     1.007825032230
         H           -3.552756090855     1.179266621137     0.206175468599     1.007825032230

  Basis Set: AUG-CC-PVTZ
    Blend: AUG-CC-PVTZ
  Basis Set: (AUG-CC-PVTZ AUX)
    Blend: AUG-CC-PVTZ-JKFIT
	 Reference Energy          =    -474.5837637566718854 [Eh]
	 Singles Energy            =      -0.0000000000000000 [Eh]
	 Same-Spin Energy          =      -0.4919727293329796 [Eh]
	 Opposite-Spin Energy      =      -1.5254727002759361 [Eh]
	 Correlation Energy        =      -2.0174454296089159 [Eh]
	 Total Energy              =    -476.6012091862808120 [Eh]

	 ================> DF-SCS-MP2 Energies <==================
	-----------------------------------------------------------
	 SCS Same-Spin Scale       =       0.3333333333333333 [-]
	 SCS Opposite-Spin Scale   =       1.2000000000000000 [-]
	 SCS Same-Spin Energy      =      -0.1639909097776599 [Eh]
	 SCS Opposite-Spin Energy  =      -1.8305672403311233 [Eh]
	 SCS Correlation Energy    =      -1.9945581501087832 [Eh]
	 SCS Total Energy          =    -476.5783219067806726 [Eh]
	-----------------------------------------------------------

  Dipole Moment: [D]
     X:     0.1369      Y:     3.5307      Z:    -0.0673     Total:     3.5340

*** Psi4 exiting successfully. Buy a developer a beer!
