                               Psi4 1.3.2 release

  ==> Input File <==

--------------------------------------------------------------------------
#psi4
#
memory 32 gb

molecule  {
0 1
  O       -1.5316190     1.0321650     0.0948010
  O        1.4540340    -1.7305240     0.0480640
  N        0.6983760     0.4234810    -0.0768570
  C       -0.7039175     0.0788580    -0.0379552
  C        0.9338190     1.8669200    -0.1039590
  C        1.7048000    -0.5240370     0.0213290
  C       -1.2931220    -1.2007390    -0.1216240
  C       -2.6835930    -0.8875750    -0.0182810
  C        3.1317020    -0.0168610     0.0830780
  C       -2.7843930     0.4654540     0.1083230
  H        0.3040530     2.3204240    -0.8701650
  H        1.9743570     2.0597570    -0.3491110
  H        0.6954160     2.3257170     0.8600750
  H       -0.8317010    -2.1668680    -0.2305290
  H       -3.5070380    -1.5886770    -0.0382780
  H        3.2875770     0.6796840     0.9111130
  H        3.4247710     0.4818120    -0.8454740
  H        3.7649310    -0.8918910     0.2258400
  H       -3.6032960     1.1610050     0.2088840
units angstrom
no_reorient  #important for SAPT in psi4, default
symmetry c1  #important for SAPT in psi4, default
}

set PROPERTIES_ORIGIN ["COM"]
properties('MP2/aug-cc-pvtz', properties = ['dipole'])
--------------------------------------------------------------------------

    Molecular point group: c1
  Charge       = 0
  Multiplicity = 1
  Basis Set: AUG-CC-PVTZ
    Blend: AUG-CC-PVTZ
  Basis Set: (AUG-CC-PVTZ AUX)
    Blend: AUG-CC-PVTZ-JKFIT

    Orbital Energies [Eh]
    ---------------------

    Doubly Occupied:

       1A    -20.642478     2A    -20.525338     3A    -15.614229
       4A    -11.364579     5A    -11.338497     6A    -11.277476
       7A    -11.276428     8A    -11.246042     9A    -11.233236
      10A    -11.214487    11A     -1.511638    12A     -1.380831
      13A     -1.253517    14A     -1.083160    15A     -1.031290
      16A     -0.991380    17A     -0.954546    18A     -0.831601
      19A     -0.803986    20A     -0.764949    21A     -0.701483
      22A     -0.687383    23A     -0.676257    24A     -0.653198
      25A     -0.634471    26A     -0.593230    27A     -0.592029
      28A     -0.589723    29A     -0.576230    30A     -0.558589
      31A     -0.554021    32A     -0.528633    33A     -0.522785
      34A     -0.429913    35A     -0.423911    36A     -0.395354
      37A     -0.285105

  @DF-RHF Final Energy:  -474.62487492299465

   => Energetics <=

    Nuclear Repulsion Energy =            528.3927962697804332
    One-Electron Energy =               -1694.5513330645478618
    Two-Electron Energy =                 691.5336618717726651
    Total Energy =                       -474.6248749229946498
  Basis Set: (AUG-CC-PVTZ AUX)
    Blend: AUG-CC-PVTZ-RI
    Molecular point group: c1

    Geometry (in Angstrom), charge = 0, multiplicity = 1:

       Center              X                  Y                   Z               Mass
    ------------   -----------------  -----------------  -----------------  -----------------
         O           -1.486705433962     1.056906768056     0.092994880480    15.994914619570
         O            1.498947566038    -1.705782231944     0.046257880480    15.994914619570
         N            0.743289566038     0.448222768056    -0.078663119520    14.003074004430
         C           -0.659003933962     0.103599768056    -0.039761319520    12.000000000000
         C            0.978732566038     1.891661768056    -0.105765119520    12.000000000000
         C            1.749713566038    -0.499295231944     0.019522880480    12.000000000000
         C           -1.248208433962    -1.175997231944    -0.123430119520    12.000000000000
         C           -2.638679433962    -0.862833231944    -0.020087119520    12.000000000000
         C            3.176615566038     0.007880768056     0.081271880480    12.000000000000
         C           -2.739479433962     0.490195768056     0.106516880480    12.000000000000
         H            0.348966566038     2.345165768056    -0.871971119520     1.007825032230
         H            2.019270566038     2.084498768056    -0.350917119520     1.007825032230
         H            0.740329566038     2.350458768056     0.858268880480     1.007825032230
         H           -0.786787433962    -2.142126231944    -0.232335119520     1.007825032230
         H           -3.462124433962    -1.563935231944    -0.040084119520     1.007825032230
         H            3.332490566038     0.704425768056     0.909306880480     1.007825032230
         H            3.469684566038     0.506553768056    -0.847280119520     1.007825032230
         H            3.809844566038    -0.867149231944     0.224033880480     1.007825032230
         H           -3.558382433962     1.185746768056     0.207077880480     1.007825032230

  Basis Set: AUG-CC-PVTZ
    Blend: AUG-CC-PVTZ
  Basis Set: (AUG-CC-PVTZ AUX)
    Blend: AUG-CC-PVTZ-JKFIT
	 Reference Energy          =    -474.6248749229946498 [Eh]
	 Singles Energy            =      -0.0000000000000000 [Eh]
	 Same-Spin Energy          =      -0.4918654615924446 [Eh]
	 Opposite-Spin Energy      =      -1.5266510333083041 [Eh]
	 Correlation Energy        =      -2.0185164949007488 [Eh]
	 Total Energy              =    -476.6433914178953728 [Eh]

	 ================> DF-SCS-MP2 Energies <==================
	-----------------------------------------------------------
	 SCS Same-Spin Scale       =       0.3333333333333333 [-]
	 SCS Opposite-Spin Scale   =       1.2000000000000000 [-]
	 SCS Same-Spin Energy      =      -0.1639551538641482 [Eh]
	 SCS Opposite-Spin Energy  =      -1.8319812399699649 [Eh]
	 SCS Correlation Energy    =      -1.9959363938341130 [Eh]
	 SCS Total Energy          =    -476.6208113168287355 [Eh]
	-----------------------------------------------------------

  Dipole Moment: [D]
     X:     0.3634      Y:     3.3877      Z:    -0.1007     Total:     3.4086

*** Psi4 exiting successfully. Buy a developer a beer!
