                               Psi4 1.3.2 release

  ==> Input File <==

--------------------------------------------------------------------------
#psi4
#
memory 32 gb

molecule  {
0 1
  O       -1.5316190     1.0321650     0.0948010
  O        1.4540340    -1.7305240     0.0480640
  N        0.6983760     0.4234810    -0.0768570
  C       -0.6387160     0.0037620    -0.0484130
  C        0.9338190     1.8669200    -0.1039590
  C        1.7048000    -0.5240370     0.0213290
  C       -1.3342746    -1.3441318    -0.1325472
  C       -2.6835930    -0.8875750    -0.0182810
  C        3.1317020    -0.0168610     0.0830780
  C       -2.7843930     0.4654540     0.1083230
  H        0.3040530     2.3204240    -0.8701650
  H        1.9743570     2.0597570    -0.3491110
  H        0.6954160     2.3257170     0.8600750
  H       -0.8317010    -2.1668680    -0.2305290
  H       -3.5070380    -1.5886770    -0.0382780
  H        3.2875770     0.6796840     0.9111130
  H        3.4247710     0.4818120    -0.8454740
  H        3.7649310    -0.8918910     0.2258400
  H       -3.6032960     1.1610050     0.2088840
units angstrom
no_reorient  #important for SAPT in psi4, default
symmetry c1  #important for SAPT in psi4, default
}

set PROPERTIES_ORIGIN ["COM"]
properties('MP2/aug-cc-pvtz', properties = ['dipole'])
--------------------------------------------------------------------------

    Molecular point group: c1
  Charge       = 0
  Multiplicity = 1
  Basis Set: AUG-CC-PVTZ
    Blend: AUG-CC-PVTZ
  Basis Set: (AUG-CC-PVTZ AUX)
    Blend: AUG-CC-PVTZ-JKFIT

    Orbital Energies [Eh]
    ---------------------

    Doubly Occupied:

       1A    -20.635169     2A    -20.532190     3A    -15.623071
       4A    -11.368493     5A    -11.354240     6A    -11.281849
       7A    -11.275142     8A    -11.249037     9A    -11.233254
      10A    -11.225356    11A     -1.464359    12A     -1.387993
      13A     -1.266794    14A     -1.069112    15A     -1.032516
      16A     -0.988074    17A     -0.954324    18A     -0.842336
      19A     -0.793741    20A     -0.756571    21A     -0.704131
      22A     -0.682535    23A     -0.674313    24A     -0.655879
      25A     -0.623557    26A     -0.598455    27A     -0.594967
      28A     -0.591407    29A     -0.584479    30A     -0.566140
      31A     -0.552030    32A     -0.529910    33A     -0.516740
      34A     -0.437236    35A     -0.432876    36A     -0.391605
      37A     -0.271982

  @DF-RHF Final Energy:  -474.59798834986697

   => Energetics <=

    Nuclear Repulsion Energy =            525.0837875375110571
    One-Electron Energy =               -1687.8798221481033579
    Two-Electron Energy =                 688.1980462607253912
    Total Energy =                       -474.5979883498670233
  Basis Set: (AUG-CC-PVTZ AUX)
    Blend: AUG-CC-PVTZ-RI
    Molecular point group: c1

    Geometry (in Angstrom), charge = 0, multiplicity = 1:

       Center              X                  Y                   Z               Mass
    ------------   -----------------  -----------------  -----------------  -----------------
         O           -1.488780652519     1.075760520714     0.094839881623    15.994914619570
         O            1.496872347481    -1.686928479286     0.048102881623    15.994914619570
         N            0.741214347481     0.467076520714    -0.076818118377    14.003074004430
         C           -0.595877652519     0.047357520714    -0.048374118377    12.000000000000
         C            0.976657347481     1.910515520714    -0.103920118377    12.000000000000
         C            1.747638347481    -0.480441479286     0.021367881623    12.000000000000
         C           -1.291436252519    -1.300536279286    -0.132508318377    12.000000000000
         C           -2.640754652519    -0.843979479286    -0.018242118377    12.000000000000
         C            3.174540347481     0.026734520714     0.083116881623    12.000000000000
         C           -2.741554652519     0.509049520714     0.108361881623    12.000000000000
         H            0.346891347481     2.364019520714    -0.870126118377     1.007825032230
         H            2.017195347481     2.103352520714    -0.349072118377     1.007825032230
         H            0.738254347481     2.369312520714     0.860113881623     1.007825032230
         H           -0.788862652519    -2.123272479286    -0.230490118377     1.007825032230
         H           -3.464199652519    -1.545081479286    -0.038239118377     1.007825032230
         H            3.330415347481     0.723279520714     0.911151881623     1.007825032230
         H            3.467609347481     0.525407520714    -0.845435118377     1.007825032230
         H            3.807769347481    -0.848295479286     0.225878881623     1.007825032230
         H           -3.560457652519     1.204600520714     0.208922881623     1.007825032230

  Basis Set: AUG-CC-PVTZ
    Blend: AUG-CC-PVTZ
  Basis Set: (AUG-CC-PVTZ AUX)
    Blend: AUG-CC-PVTZ-JKFIT
	 Reference Energy          =    -474.5979883498669665 [Eh]
	 Singles Energy            =      -0.0000000000000000 [Eh]
	 Same-Spin Energy          =      -0.4943894457331175 [Eh]
	 Opposite-Spin Energy      =      -1.5329922725852414 [Eh]
	 Correlation Energy        =      -2.0273817183183591 [Eh]
	 Total Energy              =    -476.6253700681853047 [Eh]

	 ================> DF-SCS-MP2 Energies <==================
	-----------------------------------------------------------
	 SCS Same-Spin Scale       =       0.3333333333333333 [-]
	 SCS Opposite-Spin Scale   =       1.2000000000000000 [-]
	 SCS Same-Spin Energy      =      -0.1647964819110392 [Eh]
	 SCS Opposite-Spin Energy  =      -1.8395907271022895 [Eh]
	 SCS Correlation Energy    =      -2.0043872090133288 [Eh]
	 SCS Total Energy          =    -476.6023755588802828 [Eh]
	-----------------------------------------------------------

  Dipole Moment: [D]
     X:     0.7116      Y:     3.3977      Z:    -0.1222     Total:     3.4735

*** Psi4 exiting successfully. Buy a developer a beer!
