                               Psi4 1.3.2 release

  ==> Input File <==

--------------------------------------------------------------------------
#psi4
#
memory 32 gb

molecule  {
0 1
  O       -1.5316190     1.0321650     0.0948010
  O        1.4540340    -1.7305240     0.0480640
  N        0.6983760     0.4234810    -0.0768570
  C       -0.7341061    -0.0261814    -0.0463838
  C        0.9338190     1.8669200    -0.1039590
  C        1.7048000    -0.5240370     0.0213290
  C       -1.2931220    -1.2007390    -0.1216240
  C       -2.6835930    -0.8875750    -0.0182810
  C        3.1317020    -0.0168610     0.0830780
  C       -2.7843930     0.4654540     0.1083230
  H        0.3040530     2.3204240    -0.8701650
  H        1.9743570     2.0597570    -0.3491110
  H        0.6954160     2.3257170     0.8600750
  H       -0.8317010    -2.1668680    -0.2305290
  H       -3.5070380    -1.5886770    -0.0382780
  H        3.2875770     0.6796840     0.9111130
  H        3.4247710     0.4818120    -0.8454740
  H        3.7649310    -0.8918910     0.2258400
  H       -3.6032960     1.1610050     0.2088840
units angstrom
no_reorient  #important for SAPT in psi4, default
symmetry c1  #important for SAPT in psi4, default
}

set PROPERTIES_ORIGIN ["COM"]
properties('MP2/aug-cc-pvtz', properties = ['dipole'])
--------------------------------------------------------------------------

    Molecular point group: c1
  Charge       = 0
  Multiplicity = 1
  Basis Set: AUG-CC-PVTZ
    Blend: AUG-CC-PVTZ
  Basis Set: (AUG-CC-PVTZ AUX)
    Blend: AUG-CC-PVTZ-JKFIT

    Orbital Energies [Eh]
    ---------------------

    Doubly Occupied:

       1A    -20.632861     2A    -20.520441     3A    -15.608210
       4A    -11.358624     5A    -11.329469     6A    -11.285347
       7A    -11.272646     8A    -11.241898     9A    -11.234884
      10A    -11.212540    11A     -1.483862    12A     -1.375894
      13A     -1.237404    14A     -1.103240    15A     -1.025140
      16A     -0.990247    17A     -0.949005    18A     -0.829561
      19A     -0.793835    20A     -0.762103    21A     -0.698819
      22A     -0.674989    23A     -0.669734    24A     -0.641972
      25A     -0.627861    26A     -0.593775    27A     -0.588176
      28A     -0.586128    29A     -0.577016    30A     -0.558515
      31A     -0.551596    32A     -0.537678    33A     -0.519544
      34A     -0.426068    35A     -0.422291    36A     -0.398941
      37A     -0.304184

  @DF-RHF Final Energy:  -474.62409359831463

   => Energetics <=

    Nuclear Repulsion Energy =            528.0381535456381243
    One-Electron Energy =               -1694.0754944687935222
    Two-Electron Energy =                 691.4132473248407678
    Total Energy =                       -474.6240935983146301
  Basis Set: (AUG-CC-PVTZ AUX)
    Blend: AUG-CC-PVTZ-RI
    Molecular point group: c1

    Geometry (in Angstrom), charge = 0, multiplicity = 1:

       Center              X                  Y                   Z               Mass
    ------------   -----------------  -----------------  -----------------  -----------------
         O           -1.484100410741     1.065970788120     0.093722198035    15.994914619570
         O            1.501552589259    -1.696718211880     0.046985198035    15.994914619570
         N            0.745894589259     0.457286788120    -0.077935801965    14.003074004430
         C           -0.686587510741     0.007624388120    -0.047462601965    12.000000000000
         C            0.981337589259     1.900725788120    -0.105037801965    12.000000000000
         C            1.752318589259    -0.490231211880     0.020250198035    12.000000000000
         C           -1.245603410741    -1.166933211880    -0.122702801965    12.000000000000
         C           -2.636074410741    -0.853769211880    -0.019359801965    12.000000000000
         C            3.179220589259     0.016944788120     0.081999198035    12.000000000000
         C           -2.736874410741     0.499259788120     0.107244198035    12.000000000000
         H            0.351571589259     2.354229788120    -0.871243801965     1.007825032230
         H            2.021875589259     2.093562788120    -0.350189801965     1.007825032230
         H            0.742934589259     2.359522788120     0.858996198035     1.007825032230
         H           -0.784182410741    -2.133062211880    -0.231607801965     1.007825032230
         H           -3.459519410741    -1.554871211880    -0.039356801965     1.007825032230
         H            3.335095589259     0.713489788120     0.910034198035     1.007825032230
         H            3.472289589259     0.515617788120    -0.846552801965     1.007825032230
         H            3.812449589259    -0.858085211880     0.224761198035     1.007825032230
         H           -3.555777410741     1.194810788120     0.207805198035     1.007825032230

  Basis Set: AUG-CC-PVTZ
    Blend: AUG-CC-PVTZ
  Basis Set: (AUG-CC-PVTZ AUX)
    Blend: AUG-CC-PVTZ-JKFIT
	 Reference Energy          =    -474.6240935983146301 [Eh]
	 Singles Energy            =      -0.0000000000000000 [Eh]
	 Same-Spin Energy          =      -0.4903661454410337 [Eh]
	 Opposite-Spin Energy      =      -1.5263775207854549 [Eh]
	 Correlation Energy        =      -2.0167436662264886 [Eh]
	 Total Energy              =    -476.6408372645411191 [Eh]

	 ================> DF-SCS-MP2 Energies <==================
	-----------------------------------------------------------
	 SCS Same-Spin Scale       =       0.3333333333333333 [-]
	 SCS Opposite-Spin Scale   =       1.2000000000000000 [-]
	 SCS Same-Spin Energy      =      -0.1634553818136779 [Eh]
	 SCS Opposite-Spin Energy  =      -1.8316530249425458 [Eh]
	 SCS Correlation Energy    =      -1.9951084067562237 [Eh]
	 SCS Total Energy          =    -476.6192020050708607 [Eh]
	-----------------------------------------------------------

  Dipole Moment: [D]
     X:     0.0621      Y:     3.1326      Z:    -0.1320     Total:     3.1360

*** Psi4 exiting successfully. Buy a developer a beer!
