                               Psi4 1.3.2 release

  ==> Input File <==

--------------------------------------------------------------------------
#psi4
#
memory 32 gb

molecule  {
0 1
  O       -1.5316190     1.0321650     0.0948010
  O        1.4540340    -1.7305240     0.0480640
  N        0.6983760     0.4234810    -0.0768570
  C       -0.6753003     0.1458371    -0.0501120
  C        0.9338190     1.8669200    -0.1039590
  C        1.7048000    -0.5240370     0.0213290
  C       -1.2931220    -1.2007390    -0.1216240
  C       -2.6835930    -0.8875750    -0.0182810
  C        3.1317020    -0.0168610     0.0830780
  C       -2.7843930     0.4654540     0.1083230
  H        0.3040530     2.3204240    -0.8701650
  H        1.9743570     2.0597570    -0.3491110
  H        0.6954160     2.3257170     0.8600750
  H       -0.8317010    -2.1668680    -0.2305290
  H       -3.5070380    -1.5886770    -0.0382780
  H        3.2875770     0.6796840     0.9111130
  H        3.4247710     0.4818120    -0.8454740
  H        3.7649310    -0.8918910     0.2258400
  H       -3.6032960     1.1610050     0.2088840
units angstrom
no_reorient  #important for SAPT in psi4, default
symmetry c1  #important for SAPT in psi4, default
}

set PROPERTIES_ORIGIN ["COM"]
properties('MP2/aug-cc-pvtz', properties = ['dipole'])
--------------------------------------------------------------------------

    Molecular point group: c1
  Charge       = 0
  Multiplicity = 1
  Basis Set: AUG-CC-PVTZ
    Blend: AUG-CC-PVTZ
  Basis Set: (AUG-CC-PVTZ AUX)
    Blend: AUG-CC-PVTZ-JKFIT

    Orbital Energies [Eh]
    ---------------------

    Doubly Occupied:

       1A    -20.646941     2A    -20.529634     3A    -15.619284
       4A    -11.369395     5A    -11.344274     6A    -11.279711
       7A    -11.271722     8A    -11.249394     9A    -11.231478
      10A    -11.214002    11A     -1.524634    12A     -1.385330
      13A     -1.267349    14A     -1.074390    15A     -1.035323
      16A     -0.992207    17A     -0.959090    18A     -0.837070
      19A     -0.809086    20A     -0.764009    21A     -0.703610
      22A     -0.695650    23A     -0.681025    24A     -0.658129
      25A     -0.638414    26A     -0.596567    27A     -0.595381
      28A     -0.592027    29A     -0.578550    30A     -0.559411
      31A     -0.548198    32A     -0.527766    33A     -0.514310
      34A     -0.433897    35A     -0.429438    36A     -0.391670
      37A     -0.271761

  @DF-RHF Final Energy:  -474.60955417844661

   => Energetics <=

    Nuclear Repulsion Energy =            528.6377853194981071
    One-Electron Energy =               -1694.8544276350012296
    Two-Electron Energy =                 691.6070881370565075
    Total Energy =                       -474.6095541784466150
  Basis Set: (AUG-CC-PVTZ AUX)
    Blend: AUG-CC-PVTZ-RI
    Molecular point group: c1

    Geometry (in Angstrom), charge = 0, multiplicity = 1:

       Center              X                  Y                   Z               Mass
    ------------   -----------------  -----------------  -----------------  -----------------
         O           -1.489174858530     1.051127032963     0.094043910455    15.994914619570
         O            1.496478141470    -1.711561967037     0.047306910455    15.994914619570
         N            0.740820141470     0.442443032963    -0.077614089545    14.003074004430
         C           -0.632856158530     0.164799132963    -0.050869089545    12.000000000000
         C            0.976263141470     1.885882032963    -0.104716089545    12.000000000000
         C            1.747244141470    -0.505074967037     0.020571910455    12.000000000000
         C           -1.250677858530    -1.181776967037    -0.122381089545    12.000000000000
         C           -2.641148858530    -0.868612967037    -0.019038089545    12.000000000000
         C            3.174146141470     0.002101032963     0.082320910455    12.000000000000
         C           -2.741948858530     0.484416032963     0.107565910455    12.000000000000
         H            0.346497141470     2.339386032963    -0.870922089545     1.007825032230
         H            2.016801141470     2.078719032963    -0.349868089545     1.007825032230
         H            0.737860141470     2.344679032963     0.859317910455     1.007825032230
         H           -0.789256858530    -2.147905967037    -0.231286089545     1.007825032230
         H           -3.464593858530    -1.569714967037    -0.039035089545     1.007825032230
         H            3.330021141470     0.698646032963     0.910355910455     1.007825032230
         H            3.467215141470     0.500774032963    -0.846231089545     1.007825032230
         H            3.807375141470    -0.872928967037     0.225082910455     1.007825032230
         H           -3.560851858530     1.179967032963     0.208126910455     1.007825032230

  Basis Set: AUG-CC-PVTZ
    Blend: AUG-CC-PVTZ
  Basis Set: (AUG-CC-PVTZ AUX)
    Blend: AUG-CC-PVTZ-JKFIT
	 Reference Energy          =    -474.6095541784466150 [Eh]
	 Singles Energy            =      -0.0000000000000000 [Eh]
	 Same-Spin Energy          =      -0.4931299205261025 [Eh]
	 Opposite-Spin Energy      =      -1.5275858515225076 [Eh]
	 Correlation Energy        =      -2.0207157720486100 [Eh]
	 Total Energy              =    -476.6302699504952329 [Eh]

	 ================> DF-SCS-MP2 Energies <==================
	-----------------------------------------------------------
	 SCS Same-Spin Scale       =       0.3333333333333333 [-]
	 SCS Opposite-Spin Scale   =       1.2000000000000000 [-]
	 SCS Same-Spin Energy      =      -0.1643766401753675 [Eh]
	 SCS Opposite-Spin Energy  =      -1.8331030218270090 [Eh]
	 SCS Correlation Energy    =      -1.9974796620023765 [Eh]
	 SCS Total Energy          =    -476.6070338404489917 [Eh]
	-----------------------------------------------------------

  Dipole Moment: [D]
     X:     0.6043      Y:     3.5434      Z:    -0.0849     Total:     3.5956

*** Psi4 exiting successfully. Buy a developer a beer!
