                               Psi4 1.4a3.dev225

  ==> Input File <==

--------------------------------------------------------------------------
#psi4
#
memory 32 gb

molecule  {
0 1
  O       -1.5316190     1.0321650     0.0948010
  O        1.4540340    -1.7305240     0.0480640
  N        0.6983760     0.4234810    -0.0768570
  C       -0.6577940    -0.0022267    -0.0480072
  C        0.9338190     1.8669200    -0.1039590
  C        1.7048000    -0.5240370     0.0213290
  C       -1.2931220    -1.2007390    -0.1216240
  C       -2.6835930    -0.8875750    -0.0182810
  C        3.1317020    -0.0168610     0.0830780
  C       -2.7843930     0.4654540     0.1083230
  H        0.3040530     2.3204240    -0.8701650
  H        1.9743570     2.0597570    -0.3491110
  H        0.6954160     2.3257170     0.8600750
  H       -0.8317010    -2.1668680    -0.2305290
  H       -3.5070380    -1.5886770    -0.0382780
  H        3.2875770     0.6796840     0.9111130
  H        3.4247710     0.4818120    -0.8454740
  H        3.7649310    -0.8918910     0.2258400
  H       -3.6032960     1.1610050     0.2088840
units angstrom
no_reorient  #important for SAPT in psi4, default
symmetry c1  #important for SAPT in psi4, default
}

set PROPERTIES_ORIGIN ["COM"]
properties('MP2/aug-cc-pvtz', properties = ['dipole'])
--------------------------------------------------------------------------

    Molecular point group: c1
  Charge       = 0
  Multiplicity = 1
  Basis Set: AUG-CC-PVTZ
    Blend: AUG-CC-PVTZ
  Basis Set: (AUG-CC-PVTZ AUX)
    Blend: AUG-CC-PVTZ-JKFIT

    Orbital Energies [Eh]
    ---------------------

    Doubly Occupied:

       1A    -20.626491     2A    -20.526826     3A    -15.615666
       4A    -11.364185     5A    -11.331666     6A    -11.281471
       7A    -11.277721     8A    -11.245812     9A    -11.230356
      10A    -11.214934    11A     -1.466379    12A     -1.383016
      13A     -1.257171    14A     -1.084380    15A     -1.030418
      16A     -0.990355    17A     -0.954095    18A     -0.833338
      19A     -0.795970    20A     -0.753111    21A     -0.701913
      22A     -0.678458    23A     -0.671908    24A     -0.647747
      25A     -0.624199    26A     -0.592060    27A     -0.589173
      28A     -0.587579    29A     -0.566835    30A     -0.564401
      31A     -0.550507    32A     -0.541698    33A     -0.525518
      34A     -0.432430    35A     -0.429446    36A     -0.393543
      37A     -0.291079

  @DF-RHF Final Energy:  -474.63470821168289

   => Energetics <=

    Nuclear Repulsion Energy =            527.9807514790575169
    One-Electron Energy =               -1693.9272068292191307
    Two-Electron Energy =                 691.3117471384787223
    Total Energy =                       -474.6347082116828915
  Basis Set: (AUG-CC-PVTZ AUX)
    Blend: AUG-CC-PVTZ-RI
    Molecular point group: c1

    Geometry (in Angstrom), charge = 0, multiplicity = 1:

       Center              X                  Y                   Z               Mass
    ------------   -----------------  -----------------  -----------------  -----------------
         O           -1.490685505530     1.063903698233     0.093862283852    15.994914619570
         O            1.494967494470    -1.698785301767     0.047125283852    15.994914619570
         N            0.739309494470     0.455219698233    -0.077795716148    14.003074004430
         C           -0.616860505530     0.029511998233    -0.048945916148    12.000000000000
         C            0.974752494470     1.898658698233    -0.104897716148    12.000000000000
         C            1.745733494470    -0.492298301767     0.020390283852    12.000000000000
         C           -1.252188505530    -1.169000301767    -0.122562716148    12.000000000000
         C           -2.642659505530    -0.855836301767    -0.019219716148    12.000000000000
         C            3.172635494470     0.014877698233     0.082139283852    12.000000000000
         C           -2.743459505530     0.497192698233     0.107384283852    12.000000000000
         H            0.344986494470     2.352162698233    -0.871103716148     1.007825032230
         H            2.015290494470     2.091495698233    -0.350049716148     1.007825032230
         H            0.736349494470     2.357455698233     0.859136283852     1.007825032230
         H           -0.790767505530    -2.135129301767    -0.231467716148     1.007825032230
         H           -3.466104505530    -1.556938301767    -0.039216716148     1.007825032230
         H            3.328510494470     0.711422698233     0.910174283852     1.007825032230
         H            3.465704494470     0.513550698233    -0.846412716148     1.007825032230
         H            3.805864494470    -0.860152301767     0.224901283852     1.007825032230
         H           -3.562362505530     1.192743698233     0.207945283852     1.007825032230

  Basis Set: AUG-CC-PVTZ
    Blend: AUG-CC-PVTZ
  Basis Set: (AUG-CC-PVTZ AUX)
    Blend: AUG-CC-PVTZ-JKFIT
	 Reference Energy          =    -474.6347082116828915 [Eh]
	 Singles Energy            =      -0.0000000000000000 [Eh]
	 Same-Spin Energy          =      -0.4914765537613228 [Eh]
	 Opposite-Spin Energy      =      -1.5276659699043327 [Eh]
	 Correlation Energy        =      -2.0191425236656553 [Eh]
	 Total Energy              =    -476.6538507353485556 [Eh]

	 ================> DF-SCS-MP2 Energies <==================
	-----------------------------------------------------------
	 SCS Same-Spin Scale       =       0.3333333333333333 [-]
	 SCS Opposite-Spin Scale   =       1.2000000000000000 [-]
	 SCS Same-Spin Energy      =      -0.1638255179204409 [Eh]
	 SCS Opposite-Spin Energy  =      -1.8331991638851992 [Eh]
	 SCS Correlation Energy    =      -1.9970246818056401 [Eh]
	 SCS Total Energy          =    -476.6317328934885040 [Eh]
	-----------------------------------------------------------

  Dipole Moment: [D]
     X:     0.5213      Y:     3.2544      Z:    -0.1307     Total:     3.2985

*** Psi4 exiting successfully. Buy a developer a beer!
