                               Psi4 1.3.2 release

  ==> Input File <==

--------------------------------------------------------------------------
#psi4
#
memory 32 gb

molecule  {
0 1
  O       -1.5316190     1.0321650     0.0948010
  O        1.4540340    -1.7305240     0.0480640
  N        0.7120508     0.3767444    -0.0815983
  C       -0.6387160     0.0037620    -0.0484130
  C        0.9338190     1.8669200    -0.1039590
  C        1.7048000    -0.5240370     0.0213290
  C       -1.2931220    -1.2007390    -0.1216240
  C       -2.6835930    -0.8875750    -0.0182810
  C        3.1317020    -0.0168610     0.0830780
  C       -2.7843930     0.4654540     0.1083230
  H        0.3040530     2.3204240    -0.8701650
  H        1.9743570     2.0597570    -0.3491110
  H        0.6954160     2.3257170     0.8600750
  H       -0.8317010    -2.1668680    -0.2305290
  H       -3.5070380    -1.5886770    -0.0382780
  H        3.2875770     0.6796840     0.9111130
  H        3.4247710     0.4818120    -0.8454740
  H        3.7649310    -0.8918910     0.2258400
  H       -3.6032960     1.1610050     0.2088840
units angstrom
no_reorient  #important for SAPT in psi4, default
symmetry c1  #important for SAPT in psi4, default
}

set PROPERTIES_ORIGIN ["COM"]
properties('MP2/aug-cc-pvtz', properties = ['dipole'])
--------------------------------------------------------------------------

    Molecular point group: c1
  Charge       = 0
  Multiplicity = 1
  Basis Set: AUG-CC-PVTZ
    Blend: AUG-CC-PVTZ
  Basis Set: (AUG-CC-PVTZ AUX)
    Blend: AUG-CC-PVTZ-JKFIT

    Orbital Energies [Eh]
    ---------------------

    Doubly Occupied:

       1A    -20.627406     2A    -20.519401     3A    -15.619007
       4A    -11.357975     5A    -11.332963     6A    -11.284072
       7A    -11.282147     8A    -11.245085     9A    -11.230030
      10A    -11.215861    11A     -1.463418    12A     -1.384173
      13A     -1.260406    14A     -1.080947    15A     -1.032329
      16A     -0.986705    17A     -0.961822    18A     -0.839716
      19A     -0.798648    20A     -0.751549    21A     -0.697401
      22A     -0.678015    23A     -0.672453    24A     -0.650523
      25A     -0.623727    26A     -0.594659    27A     -0.590828
      28A     -0.583535    29A     -0.565672    30A     -0.561829
      31A     -0.550559    32A     -0.537378    33A     -0.530013
      34A     -0.432882    35A     -0.427618    36A     -0.392597
      37A     -0.289501

  @DF-RHF Final Energy:  -474.63269116396219

   => Energetics <=

    Nuclear Repulsion Energy =            528.2297660263739090
    One-Electron Energy =               -1694.4192142531412628
    Two-Electron Energy =                 691.5567570628052181
    Total Energy =                       -474.6326911639621358
  Basis Set: (AUG-CC-PVTZ AUX)
    Blend: AUG-CC-PVTZ-RI
    Molecular point group: c1

    Geometry (in Angstrom), charge = 0, multiplicity = 1:

       Center              X                  Y                   Z               Mass
    ------------   -----------------  -----------------  -----------------  -----------------
         O           -1.493708770116     1.068093096507     0.094374729336    15.994914619570
         O            1.491944229884    -1.694595903493     0.047637729336    15.994914619570
         N            0.749961029884     0.412672496507    -0.082024570664    14.003074004430
         C           -0.600805770116     0.039690096507    -0.048839270664    12.000000000000
         C            0.971729229884     1.902848096507    -0.104385270664    12.000000000000
         C            1.742710229884    -0.488108903493     0.020902729336    12.000000000000
         C           -1.255211770116    -1.164810903493    -0.122050270664    12.000000000000
         C           -2.645682770116    -0.851646903493    -0.018707270664    12.000000000000
         C            3.169612229884     0.019067096507     0.082651729336    12.000000000000
         C           -2.746482770116     0.501382096507     0.107896729336    12.000000000000
         H            0.341963229884     2.356352096507    -0.870591270664     1.007825032230
         H            2.012267229884     2.095685096507    -0.349537270664     1.007825032230
         H            0.733326229884     2.361645096507     0.859648729336     1.007825032230
         H           -0.793790770116    -2.130939903493    -0.230955270664     1.007825032230
         H           -3.469127770116    -1.552748903493    -0.038704270664     1.007825032230
         H            3.325487229884     0.715612096507     0.910686729336     1.007825032230
         H            3.462681229884     0.517740096507    -0.845900270664     1.007825032230
         H            3.802841229884    -0.855962903493     0.225413729336     1.007825032230
         H           -3.565385770116     1.196933096507     0.208457729336     1.007825032230

  Basis Set: AUG-CC-PVTZ
    Blend: AUG-CC-PVTZ
  Basis Set: (AUG-CC-PVTZ AUX)
    Blend: AUG-CC-PVTZ-JKFIT
	 Reference Energy          =    -474.6326911639621926 [Eh]
	 Singles Energy            =      -0.0000000000000000 [Eh]
	 Same-Spin Energy          =      -0.4915904681672061 [Eh]
	 Opposite-Spin Energy      =      -1.5277582828465128 [Eh]
	 Correlation Energy        =      -2.0193487510137187 [Eh]
	 Total Energy              =    -476.6520399149758873 [Eh]

	 ================> DF-SCS-MP2 Energies <==================
	-----------------------------------------------------------
	 SCS Same-Spin Scale       =       0.3333333333333333 [-]
	 SCS Opposite-Spin Scale   =       1.2000000000000000 [-]
	 SCS Same-Spin Energy      =      -0.1638634893890687 [Eh]
	 SCS Opposite-Spin Energy  =      -1.8333099394158152 [Eh]
	 SCS Correlation Energy    =      -1.9971734288048839 [Eh]
	 SCS Total Energy          =    -476.6298645927670918 [Eh]
	-----------------------------------------------------------

  Dipole Moment: [D]
     X:     0.4512      Y:     3.4970      Z:    -0.1308     Total:     3.5284

*** Psi4 exiting successfully. Buy a developer a beer!
