                               Psi4 1.3.2 release

  ==> Input File <==

--------------------------------------------------------------------------
#psi4
#
memory 32 gb

molecule  {
0 1
  O       -1.5316190     1.0321650     0.0948010
  O        1.4540340    -1.7305240     0.0480640
  N        0.6983760     0.4234810    -0.0768570
  C       -0.5562907    -0.0442968    -0.0571975
  C        0.9338190     1.8669200    -0.1039590
  C        1.7048000    -0.5240370     0.0213290
  C       -1.2931220    -1.2007390    -0.1216240
  C       -2.6835930    -0.8875750    -0.0182810
  C        3.1317020    -0.0168610     0.0830780
  C       -2.7843930     0.4654540     0.1083230
  H        0.3040530     2.3204240    -0.8701650
  H        1.9743570     2.0597570    -0.3491110
  H        0.6954160     2.3257170     0.8600750
  H       -0.8317010    -2.1668680    -0.2305290
  H       -3.5070380    -1.5886770    -0.0382780
  H        3.2875770     0.6796840     0.9111130
  H        3.4247710     0.4818120    -0.8454740
  H        3.7649310    -0.8918910     0.2258400
  H       -3.6032960     1.1610050     0.2088840
units angstrom
no_reorient  #important for SAPT in psi4, default
symmetry c1  #important for SAPT in psi4, default
}

set PROPERTIES_ORIGIN ["COM"]
properties('MP2/aug-cc-pvtz', properties = ['dipole'])
--------------------------------------------------------------------------

    Molecular point group: c1
  Charge       = 0
  Multiplicity = 1
  Basis Set: AUG-CC-PVTZ
    Blend: AUG-CC-PVTZ
  Basis Set: (AUG-CC-PVTZ AUX)
    Blend: AUG-CC-PVTZ-JKFIT

    Orbital Energies [Eh]
    ---------------------

    Doubly Occupied:

       1A    -20.608351     2A    -20.534266     3A    -15.622776
       4A    -11.369182     5A    -11.332590     6A    -11.283951
       7A    -11.280061     8A    -11.249306     9A    -11.224689
      10A    -11.217491    11A     -1.428028    12A     -1.390824
      13A     -1.280018    14A     -1.073069    15A     -1.035793
      16A     -0.993509    17A     -0.955520    18A     -0.847070
      19A     -0.786650    20A     -0.737863    21A     -0.706320
      22A     -0.684219    23A     -0.674706    24A     -0.647784
      25A     -0.610431    26A     -0.593956    27A     -0.593136
      28A     -0.589365    29A     -0.570736    30A     -0.554346
      31A     -0.548007    32A     -0.533695    33A     -0.527423
      34A     -0.445848    35A     -0.436882    36A     -0.386819
      37A     -0.282213

  @DF-RHF Final Energy:  -474.62098065836199

   => Energetics <=

    Nuclear Repulsion Energy =            527.8433316791731613
    One-Electron Energy =               -1693.6548452026424911
    Two-Electron Energy =                 691.1905328651073432
    Total Energy =                       -474.6209806583619866
  Basis Set: (AUG-CC-PVTZ AUX)
    Blend: AUG-CC-PVTZ-RI
    Molecular point group: c1

    Geometry (in Angstrom), charge = 0, multiplicity = 1:

       Center              X                  Y                   Z               Mass
    ------------   -----------------  -----------------  -----------------  -----------------
         O           -1.499444389794     1.067533995346     0.094655329734    15.994914619570
         O            1.486208610206    -1.695155004654     0.047918329734    15.994914619570
         N            0.730550610206     0.458849995346    -0.077002670266    14.003074004430
         C           -0.524116089794    -0.008927804654    -0.057343170266    12.000000000000
         C            0.965993610206     1.902288995346    -0.104104670266    12.000000000000
         C            1.736974610206    -0.488668004654     0.021183329734    12.000000000000
         C           -1.260947389794    -1.165370004654    -0.121769670266    12.000000000000
         C           -2.651418389794    -0.852206004654    -0.018426670266    12.000000000000
         C            3.163876610206     0.018507995346     0.082932329734    12.000000000000
         C           -2.752218389794     0.500822995346     0.108177329734    12.000000000000
         H            0.336227610206     2.355792995346    -0.870310670266     1.007825032230
         H            2.006531610206     2.095125995346    -0.349256670266     1.007825032230
         H            0.727590610206     2.361085995346     0.859929329734     1.007825032230
         H           -0.799526389794    -2.131499004654    -0.230674670266     1.007825032230
         H           -3.474863389794    -1.553308004654    -0.038423670266     1.007825032230
         H            3.319751610206     0.715052995346     0.910967329734     1.007825032230
         H            3.456945610206     0.517180995346    -0.845619670266     1.007825032230
         H            3.797105610206    -0.856522004654     0.225694329734     1.007825032230
         H           -3.571121389794     1.196373995346     0.208738329734     1.007825032230

  Basis Set: AUG-CC-PVTZ
    Blend: AUG-CC-PVTZ
  Basis Set: (AUG-CC-PVTZ AUX)
    Blend: AUG-CC-PVTZ-JKFIT
	 Reference Energy          =    -474.6209806583619866 [Eh]
	 Singles Energy            =      -0.0000000000000000 [Eh]
	 Same-Spin Energy          =      -0.4930839302899251 [Eh]
	 Opposite-Spin Energy      =      -1.5310854737010846 [Eh]
	 Correlation Energy        =      -2.0241694039910096 [Eh]
	 Total Energy              =    -476.6451500623529682 [Eh]

	 ================> DF-SCS-MP2 Energies <==================
	-----------------------------------------------------------
	 SCS Same-Spin Scale       =       0.3333333333333333 [-]
	 SCS Opposite-Spin Scale   =       1.2000000000000000 [-]
	 SCS Same-Spin Energy      =      -0.1643613100966417 [Eh]
	 SCS Opposite-Spin Energy  =      -1.8373025684413014 [Eh]
	 SCS Correlation Energy    =      -2.0016638785379430 [Eh]
	 SCS Total Energy          =    -476.6226445368999407 [Eh]
	-----------------------------------------------------------

  Dipole Moment: [D]
     X:     1.0603      Y:     3.2766      Z:    -0.1515     Total:     3.4473

*** Psi4 exiting successfully. Buy a developer a beer!
