                               Psi4 1.3.2 release

  ==> Input File <==

--------------------------------------------------------------------------
#psi4
#
memory 32 gb

molecule  {
0 1
  O       -1.5316190     1.0321650     0.0948010
  O        1.4540340    -1.7305240     0.0480640
  N        0.6983760     0.4234810    -0.0768570
  C       -0.5970705    -0.0195629    -0.0525943
  C        0.9338190     1.8669200    -0.1039590
  C        1.7048000    -0.5240370     0.0213290
  C       -1.2931220    -1.2007390    -0.1216240
  C       -2.6835930    -0.8875750    -0.0182810
  C        3.1317020    -0.0168610     0.0830780
  C       -2.7843930     0.4654540     0.1083230
  H        0.3040530     2.3204240    -0.8701650
  H        1.9743570     2.0597570    -0.3491110
  H        0.6954160     2.3257170     0.8600750
  H       -0.8317010    -2.1668680    -0.2305290
  H       -3.5070380    -1.5886770    -0.0382780
  H        3.2875770     0.6796840     0.9111130
  H        3.4247710     0.4818120    -0.8454740
  H        3.7649310    -0.8918910     0.2258400
  H       -3.6032960     1.1610050     0.2088840
units angstrom
no_reorient  #important for SAPT in psi4, default
symmetry c1  #important for SAPT in psi4, default
}

set PROPERTIES_ORIGIN ["COM"]
properties('MP2/aug-cc-pvtz', properties = ['dipole'])
--------------------------------------------------------------------------

    Molecular point group: c1
  Charge       = 0
  Multiplicity = 1
  Basis Set: AUG-CC-PVTZ
    Blend: AUG-CC-PVTZ
  Basis Set: (AUG-CC-PVTZ AUX)
    Blend: AUG-CC-PVTZ-JKFIT

    Orbital Energies [Eh]
    ---------------------

    Doubly Occupied:

       1A    -20.616724     2A    -20.531343     3A    -15.620126
       4A    -11.367349     5A    -11.332134     6A    -11.281448
       7A    -11.280349     8A    -11.248045     9A    -11.226973
      10A    -11.216417    11A     -1.443537    12A     -1.388199
      13A     -1.271365    14A     -1.076286    15A     -1.033843
      16A     -0.991656    17A     -0.955518    18A     -0.841443
      19A     -0.790707    20A     -0.744070    21A     -0.704460
      22A     -0.681848    23A     -0.673074    24A     -0.648570
      25A     -0.616198    26A     -0.593557    27A     -0.590898
      28A     -0.589347    29A     -0.568592    30A     -0.557765
      31A     -0.548255    32A     -0.537755    33A     -0.529920
      34A     -0.440143    35A     -0.434332    36A     -0.389246
      37A     -0.284910

  @DF-RHF Final Energy:  -474.63005333483153

   => Energetics <=

    Nuclear Repulsion Energy =            527.8993531375024304
    One-Electron Energy =               -1693.7660077140540125
    Two-Electron Energy =                 691.2366012417199954
    Total Energy =                       -474.6300533348315867
  Basis Set: (AUG-CC-PVTZ AUX)
    Blend: AUG-CC-PVTZ-RI
    Molecular point group: c1

    Geometry (in Angstrom), charge = 0, multiplicity = 1:

       Center              X                  Y                   Z               Mass
    ------------   -----------------  -----------------  -----------------  -----------------
         O           -1.495925434760     1.065399667028     0.094258112145    15.994914619570
         O            1.489727565240    -1.697289332972     0.047521112145    15.994914619570
         N            0.734069565240     0.456715667028    -0.077399887855    14.003074004430
         C           -0.561376934760     0.013671767028    -0.053137187855    12.000000000000
         C            0.969512565240     1.900154667028    -0.104501887855    12.000000000000
         C            1.740493565240    -0.490802332972     0.020786112145    12.000000000000
         C           -1.257428434760    -1.167504332972    -0.122166887855    12.000000000000
         C           -2.647899434760    -0.854340332972    -0.018823887855    12.000000000000
         C            3.167395565240     0.016373667028     0.082535112145    12.000000000000
         C           -2.748699434760     0.498688667028     0.107780112145    12.000000000000
         H            0.339746565240     2.353658667028    -0.870707887855     1.007825032230
         H            2.010050565240     2.092991667028    -0.349653887855     1.007825032230
         H            0.731109565240     2.358951667028     0.859532112145     1.007825032230
         H           -0.796007434760    -2.133633332972    -0.231071887855     1.007825032230
         H           -3.471344434760    -1.555442332972    -0.038820887855     1.007825032230
         H            3.323270565240     0.712918667028     0.910570112145     1.007825032230
         H            3.460464565240     0.515046667028    -0.846016887855     1.007825032230
         H            3.800624565240    -0.858656332972     0.225297112145     1.007825032230
         H           -3.567602434760     1.194239667028     0.208341112145     1.007825032230

  Basis Set: AUG-CC-PVTZ
    Blend: AUG-CC-PVTZ
  Basis Set: (AUG-CC-PVTZ AUX)
    Blend: AUG-CC-PVTZ-JKFIT
	 Reference Energy          =    -474.6300533348315298 [Eh]
	 Singles Energy            =      -0.0000000000000000 [Eh]
	 Same-Spin Energy          =      -0.4924025921895100 [Eh]
	 Opposite-Spin Energy      =      -1.5295119988930534 [Eh]
	 Correlation Energy        =      -2.0219145910825636 [Eh]
	 Total Energy              =    -476.6519679259141071 [Eh]

	 ================> DF-SCS-MP2 Energies <==================
	-----------------------------------------------------------
	 SCS Same-Spin Scale       =       0.3333333333333333 [-]
	 SCS Opposite-Spin Scale   =       1.2000000000000000 [-]
	 SCS Same-Spin Energy      =      -0.1641341973965033 [Eh]
	 SCS Opposite-Spin Energy  =      -1.8354143986716640 [Eh]
	 SCS Correlation Energy    =      -1.9995485960681674 [Eh]
	 SCS Total Energy          =    -476.6296019308996961 [Eh]
	-----------------------------------------------------------

  Dipole Moment: [D]
     X:     0.8458      Y:     3.2798      Z:    -0.1411     Total:     3.3901

*** Psi4 exiting successfully. Buy a developer a beer!
