                               Psi4 1.4a3.dev225

  ==> Input File <==

--------------------------------------------------------------------------
#psi4
#
memory 32 gb

molecule  {
0 1
  O       -1.5316190     1.0321650     0.0948010
  O        1.4540340    -1.7305240     0.0480640
  N        0.6983760     0.4234810    -0.0768570
  C       -0.6196380     0.0097507    -0.0488188
  C        0.9338190     1.8669200    -0.1039590
  C        1.7048000    -0.5240370     0.0213290
  C       -1.2931220    -1.2007390    -0.1216240
  C       -2.6835930    -0.8875750    -0.0182810
  C        3.1317020    -0.0168610     0.0830780
  C       -2.7843930     0.4654540     0.1083230
  H        0.3040530     2.3204240    -0.8701650
  H        1.9743570     2.0597570    -0.3491110
  H        0.6954160     2.3257170     0.8600750
  H       -0.8317010    -2.1668680    -0.2305290
  H       -3.5070380    -1.5886770    -0.0382780
  H        3.2875770     0.6796840     0.9111130
  H        3.4247710     0.4818120    -0.8454740
  H        3.7649310    -0.8918910     0.2258400
  H       -3.6032960     1.1610050     0.2088840
units angstrom
no_reorient  #important for SAPT in psi4, default
symmetry c1  #important for SAPT in psi4, default
}

set PROPERTIES_ORIGIN ["COM"]
properties('MP2/aug-cc-pvtz', properties = ['dipole'])
--------------------------------------------------------------------------

    Molecular point group: c1
  Charge       = 0
  Multiplicity = 1
  Basis Set: AUG-CC-PVTZ
    Blend: AUG-CC-PVTZ
  Basis Set: (AUG-CC-PVTZ AUX)
    Blend: AUG-CC-PVTZ-JKFIT

    Orbital Energies [Eh]
    ---------------------

    Doubly Occupied:

       1A    -20.623155     2A    -20.530200     3A    -15.619099
       4A    -11.366985     5A    -11.333373     6A    -11.280408
       7A    -11.279442     8A    -11.247801     9A    -11.228310
      10A    -11.216037    11A     -1.457982    12A     -1.386874
      13A     -1.268391    14A     -1.076233    15A     -1.033652
      16A     -0.991137    17A     -0.955557    18A     -0.839389
      19A     -0.793637    20A     -0.748491    21A     -0.703890
      22A     -0.681207    23A     -0.674156    24A     -0.650296
      25A     -0.621324    26A     -0.593842    27A     -0.591175
      28A     -0.589442    29A     -0.567589    30A     -0.559059
      31A     -0.550170    32A     -0.538693    33A     -0.528575
      34A     -0.437165    35A     -0.433200    36A     -0.390089
      37A     -0.283987

  @DF-RHF Final Energy:  -474.63290581598915

   => Energetics <=

    Nuclear Repulsion Energy =            528.0072221321826191
    One-Electron Energy =               -1693.9402321813968229
    Two-Electron Energy =                 691.3001042332251700
    Total Energy =                       -474.6329058159891474
  Basis Set: (AUG-CC-PVTZ AUX)
    Blend: AUG-CC-PVTZ-RI
    Molecular point group: c1

    Geometry (in Angstrom), charge = 0, multiplicity = 1:

       Center              X                  Y                   Z               Mass
    ------------   -----------------  -----------------  -----------------  -----------------
         O           -1.493978048610     1.062870148976     0.093932318131    15.994914619570
         O            1.491674951390    -1.699818851024     0.047195318131    15.994914619570
         N            0.736016951390     0.454186148976    -0.077725681869    14.003074004430
         C           -0.581997048610     0.040455848976    -0.049687481869    12.000000000000
         C            0.971459951390     1.897625148976    -0.104827681869    12.000000000000
         C            1.742440951390    -0.493331851024     0.020460318131    12.000000000000
         C           -1.255481048610    -1.170033851024    -0.122492681869    12.000000000000
         C           -2.645952048610    -0.856869851024    -0.019149681869    12.000000000000
         C            3.169342951390     0.013844148976     0.082209318131    12.000000000000
         C           -2.746752048610     0.496159148976     0.107454318131    12.000000000000
         H            0.341693951390     2.351129148976    -0.871033681869     1.007825032230
         H            2.011997951390     2.090462148976    -0.349979681869     1.007825032230
         H            0.733056951390     2.356422148976     0.859206318131     1.007825032230
         H           -0.794060048610    -2.136162851024    -0.231397681869     1.007825032230
         H           -3.469397048610    -1.557971851024    -0.039146681869     1.007825032230
         H            3.325217951390     0.710389148976     0.910244318131     1.007825032230
         H            3.462411951390     0.512517148976    -0.846342681869     1.007825032230
         H            3.802571951390    -0.861185851024     0.224971318131     1.007825032230
         H           -3.565655048610     1.191710148976     0.208015318131     1.007825032230

  Basis Set: AUG-CC-PVTZ
    Blend: AUG-CC-PVTZ
  Basis Set: (AUG-CC-PVTZ AUX)
    Blend: AUG-CC-PVTZ-JKFIT
	 Reference Energy          =    -474.6329058159891474 [Eh]
	 Singles Energy            =      -0.0000000000000000 [Eh]
	 Same-Spin Energy          =      -0.4923020423924280 [Eh]
	 Opposite-Spin Energy      =      -1.5287647034200904 [Eh]
	 Correlation Energy        =      -2.0210667458125182 [Eh]
	 Total Energy              =    -476.6539725618016519 [Eh]

	 ================> DF-SCS-MP2 Energies <==================
	-----------------------------------------------------------
	 SCS Same-Spin Scale       =       0.3333333333333333 [-]
	 SCS Opposite-Spin Scale   =       1.2000000000000000 [-]
	 SCS Same-Spin Energy      =      -0.1641006807974760 [Eh]
	 SCS Opposite-Spin Energy  =      -1.8345176441041084 [Eh]
	 SCS Correlation Energy    =      -1.9986183249015845 [Eh]
	 SCS Total Energy          =    -476.6315241408907468 [Eh]
	-----------------------------------------------------------

  Dipole Moment: [D]
     X:     0.7453      Y:     3.3146      Z:    -0.1305     Total:     3.3998

*** Psi4 exiting successfully. Buy a developer a beer!
