                               Psi4 1.3.2 release

  ==> Input File <==

--------------------------------------------------------------------------
#psi4
#
memory 32 gb

molecule  {
0 1
  O       -1.5316190     1.0321650     0.0948010
  O        1.4540340    -1.7305240     0.0480640
  N        0.6983760     0.4234810    -0.0768570
  C       -0.6061251    -0.0880514    -0.0394470
  C        0.9338190     1.8669200    -0.1039590
  C        1.7048000    -0.5240370     0.0213290
  C       -1.2931220    -1.2007390    -0.1216240
  C       -2.6835930    -0.8875750    -0.0182810
  C        3.1317020    -0.0168610     0.0830780
  C       -2.7843930     0.4654540     0.1083230
  H        0.3040530     2.3204240    -0.8701650
  H        1.9743570     2.0597570    -0.3491110
  H        0.6954160     2.3257170     0.8600750
  H       -0.8317010    -2.1668680    -0.2305290
  H       -3.5070380    -1.5886770    -0.0382780
  H        3.2875770     0.6796840     0.9111130
  H        3.4247710     0.4818120    -0.8454740
  H        3.7649310    -0.8918910     0.2258400
  H       -3.6032960     1.1610050     0.2088840
units angstrom
no_reorient  #important for SAPT in psi4, default
symmetry c1  #important for SAPT in psi4, default
}

set PROPERTIES_ORIGIN ["COM"]
properties('MP2/aug-cc-pvtz', properties = ['dipole'])
--------------------------------------------------------------------------

    Molecular point group: c1
  Charge       = 0
  Multiplicity = 1
  Basis Set: AUG-CC-PVTZ
    Blend: AUG-CC-PVTZ
  Basis Set: (AUG-CC-PVTZ AUX)
    Blend: AUG-CC-PVTZ-JKFIT

    Orbital Energies [Eh]
    ---------------------

    Doubly Occupied:

       1A    -20.609677     2A    -20.529193     3A    -15.618096
       4A    -11.364622     5A    -11.327862     6A    -11.284179
       7A    -11.279891     8A    -11.246049     9A    -11.227037
      10A    -11.214768    11A     -1.429406    12A     -1.385683
      13A     -1.261508    14A     -1.088398    15A     -1.029627
      16A     -0.990939    17A     -0.955385    18A     -0.834989
      19A     -0.790831    20A     -0.742272    21A     -0.702726
      22A     -0.679963    23A     -0.667557    24A     -0.642792
      25A     -0.611458    26A     -0.591068    27A     -0.587261
      28A     -0.585829    29A     -0.571814    30A     -0.558291
      31A     -0.550325    32A     -0.534960    33A     -0.528486
      34A     -0.439397    35A     -0.432195    36A     -0.392621
      37A     -0.295636

  @DF-RHF Final Energy:  -474.62353874170697

   => Energetics <=

    Nuclear Repulsion Energy =            527.6740428399932625
    One-Electron Energy =               -1693.4295820243689832
    Two-Electron Energy =                 691.1320004426687547
    Total Energy =                       -474.6235387417069660
  Basis Set: (AUG-CC-PVTZ AUX)
    Blend: AUG-CC-PVTZ-RI
    Molecular point group: c1

    Geometry (in Angstrom), charge = 0, multiplicity = 1:

       Center              X                  Y                   Z               Mass
    ------------   -----------------  -----------------  -----------------  -----------------
         O           -1.495144098651     1.071309650693     0.093123610320    15.994914619570
         O            1.490508901349    -1.691379349307     0.046386610320    15.994914619570
         N            0.734850901349     0.462625650693    -0.078534389680    14.003074004430
         C           -0.569650198651    -0.048906749307    -0.041124389680    12.000000000000
         C            0.970293901349     1.906064650693    -0.105636389680    12.000000000000
         C            1.741274901349    -0.484892349307     0.019651610320    12.000000000000
         C           -1.256647098651    -1.161594349307    -0.123301389680    12.000000000000
         C           -2.647118098651    -0.848430349307    -0.019958389680    12.000000000000
         C            3.168176901349     0.022283650693     0.081400610320    12.000000000000
         C           -2.747918098651     0.504598650693     0.106645610320    12.000000000000
         H            0.340527901349     2.359568650693    -0.871842389680     1.007825032230
         H            2.010831901349     2.098901650693    -0.350788389680     1.007825032230
         H            0.731890901349     2.364861650693     0.858397610320     1.007825032230
         H           -0.795226098651    -2.127723349307    -0.232206389680     1.007825032230
         H           -3.470563098651    -1.549532349307    -0.039955389680     1.007825032230
         H            3.324051901349     0.718828650693     0.909435610320     1.007825032230
         H            3.461245901349     0.520956650693    -0.847151389680     1.007825032230
         H            3.801405901349    -0.852746349307     0.224162610320     1.007825032230
         H           -3.566821098651     1.200149650693     0.207206610320     1.007825032230

  Basis Set: AUG-CC-PVTZ
    Blend: AUG-CC-PVTZ
  Basis Set: (AUG-CC-PVTZ AUX)
    Blend: AUG-CC-PVTZ-JKFIT
	 Reference Energy          =    -474.6235387417069660 [Eh]
	 Singles Energy            =      -0.0000000000000000 [Eh]
	 Same-Spin Energy          =      -0.4914932566181540 [Eh]
	 Opposite-Spin Energy      =      -1.5293519818003007 [Eh]
	 Correlation Energy        =      -2.0208452384184548 [Eh]
	 Total Energy              =    -476.6443839801254398 [Eh]

	 ================> DF-SCS-MP2 Energies <==================
	-----------------------------------------------------------
	 SCS Same-Spin Scale       =       0.3333333333333333 [-]
	 SCS Opposite-Spin Scale   =       1.2000000000000000 [-]
	 SCS Same-Spin Energy      =      -0.1638310855393847 [Eh]
	 SCS Opposite-Spin Energy  =      -1.8352223781603607 [Eh]
	 SCS Correlation Energy    =      -1.9990534636997455 [Eh]
	 SCS Total Energy          =    -476.6225922054067041 [Eh]
	-----------------------------------------------------------

  Dipole Moment: [D]
     X:     0.7343      Y:     3.1347      Z:    -0.1562     Total:     3.2234

*** Psi4 exiting successfully. Buy a developer a beer!
