                               Psi4 1.3.2 release

  ==> Input File <==

--------------------------------------------------------------------------
#psi4
#
memory 32 gb

molecule  {
0 1
  O       -1.5672308     1.0003023     0.0935953
  O        1.4540340    -1.7305240     0.0480640
  N        0.6983760     0.4234810    -0.0768570
  C       -0.6387160     0.0037620    -0.0484130
  C        0.9338190     1.8669200    -0.1039590
  C        1.7048000    -0.5240370     0.0213290
  C       -1.2931220    -1.2007390    -0.1216240
  C       -2.6835930    -0.8875750    -0.0182810
  C        3.1317020    -0.0168610     0.0830780
  C       -2.7843930     0.4654540     0.1083230
  H        0.3040530     2.3204240    -0.8701650
  H        1.9743570     2.0597570    -0.3491110
  H        0.6954160     2.3257170     0.8600750
  H       -0.8317010    -2.1668680    -0.2305290
  H       -3.5070380    -1.5886770    -0.0382780
  H        3.2875770     0.6796840     0.9111130
  H        3.4247710     0.4818120    -0.8454740
  H        3.7649310    -0.8918910     0.2258400
  H       -3.6032960     1.1610050     0.2088840
units angstrom
no_reorient  #important for SAPT in psi4, default
symmetry c1  #important for SAPT in psi4, default
}

set PROPERTIES_ORIGIN ["COM"]
properties('MP2/aug-cc-pvtz', properties = ['dipole'])
--------------------------------------------------------------------------

    Molecular point group: c1
  Charge       = 0
  Multiplicity = 1
  Basis Set: AUG-CC-PVTZ
    Blend: AUG-CC-PVTZ
  Basis Set: (AUG-CC-PVTZ AUX)
    Blend: AUG-CC-PVTZ-JKFIT

    Orbital Energies [Eh]
    ---------------------

    Doubly Occupied:

       1A    -20.625674     2A    -20.528611     3A    -15.618569
       4A    -11.366093     5A    -11.330544     6A    -11.280307
       7A    -11.277908     8A    -11.247278     9A    -11.223423
      10A    -11.215309    11A     -1.476530    12A     -1.385553
      13A     -1.264620    14A     -1.076707    15A     -1.034167
      16A     -0.993393    17A     -0.958572    18A     -0.835713
      19A     -0.799072    20A     -0.751595    21A     -0.705154
      22A     -0.680909    23A     -0.675156    24A     -0.656042
      25A     -0.628841    26A     -0.594206    27A     -0.590787
      28A     -0.588287    29A     -0.565878    30A     -0.562776
      31A     -0.549908    32A     -0.536019    33A     -0.527706
      34A     -0.436046    35A     -0.431905    36A     -0.386963
      37A     -0.286931

  @DF-RHF Final Energy:  -474.63434857396584

   => Energetics <=

    Nuclear Repulsion Energy =            528.5928886782347718
    One-Electron Energy =               -1695.0681664850719699
    Two-Electron Energy =                 691.8409292328715310
    Total Energy =                       -474.6343485739657808
  Basis Set: (AUG-CC-PVTZ AUX)
    Blend: AUG-CC-PVTZ-RI
    Molecular point group: c1

    Geometry (in Angstrom), charge = 0, multiplicity = 1:

       Center              X                  Y                   Z               Mass
    ------------   -----------------  -----------------  -----------------  -----------------
         O           -1.523847546100     1.035189037121     0.092830279310    15.994914619570
         O            1.497417253900    -1.695637262879     0.047298979310    15.994914619570
         N            0.741759253900     0.458367737121    -0.077622020690    14.003074004430
         C           -0.595332746100     0.038648737121    -0.049178020690    12.000000000000
         C            0.977202253900     1.901806737121    -0.104724020690    12.000000000000
         C            1.748183253900    -0.489150262879     0.020563979310    12.000000000000
         C           -1.249738746100    -1.165852262879    -0.122389020690    12.000000000000
         C           -2.640209746100    -0.852688262879    -0.019046020690    12.000000000000
         C            3.175085253900     0.018025737121     0.082312979310    12.000000000000
         C           -2.741009746100     0.500340737121     0.107557979310    12.000000000000
         H            0.347436253900     2.355310737121    -0.870930020690     1.007825032230
         H            2.017740253900     2.094643737121    -0.349876020690     1.007825032230
         H            0.738799253900     2.360603737121     0.859309979310     1.007825032230
         H           -0.788317746100    -2.131981262879    -0.231294020690     1.007825032230
         H           -3.463654746100    -1.553790262879    -0.039043020690     1.007825032230
         H            3.330960253900     0.714570737121     0.910347979310     1.007825032230
         H            3.468154253900     0.516698737121    -0.846239020690     1.007825032230
         H            3.808314253900    -0.857004262879     0.225074979310     1.007825032230
         H           -3.559912746100     1.195891737121     0.208118979310     1.007825032230

  Basis Set: AUG-CC-PVTZ
    Blend: AUG-CC-PVTZ
  Basis Set: (AUG-CC-PVTZ AUX)
    Blend: AUG-CC-PVTZ-JKFIT
	 Reference Energy          =    -474.6343485739658377 [Eh]
	 Singles Energy            =      -0.0000000000000000 [Eh]
	 Same-Spin Energy          =      -0.4918505455397903 [Eh]
	 Opposite-Spin Energy      =      -1.5269801952533752 [Eh]
	 Correlation Energy        =      -2.0188307407931654 [Eh]
	 Total Energy              =    -476.6531793147590292 [Eh]

	 ================> DF-SCS-MP2 Energies <==================
	-----------------------------------------------------------
	 SCS Same-Spin Scale       =       0.3333333333333333 [-]
	 SCS Opposite-Spin Scale   =       1.2000000000000000 [-]
	 SCS Same-Spin Energy      =      -0.1639501818465968 [Eh]
	 SCS Opposite-Spin Energy  =      -1.8323762343040502 [Eh]
	 SCS Correlation Energy    =      -1.9963264161506469 [Eh]
	 SCS Total Energy          =    -476.6306749901164608 [Eh]
	-----------------------------------------------------------

  Dipole Moment: [D]
     X:     0.7373      Y:     3.4186      Z:    -0.1223     Total:     3.4993

*** Psi4 exiting successfully. Buy a developer a beer!
