                               Psi4 1.3.2 release

  ==> Input File <==

--------------------------------------------------------------------------
#psi4
#
memory 32 gb

molecule  {
0 1
  O       -1.5316190     1.0321650     0.0948010
  O        1.4540340    -1.7305240     0.0480640
  N        0.6983760     0.4234810    -0.0768570
  C       -0.6311812    -0.0195115    -0.0481597
  C        0.9338190     1.8669200    -0.1039590
  C        1.7048000    -0.5240370     0.0213290
  C       -1.2931220    -1.2007390    -0.1216240
  C       -2.6835930    -0.8875750    -0.0182810
  C        3.1317020    -0.0168610     0.0830780
  C       -2.7843930     0.4654540     0.1083230
  H        0.3040530     2.3204240    -0.8701650
  H        1.9743570     2.0597570    -0.3491110
  H        0.6954160     2.3257170     0.8600750
  H       -0.8317010    -2.1668680    -0.2305290
  H       -3.5070380    -1.5886770    -0.0382780
  H        3.2875770     0.6796840     0.9111130
  H        3.4247710     0.4818120    -0.8454740
  H        3.7649310    -0.8918910     0.2258400
  H       -3.6032960     1.1610050     0.2088840
units angstrom
no_reorient  #important for SAPT in psi4, default
symmetry c1  #important for SAPT in psi4, default
}

set PROPERTIES_ORIGIN ["COM"]
properties('MP2/aug-cc-pvtz', properties = ['dipole'])
--------------------------------------------------------------------------

    Molecular point group: c1
  Charge       = 0
  Multiplicity = 1
  Basis Set: AUG-CC-PVTZ
    Blend: AUG-CC-PVTZ
  Basis Set: (AUG-CC-PVTZ AUX)
    Blend: AUG-CC-PVTZ-JKFIT

    Orbital Energies [Eh]
    ---------------------

    Doubly Occupied:

       1A    -20.621104     2A    -20.528543     3A    -15.617409
       4A    -11.365210     5A    -11.331019     6A    -11.281573
       7A    -11.279163     8A    -11.246533     9A    -11.228807
      10A    -11.215392    11A     -1.453218    12A     -1.385053
      13A     -1.262216    14A     -1.082079    15A     -1.031341
      16A     -0.990635    17A     -0.954794    18A     -0.835938
      19A     -0.793593    20A     -0.748595    21A     -0.702762
      22A     -0.679532    23A     -0.671185    24A     -0.647304
      25A     -0.619896    26A     -0.592444    27A     -0.588887
      28A     -0.588080    29A     -0.566701    30A     -0.562476
      31A     -0.548609    32A     -0.542366    33A     -0.527344
      34A     -0.435557    35A     -0.431590    36A     -0.391994
      37A     -0.289839

  @DF-RHF Final Energy:  -474.63353630959057

   => Energetics <=

    Nuclear Repulsion Energy =            527.9012373353335761
    One-Electron Energy =               -1693.7919854881877200
    Two-Electron Energy =                 691.2572118432634625
    Total Energy =                       -474.6335363095905677
  Basis Set: (AUG-CC-PVTZ AUX)
    Blend: AUG-CC-PVTZ-RI
    Molecular point group: c1

    Geometry (in Angstrom), charge = 0, multiplicity = 1:

       Center              X                  Y                   Z               Mass
    ------------   -----------------  -----------------  -----------------  -----------------
         O           -1.492981967173     1.065395231639     0.093875443324    15.994914619570
         O            1.492671032827    -1.697293768361     0.047138443324    15.994914619570
         N            0.737013032827     0.456711231639    -0.077782556676    14.003074004430
         C           -0.592544167173     0.013718731639    -0.049085256676    12.000000000000
         C            0.972456032827     1.900150231639    -0.104884556676    12.000000000000
         C            1.743437032827    -0.490806768361     0.020403443324    12.000000000000
         C           -1.254484967173    -1.167508768361    -0.122549556676    12.000000000000
         C           -2.644955967173    -0.854344768361    -0.019206556676    12.000000000000
         C            3.170339032827     0.016369231639     0.082152443324    12.000000000000
         C           -2.745755967173     0.498684231639     0.107397443324    12.000000000000
         H            0.342690032827     2.353654231639    -0.871090556676     1.007825032230
         H            2.012994032827     2.092987231639    -0.350036556676     1.007825032230
         H            0.734053032827     2.358947231639     0.859149443324     1.007825032230
         H           -0.793063967173    -2.133637768361    -0.231454556676     1.007825032230
         H           -3.468400967173    -1.555446768361    -0.039203556676     1.007825032230
         H            3.326214032827     0.712914231639     0.910187443324     1.007825032230
         H            3.463408032827     0.515042231639    -0.846399556676     1.007825032230
         H            3.803568032827    -0.858660768361     0.224914443324     1.007825032230
         H           -3.564658967173     1.194235231639     0.207958443324     1.007825032230

  Basis Set: AUG-CC-PVTZ
    Blend: AUG-CC-PVTZ
  Basis Set: (AUG-CC-PVTZ AUX)
    Blend: AUG-CC-PVTZ-JKFIT
	 Reference Energy          =    -474.6335363095905677 [Eh]
	 Singles Energy            =      -0.0000000000000000 [Eh]
	 Same-Spin Energy          =      -0.4917180174487605 [Eh]
	 Opposite-Spin Energy      =      -1.5284007021678474 [Eh]
	 Correlation Energy        =      -2.0201187196166077 [Eh]
	 Total Energy              =    -476.6536550292071865 [Eh]

	 ================> DF-SCS-MP2 Energies <==================
	-----------------------------------------------------------
	 SCS Same-Spin Scale       =       0.3333333333333333 [-]
	 SCS Opposite-Spin Scale   =       1.2000000000000000 [-]
	 SCS Same-Spin Energy      =      -0.1639060058162535 [Eh]
	 SCS Opposite-Spin Energy  =      -1.8340808426014168 [Eh]
	 SCS Correlation Energy    =      -1.9979868484176704 [Eh]
	 SCS Total Energy          =    -476.6315231580082354 [Eh]
	-----------------------------------------------------------

  Dipole Moment: [D]
     X:     0.6532      Y:     3.2455      Z:    -0.1377     Total:     3.3134

*** Psi4 exiting successfully. Buy a developer a beer!
