                               Psi4 1.3.2 release

  ==> Input File <==

--------------------------------------------------------------------------
#psi4
#
memory 32 gb

molecule  {
0 1
  O       -1.5316190     1.0321650     0.0948010
  O        1.4540340    -1.7305240     0.0480640
  N        0.6476538     0.5603981    -0.0624485
  C       -0.6387160     0.0037620    -0.0484130
  C        0.9338190     1.8669200    -0.1039590
  C        1.7048000    -0.5240370     0.0213290
  C       -1.2931220    -1.2007390    -0.1216240
  C       -2.6835930    -0.8875750    -0.0182810
  C        3.1317020    -0.0168610     0.0830780
  C       -2.7843930     0.4654540     0.1083230
  H        0.3040530     2.3204240    -0.8701650
  H        1.9743570     2.0597570    -0.3491110
  H        0.6954160     2.3257170     0.8600750
  H       -0.8317010    -2.1668680    -0.2305290
  H       -3.5070380    -1.5886770    -0.0382780
  H        3.2875770     0.6796840     0.9111130
  H        3.4247710     0.4818120    -0.8454740
  H        3.7649310    -0.8918910     0.2258400
  H       -3.6032960     1.1610050     0.2088840
units angstrom
no_reorient  #important for SAPT in psi4, default
symmetry c1  #important for SAPT in psi4, default
}

set PROPERTIES_ORIGIN ["COM"]
properties('MP2/aug-cc-pvtz', properties = ['dipole'])
--------------------------------------------------------------------------

    Molecular point group: c1
  Charge       = 0
  Multiplicity = 1
  Basis Set: AUG-CC-PVTZ
    Blend: AUG-CC-PVTZ
  Basis Set: (AUG-CC-PVTZ AUX)
    Blend: AUG-CC-PVTZ-JKFIT

    Orbital Energies [Eh]
    ---------------------

    Doubly Occupied:

       1A    -20.617509     2A    -20.553379     3A    -15.609938
       4A    -11.385226     5A    -11.333050     6A    -11.276224
       7A    -11.263798     8A    -11.252433     9A    -11.227670
      10A    -11.215512    11A     -1.459374    12A     -1.392289
      13A     -1.273853    14A     -1.078654    15A     -1.032647
      16A     -1.003911    17A     -0.933713    18A     -0.828572
      19A     -0.783612    20A     -0.750022    21A     -0.717496
      22A     -0.688026    23A     -0.676631    24A     -0.645050
      25A     -0.621181    26A     -0.607524    27A     -0.598320
      28A     -0.580240    29A     -0.565333    30A     -0.564619
      31A     -0.551779    32A     -0.538892    33A     -0.522791
      34A     -0.437667    35A     -0.429932    36A     -0.389622
      37A     -0.281710

  @DF-RHF Final Energy:  -474.60223103057018

   => Energetics <=

    Nuclear Repulsion Energy =            527.5560479862951979
    One-Electron Energy =               -1692.9401614215819336
    Two-Electron Energy =                 690.7818824047166117
    Total Energy =                       -474.6022310305701239
  Basis Set: (AUG-CC-PVTZ AUX)
    Blend: AUG-CC-PVTZ-RI
    Molecular point group: c1

    Geometry (in Angstrom), charge = 0, multiplicity = 1:

       Center              X                  Y                   Z               Mass
    ------------   -----------------  -----------------  -----------------  -----------------
         O           -1.487224271534     1.049599965504     0.092446427537    15.994914619570
         O            1.498428728466    -1.713089034496     0.045709427537    15.994914619570
         N            0.692048528466     0.577833065504    -0.064803072463    14.003074004430
         C           -0.594321271534     0.021196965504    -0.050767572463    12.000000000000
         C            0.978213728466     1.884354965504    -0.106313572463    12.000000000000
         C            1.749194728466    -0.506602034496     0.018974427537    12.000000000000
         C           -1.248727271534    -1.183304034496    -0.123978572463    12.000000000000
         C           -2.639198271534    -0.870140034496    -0.020635572463    12.000000000000
         C            3.176096728466     0.000573965504     0.080723427537    12.000000000000
         C           -2.739998271534     0.482888965504     0.105968427537    12.000000000000
         H            0.348447728466     2.337858965504    -0.872519572463     1.007825032230
         H            2.018751728466     2.077191965504    -0.351465572463     1.007825032230
         H            0.739810728466     2.343151965504     0.857720427537     1.007825032230
         H           -0.787306271534    -2.149433034496    -0.232883572463     1.007825032230
         H           -3.462643271534    -1.571242034496    -0.040632572463     1.007825032230
         H            3.331971728466     0.697118965504     0.908758427537     1.007825032230
         H            3.469165728466     0.499246965504    -0.847828572463     1.007825032230
         H            3.809325728466    -0.874456034496     0.223485427537     1.007825032230
         H           -3.558901271534     1.178439965504     0.206529427537     1.007825032230

  Basis Set: AUG-CC-PVTZ
    Blend: AUG-CC-PVTZ
  Basis Set: (AUG-CC-PVTZ AUX)
    Blend: AUG-CC-PVTZ-JKFIT
	 Reference Energy          =    -474.6022310305701808 [Eh]
	 Singles Energy            =      -0.0000000000000000 [Eh]
	 Same-Spin Energy          =      -0.4940435658785730 [Eh]
	 Opposite-Spin Energy      =      -1.5320708358198729 [Eh]
	 Correlation Energy        =      -2.0261144016984458 [Eh]
	 Total Energy              =    -476.6283454322686453 [Eh]

	 ================> DF-SCS-MP2 Energies <==================
	-----------------------------------------------------------
	 SCS Same-Spin Scale       =       0.3333333333333333 [-]
	 SCS Opposite-Spin Scale   =       1.2000000000000000 [-]
	 SCS Same-Spin Energy      =      -0.1646811886261910 [Eh]
	 SCS Opposite-Spin Energy  =      -1.8384850029838473 [Eh]
	 SCS Correlation Energy    =      -2.0031661916100383 [Eh]
	 SCS Total Energy          =    -476.6053972221802155 [Eh]
	-----------------------------------------------------------

  Dipole Moment: [D]
     X:     1.1984      Y:     2.6076      Z:    -0.1381     Total:     2.8732

*** Psi4 exiting successfully. Buy a developer a beer!
