                               Psi4 1.3.2 release

  ==> Input File <==

--------------------------------------------------------------------------
#psi4
#
memory 32 gb

molecule  {
0 1
  O       -1.4184817     1.1201666     0.0965179
  O        1.4540340    -1.7305240     0.0480640
  N        0.6983760     0.4234810    -0.0768570
  C       -0.6387160     0.0037620    -0.0484130
  C        0.9338190     1.8669200    -0.1039590
  C        1.7048000    -0.5240370     0.0213290
  C       -1.2931220    -1.2007390    -0.1216240
  C       -2.6835930    -0.8875750    -0.0182810
  C        3.1317020    -0.0168610     0.0830780
  C       -2.7843930     0.4654540     0.1083230
  H        0.3040530     2.3204240    -0.8701650
  H        1.9743570     2.0597570    -0.3491110
  H        0.6954160     2.3257170     0.8600750
  H       -0.8317010    -2.1668680    -0.2305290
  H       -3.5070380    -1.5886770    -0.0382780
  H        3.2875770     0.6796840     0.9111130
  H        3.4247710     0.4818120    -0.8454740
  H        3.7649310    -0.8918910     0.2258400
  H       -3.6032960     1.1610050     0.2088840
units angstrom
no_reorient  #important for SAPT in psi4, default
symmetry c1  #important for SAPT in psi4, default
}

set PROPERTIES_ORIGIN ["COM"]
properties('MP2/aug-cc-pvtz', properties = ['dipole'])
--------------------------------------------------------------------------

    Molecular point group: c1
  Charge       = 0
  Multiplicity = 1
  Basis Set: AUG-CC-PVTZ
    Blend: AUG-CC-PVTZ
  Basis Set: (AUG-CC-PVTZ AUX)
    Blend: AUG-CC-PVTZ-JKFIT

    Orbital Energies [Eh]
    ---------------------

    Doubly Occupied:

       1A    -20.620963     2A    -20.527652     3A    -15.613399
       4A    -11.363515     5A    -11.338114     6A    -11.289497
       7A    -11.274808     8A    -11.245745     9A    -11.245010
      10A    -11.216308    11A     -1.431144    12A     -1.381738
      13A     -1.255181    14A     -1.092077    15A     -1.026672
      16A     -0.984821    17A     -0.944864    18A     -0.836643
      19A     -0.789808    20A     -0.743955    21A     -0.698303
      22A     -0.677416    23A     -0.668411    24A     -0.633836
      25A     -0.609172    26A     -0.592244    27A     -0.587517
      28A     -0.583824    29A     -0.565949    30A     -0.561989
      31A     -0.550910    32A     -0.540829    33A     -0.524448
      34A     -0.431331    35A     -0.428359    36A     -0.406127
      37A     -0.289066

  @DF-RHF Final Energy:  -474.61312761632388

   => Energetics <=

    Nuclear Repulsion Energy =            526.6269126370281128
    One-Electron Energy =               -1691.3367870392953591
    Two-Electron Energy =                 690.0967467859434237
    Total Energy =                       -474.6131276163239363
  Basis Set: (AUG-CC-PVTZ AUX)
    Blend: AUG-CC-PVTZ-RI
    Molecular point group: c1

    Geometry (in Angstrom), charge = 0, multiplicity = 1:

       Center              X                  Y                   Z               Mass
    ------------   -----------------  -----------------  -----------------  -----------------
         O           -1.392207407746     1.141266674133     0.095416724998    15.994914619570
         O            1.480308292254    -1.709423925867     0.046962824998    15.994914619570
         N            0.724650292254     0.444581074133    -0.077958175002    14.003074004430
         C           -0.612441707746     0.024862074133    -0.049514175002    12.000000000000
         C            0.960093292254     1.888020074133    -0.105060175002    12.000000000000
         C            1.731074292254    -0.502936925867     0.020227824998    12.000000000000
         C           -1.266847707746    -1.179638925867    -0.122725175002    12.000000000000
         C           -2.657318707746    -0.866474925867    -0.019382175002    12.000000000000
         C            3.157976292254     0.004239074133     0.081976824998    12.000000000000
         C           -2.758118707746     0.486554074133     0.107221824998    12.000000000000
         H            0.330327292254     2.341524074133    -0.871266175002     1.007825032230
         H            2.000631292254     2.080857074133    -0.350212175002     1.007825032230
         H            0.721690292254     2.346817074133     0.858973824998     1.007825032230
         H           -0.805426707746    -2.145767925867    -0.231630175002     1.007825032230
         H           -3.480763707746    -1.567576925867    -0.039379175002     1.007825032230
         H            3.313851292254     0.700784074133     0.910011824998     1.007825032230
         H            3.451045292254     0.502912074133    -0.846575175002     1.007825032230
         H            3.791205292254    -0.870790925867     0.224738824998     1.007825032230
         H           -3.577021707746     1.182105074133     0.207782824998     1.007825032230

  Basis Set: AUG-CC-PVTZ
    Blend: AUG-CC-PVTZ
  Basis Set: (AUG-CC-PVTZ AUX)
    Blend: AUG-CC-PVTZ-JKFIT
	 Reference Energy          =    -474.6131276163238795 [Eh]
	 Singles Energy            =      -0.0000000000000000 [Eh]
	 Same-Spin Energy          =      -0.4925779011459726 [Eh]
	 Opposite-Spin Energy      =      -1.5326862721005796 [Eh]
	 Correlation Energy        =      -2.0252641732465522 [Eh]
	 Total Energy              =    -476.6383917895704485 [Eh]

	 ================> DF-SCS-MP2 Energies <==================
	-----------------------------------------------------------
	 SCS Same-Spin Scale       =       0.3333333333333333 [-]
	 SCS Opposite-Spin Scale   =       1.2000000000000000 [-]
	 SCS Same-Spin Energy      =      -0.1641926337153242 [Eh]
	 SCS Opposite-Spin Energy  =      -1.8392235265206955 [Eh]
	 SCS Correlation Energy    =      -2.0034161602360196 [Eh]
	 SCS Total Energy          =    -476.6165437765599222 [Eh]
	-----------------------------------------------------------

  Dipole Moment: [D]
     X:     0.3100      Y:     2.9453      Z:    -0.1486     Total:     2.9653

*** Psi4 exiting successfully. Buy a developer a beer!
