                               Psi4 1.3.2 release

  ==> Input File <==

--------------------------------------------------------------------------
#psi4
#
memory 32 gb

molecule  {
0 1
  O       -1.5316190     1.0321650     0.0948010
  O        1.4540340    -1.7305240     0.0480640
  N        0.6983760     0.4234810    -0.0768570
  C       -0.6811588     0.0256194    -0.0443209
  C        0.9338190     1.8669200    -0.1039590
  C        1.7048000    -0.5240370     0.0213290
  C       -1.2931220    -1.2007390    -0.1216240
  C       -2.6835930    -0.8875750    -0.0182810
  C        3.1317020    -0.0168610     0.0830780
  C       -2.7843930     0.4654540     0.1083230
  H        0.3040530     2.3204240    -0.8701650
  H        1.9743570     2.0597570    -0.3491110
  H        0.6954160     2.3257170     0.8600750
  H       -0.8317010    -2.1668680    -0.2305290
  H       -3.5070380    -1.5886770    -0.0382780
  H        3.2875770     0.6796840     0.9111130
  H        3.4247710     0.4818120    -0.8454740
  H        3.7649310    -0.8918910     0.2258400
  H       -3.6032960     1.1610050     0.2088840
units angstrom
no_reorient  #important for SAPT in psi4, default
symmetry c1  #important for SAPT in psi4, default
}

set PROPERTIES_ORIGIN ["COM"]
properties('MP2/aug-cc-pvtz', properties = ['dipole'])
--------------------------------------------------------------------------

    Molecular point group: c1
  Charge       = 0
  Multiplicity = 1
  Basis Set: AUG-CC-PVTZ
    Blend: AUG-CC-PVTZ
  Basis Set: (AUG-CC-PVTZ AUX)
    Blend: AUG-CC-PVTZ-JKFIT

    Orbital Energies [Eh]
    ---------------------

    Doubly Occupied:

       1A    -20.632838     2A    -20.525677     3A    -15.614473
       4A    -11.363796     5A    -11.333665     6A    -11.280478
       7A    -11.276740     8A    -11.245529     9A    -11.231793
      10A    -11.214741    11A     -1.483339    12A     -1.381549
      13A     -1.254072    14A     -1.084883    15A     -1.030287
      16A     -0.990496    17A     -0.953742    18A     -0.832046
      19A     -0.798640    20A     -0.758078    21A     -0.701483
      22A     -0.679236    23A     -0.674060    24A     -0.649394
      25A     -0.628729    26A     -0.592141    27A     -0.590304
      28A     -0.587856    29A     -0.570988    30A     -0.562138
      31A     -0.552595    32A     -0.537622    33A     -0.524111
      34A     -0.430541    35A     -0.426878    36A     -0.394636
      37A     -0.290150

  @DF-RHF Final Energy:  -474.63346955849812

   => Energetics <=

    Nuclear Repulsion Energy =            528.1185631205388518
    One-Electron Energy =               -1694.1446134019781766
    Two-Electron Energy =                 691.3925807229413749
    Total Energy =                       -474.6334695584980636
  Basis Set: (AUG-CC-PVTZ AUX)
    Blend: AUG-CC-PVTZ-RI
    Molecular point group: c1

    Geometry (in Angstrom), charge = 0, multiplicity = 1:

       Center              X                  Y                   Z               Mass
    ------------   -----------------  -----------------  -----------------  -----------------
         O           -1.488669319070     1.061500813134     0.093544187050    15.994914619570
         O            1.496983680930    -1.701188186866     0.046807187050    15.994914619570
         N            0.741325680930     0.452816813134    -0.078113812950    14.003074004430
         C           -0.638209119070     0.054955213134    -0.045577712950    12.000000000000
         C            0.976768680930     1.896255813134    -0.105215812950    12.000000000000
         C            1.747749680930    -0.494701186866     0.020072187050    12.000000000000
         C           -1.250172319070    -1.171403186866    -0.122880812950    12.000000000000
         C           -2.640643319070    -0.858239186866    -0.019537812950    12.000000000000
         C            3.174651680930     0.012474813134     0.081821187050    12.000000000000
         C           -2.741443319070     0.494789813134     0.107066187050    12.000000000000
         H            0.347002680930     2.349759813134    -0.871421812950     1.007825032230
         H            2.017306680930     2.089092813134    -0.350367812950     1.007825032230
         H            0.738365680930     2.355052813134     0.858818187050     1.007825032230
         H           -0.788751319070    -2.137532186866    -0.231785812950     1.007825032230
         H           -3.464088319070    -1.559341186866    -0.039534812950     1.007825032230
         H            3.330526680930     0.709019813134     0.909856187050     1.007825032230
         H            3.467720680930     0.511147813134    -0.846730812950     1.007825032230
         H            3.807880680930    -0.862555186866     0.224583187050     1.007825032230
         H           -3.560346319070     1.190340813134     0.207627187050     1.007825032230

  Basis Set: AUG-CC-PVTZ
    Blend: AUG-CC-PVTZ
  Basis Set: (AUG-CC-PVTZ AUX)
    Blend: AUG-CC-PVTZ-JKFIT
	 Reference Energy          =    -474.6334695584981205 [Eh]
	 Singles Energy            =      -0.0000000000000000 [Eh]
	 Same-Spin Energy          =      -0.4914834689271389 [Eh]
	 Opposite-Spin Energy      =      -1.5271039921161556 [Eh]
	 Correlation Energy        =      -2.0185874610432943 [Eh]
	 Total Energy              =    -476.6520570195414166 [Eh]

	 ================> DF-SCS-MP2 Energies <==================
	-----------------------------------------------------------
	 SCS Same-Spin Scale       =       0.3333333333333333 [-]
	 SCS Opposite-Spin Scale   =       1.2000000000000000 [-]
	 SCS Same-Spin Energy      =      -0.1638278229757130 [Eh]
	 SCS Opposite-Spin Energy  =      -1.8325247905393867 [Eh]
	 SCS Correlation Energy    =      -1.9963526135150995 [Eh]
	 SCS Total Energy          =    -476.6298221720132346 [Eh]
	-----------------------------------------------------------

  Dipole Moment: [D]
     X:     0.4218      Y:     3.2916      Z:    -0.1200     Total:     3.3207

*** Psi4 exiting successfully. Buy a developer a beer!
