                               Psi4 1.3.2 release

  ==> Input File <==

--------------------------------------------------------------------------
#psi4
#
memory 32 gb

molecule  {
0 1
  O       -1.5316190     1.0321650     0.0948010
  O        1.4540340    -1.7305240     0.0480640
  N        0.6983760     0.4234810    -0.0768570
  C       -0.4479357     0.0636488    -0.0524715
  C        0.9338190     1.8669200    -0.1039590
  C        1.7048000    -0.5240370     0.0213290
  C       -1.2931220    -1.2007390    -0.1216240
  C       -2.6835930    -0.8875750    -0.0182810
  C        3.1317020    -0.0168610     0.0830780
  C       -2.7843930     0.4654540     0.1083230
  H        0.3040530     2.3204240    -0.8701650
  H        1.9743570     2.0597570    -0.3491110
  H        0.6954160     2.3257170     0.8600750
  H       -0.8317010    -2.1668680    -0.2305290
  H       -3.5070380    -1.5886770    -0.0382780
  H        3.2875770     0.6796840     0.9111130
  H        3.4247710     0.4818120    -0.8454740
  H        3.7649310    -0.8918910     0.2258400
  H       -3.6032960     1.1610050     0.2088840
units angstrom
no_reorient  #important for SAPT in psi4, default
symmetry c1  #important for SAPT in psi4, default
}

set PROPERTIES_ORIGIN ["COM"]
properties('MP2/aug-cc-pvtz', properties = ['dipole'])
--------------------------------------------------------------------------

    Molecular point group: c1
  Charge       = 0
  Multiplicity = 1
  Basis Set: AUG-CC-PVTZ
    Blend: AUG-CC-PVTZ
  Basis Set: (AUG-CC-PVTZ AUX)
    Blend: AUG-CC-PVTZ-JKFIT

    Orbital Energies [Eh]
    ---------------------

    Doubly Occupied:

       1A    -20.604996     2A    -20.548853     3A    -15.635590
       4A    -11.381607     5A    -11.343318     6A    -11.295727
       7A    -11.266632     8A    -11.258516     9A    -11.218917
      10A    -11.216909    11A     -1.438395    12A     -1.400131
      13A     -1.328197    14A     -1.056207    15A     -1.046626
      16A     -1.006582    17A     -0.951396    18A     -0.874117
      19A     -0.776362    20A     -0.730610    21A     -0.713457
      22A     -0.700688    23A     -0.692260    24A     -0.654523
      25A     -0.614642    26A     -0.610490    27A     -0.603857
      28A     -0.591712    29A     -0.577684    30A     -0.548349
      31A     -0.544185    32A     -0.534941    33A     -0.496128
      34A     -0.466900    35A     -0.448750    36A     -0.374115
      37A     -0.248337

  @DF-RHF Final Energy:  -474.55667499157613

   => Energetics <=

    Nuclear Repulsion Energy =            528.6919524853017265
    One-Electron Energy =               -1694.8958452068447968
    Two-Electron Energy =                 691.6472177299668829
    Total Energy =                       -474.5566749915761875
  Basis Set: (AUG-CC-PVTZ AUX)
    Blend: AUG-CC-PVTZ-RI
    Molecular point group: c1

    Geometry (in Angstrom), charge = 0, multiplicity = 1:

       Center              X                  Y                   Z               Mass
    ------------   -----------------  -----------------  -----------------  -----------------
         O           -1.508794518356     1.058219194574     0.094247515534    15.994914619570
         O            1.476858481644    -1.704469805426     0.047510515534    15.994914619570
         N            0.721200481644     0.449535194574    -0.077410484466    14.003074004430
         C           -0.425111218356     0.089702994574    -0.053024984466    12.000000000000
         C            0.956643481644     1.892974194574    -0.104512484466    12.000000000000
         C            1.727624481644    -0.497982805426     0.020775515534    12.000000000000
         C           -1.270297518356    -1.174684805426    -0.122177484466    12.000000000000
         C           -2.660768518356    -0.861520805426    -0.018834484466    12.000000000000
         C            3.154526481644     0.009193194574     0.082524515534    12.000000000000
         C           -2.761568518356     0.491508194574     0.107769515534    12.000000000000
         H            0.326877481644     2.346478194574    -0.870718484466     1.007825032230
         H            1.997181481644     2.085811194574    -0.349664484466     1.007825032230
         H            0.718240481644     2.351771194574     0.859521515534     1.007825032230
         H           -0.808876518356    -2.140813805426    -0.231082484466     1.007825032230
         H           -3.484213518356    -1.562622805426    -0.038831484466     1.007825032230
         H            3.310401481644     0.705738194574     0.910559515534     1.007825032230
         H            3.447595481644     0.507866194574    -0.846027484466     1.007825032230
         H            3.787755481644    -0.865836805426     0.225286515534     1.007825032230
         H           -3.580471518356     1.187059194574     0.208330515534     1.007825032230

  Basis Set: AUG-CC-PVTZ
    Blend: AUG-CC-PVTZ
  Basis Set: (AUG-CC-PVTZ AUX)
    Blend: AUG-CC-PVTZ-JKFIT
	 Reference Energy          =    -474.5566749915761307 [Eh]
	 Singles Energy            =      -0.0000000000000000 [Eh]
	 Same-Spin Energy          =      -0.4976458643461472 [Eh]
	 Opposite-Spin Energy      =      -1.5367451570984061 [Eh]
	 Correlation Energy        =      -2.0343910214445531 [Eh]
	 Total Energy              =    -476.5910660130206793 [Eh]

	 ================> DF-SCS-MP2 Energies <==================
	-----------------------------------------------------------
	 SCS Same-Spin Scale       =       0.3333333333333333 [-]
	 SCS Opposite-Spin Scale   =       1.2000000000000000 [-]
	 SCS Same-Spin Energy      =      -0.1658819547820491 [Eh]
	 SCS Opposite-Spin Energy  =      -1.8440941885180873 [Eh]
	 SCS Correlation Energy    =      -2.0099761433001362 [Eh]
	 SCS Total Energy          =    -476.5666511348762810 [Eh]
	-----------------------------------------------------------

  Dipole Moment: [D]
     X:     1.7235      Y:     3.6035      Z:    -0.1339     Total:     3.9967

*** Psi4 exiting successfully. Buy a developer a beer!
