                               Psi4 1.3.2 release

  ==> Input File <==

--------------------------------------------------------------------------
#psi4
#
memory 32 gb

molecule  {
0 1
  O       -1.5316190     1.0321650     0.0948010
  O        1.4540340    -1.7305240     0.0480640
  N        0.6983760     0.4234810    -0.0768570
  C       -0.6569295    -0.0117075    -0.0488907
  C        0.9338190     1.8669200    -0.1039590
  C        1.7048000    -0.5240370     0.0213290
  C       -1.2931220    -1.2007390    -0.1216240
  C       -2.6835930    -0.8875750    -0.0182810
  C        3.1317020    -0.0168610     0.0830780
  C       -2.7843930     0.4654540     0.1083230
  H        0.3040530     2.3204240    -0.8701650
  H        1.9743570     2.0597570    -0.3491110
  H        0.6954160     2.3257170     0.8600750
  H       -0.8317010    -2.1668680    -0.2305290
  H       -3.5070380    -1.5886770    -0.0382780
  H        3.2875770     0.6796840     0.9111130
  H        3.4247710     0.4818120    -0.8454740
  H        3.7649310    -0.8918910     0.2258400
  H       -3.6032960     1.1610050     0.2088840
units angstrom
no_reorient  #important for SAPT in psi4, default
symmetry c1  #important for SAPT in psi4, default
}

set PROPERTIES_ORIGIN ["COM"]
properties('MP2/aug-cc-pvtz', properties = ['dipole'])
--------------------------------------------------------------------------

    Molecular point group: c1
  Charge       = 0
  Multiplicity = 1
  Basis Set: AUG-CC-PVTZ
    Blend: AUG-CC-PVTZ
  Basis Set: (AUG-CC-PVTZ AUX)
    Blend: AUG-CC-PVTZ-JKFIT

    Orbital Energies [Eh]
    ---------------------

    Doubly Occupied:

       1A    -20.625218     2A    -20.526673     3A    -15.615495
       4A    -11.363900     5A    -11.330966     6A    -11.282005
       7A    -11.277624     8A    -11.245610     9A    -11.230265
      10A    -11.214800    11A     -1.463201    12A     -1.382881
      13A     -1.256456    14A     -1.085579    15A     -1.030014
      16A     -0.990300    17A     -0.953937    18A     -0.833006
      19A     -0.795480    20A     -0.752454    21A     -0.701770
      22A     -0.678151    23A     -0.671062    24A     -0.646902
      25A     -0.623256    26A     -0.591791    27A     -0.588676
      28A     -0.587320    29A     -0.567351    30A     -0.564059
      31A     -0.549812    32A     -0.542812    33A     -0.525463
      34A     -0.432515    35A     -0.429431    36A     -0.393762
      37A     -0.292320

  @DF-RHF Final Energy:  -474.63441377796698

   => Energetics <=

    Nuclear Repulsion Energy =            527.9447587856182054
    One-Electron Energy =               -1693.8737102628315370
    Two-Electron Energy =                 691.2945376992463480
    Total Energy =                       -474.6344137779669836
  Basis Set: (AUG-CC-PVTZ AUX)
    Blend: AUG-CC-PVTZ-RI
    Molecular point group: c1

    Geometry (in Angstrom), charge = 0, multiplicity = 1:

       Center              X                  Y                   Z               Mass
    ------------   -----------------  -----------------  -----------------  -----------------
         O           -1.490760104636     1.064721811831     0.093938522499    15.994914619570
         O            1.494892895364    -1.697967188169     0.047201522499    15.994914619570
         N            0.739234895364     0.456037811831    -0.077719477501    14.003074004430
         C           -0.616070604636     0.020849311831    -0.049753177501    12.000000000000
         C            0.974677895364     1.899476811831    -0.104821477501    12.000000000000
         C            1.745658895364    -0.491480188169     0.020466522499    12.000000000000
         C           -1.252263104636    -1.168182188169    -0.122486477501    12.000000000000
         C           -2.642734104636    -0.855018188169    -0.019143477501    12.000000000000
         C            3.172560895364     0.015695811831     0.082215522499    12.000000000000
         C           -2.743534104636     0.498010811831     0.107460522499    12.000000000000
         H            0.344911895364     2.352980811831    -0.871027477501     1.007825032230
         H            2.015215895364     2.092313811831    -0.349973477501     1.007825032230
         H            0.736274895364     2.358273811831     0.859212522499     1.007825032230
         H           -0.790842104636    -2.134311188169    -0.231391477501     1.007825032230
         H           -3.466179104636    -1.556120188169    -0.039140477501     1.007825032230
         H            3.328435895364     0.712240811831     0.910250522499     1.007825032230
         H            3.465629895364     0.514368811831    -0.846336477501     1.007825032230
         H            3.805789895364    -0.859334188169     0.224977522499     1.007825032230
         H           -3.562437104636     1.193561811831     0.208021522499     1.007825032230

  Basis Set: AUG-CC-PVTZ
    Blend: AUG-CC-PVTZ
  Basis Set: (AUG-CC-PVTZ AUX)
    Blend: AUG-CC-PVTZ-JKFIT
	 Reference Energy          =    -474.6344137779669836 [Eh]
	 Singles Energy            =      -0.0000000000000000 [Eh]
	 Same-Spin Energy          =      -0.4913763006189312 [Eh]
	 Opposite-Spin Energy      =      -1.5276985192708024 [Eh]
	 Correlation Energy        =      -2.0190748198897337 [Eh]
	 Total Energy              =    -476.6534885978567218 [Eh]

	 ================> DF-SCS-MP2 Energies <==================
	-----------------------------------------------------------
	 SCS Same-Spin Scale       =       0.3333333333333333 [-]
	 SCS Opposite-Spin Scale   =       1.2000000000000000 [-]
	 SCS Same-Spin Energy      =      -0.1637921002063104 [Eh]
	 SCS Opposite-Spin Energy  =      -1.8332382231249627 [Eh]
	 SCS Correlation Energy    =      -1.9970303233312729 [Eh]
	 SCS Total Energy          =    -476.6314441012982570 [Eh]
	-----------------------------------------------------------

  Dipole Moment: [D]
     X:     0.5165      Y:     3.2357      Z:    -0.1337     Total:     3.2794

*** Psi4 exiting successfully. Buy a developer a beer!
