                               Psi4 1.3.2 release

  ==> Input File <==

--------------------------------------------------------------------------
#psi4
#
memory 32 gb

molecule  {
0 1
  O       -1.5316190     1.0321650     0.0948010
  O        1.4540340    -1.7305240     0.0480640
  N        0.6983760     0.4234810    -0.0768570
  C       -0.6387160     0.0037620    -0.0484130
  C        0.9338190     1.8669200    -0.1039590
  C        1.7048000    -0.5240370     0.0213290
  C       -1.2989330    -1.2249191    -0.1235266
  C       -2.6835930    -0.8875750    -0.0182810
  C        3.1317020    -0.0168610     0.0830780
  C       -2.7843930     0.4654540     0.1083230
  H        0.3040530     2.3204240    -0.8701650
  H        1.9743570     2.0597570    -0.3491110
  H        0.6954160     2.3257170     0.8600750
  H       -0.8317010    -2.1668680    -0.2305290
  H       -3.5070380    -1.5886770    -0.0382780
  H        3.2875770     0.6796840     0.9111130
  H        3.4247710     0.4818120    -0.8454740
  H        3.7649310    -0.8918910     0.2258400
  H       -3.6032960     1.1610050     0.2088840
units angstrom
no_reorient  #important for SAPT in psi4, default
symmetry c1  #important for SAPT in psi4, default
}

set PROPERTIES_ORIGIN ["COM"]
properties('MP2/aug-cc-pvtz', properties = ['dipole'])
--------------------------------------------------------------------------

    Molecular point group: c1
  Charge       = 0
  Multiplicity = 1
  Basis Set: AUG-CC-PVTZ
    Blend: AUG-CC-PVTZ
  Basis Set: (AUG-CC-PVTZ AUX)
    Blend: AUG-CC-PVTZ-JKFIT

    Orbital Energies [Eh]
    ---------------------

    Doubly Occupied:

       1A    -20.626629     2A    -20.529082     3A    -15.618284
       4A    -11.366009     5A    -11.336432     6A    -11.279628
       7A    -11.279483     8A    -11.247138     9A    -11.229785
      10A    -11.217215    11A     -1.462369    12A     -1.385401
      13A     -1.263296    14A     -1.078012    15A     -1.031947
      16A     -0.989972    17A     -0.954770    18A     -0.836605
      19A     -0.794080    20A     -0.752666    21A     -0.702983
      22A     -0.680201    23A     -0.673034    24A     -0.649560
      25A     -0.622864    26A     -0.593262    27A     -0.590087
      28A     -0.588948    29A     -0.567989    30A     -0.565383
      31A     -0.550361    32A     -0.539234    33A     -0.527302
      34A     -0.434741    35A     -0.431890    36A     -0.391660
      37A     -0.284782

  @DF-RHF Final Energy:  -474.63235231996310

   => Energetics <=

    Nuclear Repulsion Energy =            527.4849904126308502
    One-Electron Energy =               -1692.8885116938301962
    Two-Electron Energy =                 690.7711689612362989
    Total Energy =                       -474.6323523199630472
  Basis Set: (AUG-CC-PVTZ AUX)
    Blend: AUG-CC-PVTZ-RI
    Molecular point group: c1

    Geometry (in Angstrom), charge = 0, multiplicity = 1:

       Center              X                  Y                   Z               Mass
    ------------   -----------------  -----------------  -----------------  -----------------
         O           -1.491830336462     1.065473463622     0.094061479429    15.994914619570
         O            1.493822663538    -1.697215536378     0.047324479429    15.994914619570
         N            0.738164663538     0.456789463622    -0.077596520571    14.003074004430
         C           -0.598927336462     0.037070463622    -0.049152520571    12.000000000000
         C            0.973607663538     1.900228463622    -0.104698520571    12.000000000000
         C            1.744588663538    -0.490728536378     0.020589479429    12.000000000000
         C           -1.259144336462    -1.191610636378    -0.124266120571    12.000000000000
         C           -2.643804336462    -0.854266536378    -0.019020520571    12.000000000000
         C            3.171490663538     0.016447463622     0.082338479429    12.000000000000
         C           -2.744604336462     0.498762463622     0.107583479429    12.000000000000
         H            0.343841663538     2.353732463622    -0.870904520571     1.007825032230
         H            2.014145663538     2.093065463622    -0.349850520571     1.007825032230
         H            0.735204663538     2.359025463622     0.859335479429     1.007825032230
         H           -0.791912336462    -2.133559536378    -0.231268520571     1.007825032230
         H           -3.467249336462    -1.555368536378    -0.039017520571     1.007825032230
         H            3.327365663538     0.712992463622     0.910373479429     1.007825032230
         H            3.464559663538     0.515120463622    -0.846213520571     1.007825032230
         H            3.804719663538    -0.858582536378     0.225100479429     1.007825032230
         H           -3.563507336462     1.194313463622     0.208144479429     1.007825032230

  Basis Set: AUG-CC-PVTZ
    Blend: AUG-CC-PVTZ
  Basis Set: (AUG-CC-PVTZ AUX)
    Blend: AUG-CC-PVTZ-JKFIT
	 Reference Energy          =    -474.6323523199631040 [Eh]
	 Singles Energy            =      -0.0000000000000000 [Eh]
	 Same-Spin Energy          =      -0.4922372242237486 [Eh]
	 Opposite-Spin Energy      =      -1.5288327101032388 [Eh]
	 Correlation Energy        =      -2.0210699343269876 [Eh]
	 Total Energy              =    -476.6534222542900920 [Eh]

	 ================> DF-SCS-MP2 Energies <==================
	-----------------------------------------------------------
	 SCS Same-Spin Scale       =       0.3333333333333333 [-]
	 SCS Opposite-Spin Scale   =       1.2000000000000000 [-]
	 SCS Same-Spin Energy      =      -0.1640790747412495 [Eh]
	 SCS Opposite-Spin Energy  =      -1.8345992521238865 [Eh]
	 SCS Correlation Energy    =      -1.9986783268651360 [Eh]
	 SCS Total Energy          =    -476.6310306468282647 [Eh]
	-----------------------------------------------------------

  Dipole Moment: [D]
     X:     0.6539      Y:     3.3051      Z:    -0.1294     Total:     3.3716

*** Psi4 exiting successfully. Buy a developer a beer!
