                               Psi4 1.3.2 release

  ==> Input File <==

--------------------------------------------------------------------------
#psi4
#
memory 32 gb

molecule  {
0 1
  O       -1.5316190     1.0321650     0.0948010
  O        1.4540340    -1.7305240     0.0480640
  N        0.6983760     0.4234810    -0.0768570
  C       -0.7682286     0.0648271    -0.0364240
  C        0.9338190     1.8669200    -0.1039590
  C        1.7048000    -0.5240370     0.0213290
  C       -1.2931220    -1.2007390    -0.1216240
  C       -2.6835930    -0.8875750    -0.0182810
  C        3.1317020    -0.0168610     0.0830780
  C       -2.7843930     0.4654540     0.1083230
  H        0.3040530     2.3204240    -0.8701650
  H        1.9743570     2.0597570    -0.3491110
  H        0.6954160     2.3257170     0.8600750
  H       -0.8317010    -2.1668680    -0.2305290
  H       -3.5070380    -1.5886770    -0.0382780
  H        3.2875770     0.6796840     0.9111130
  H        3.4247710     0.4818120    -0.8454740
  H        3.7649310    -0.8918910     0.2258400
  H       -3.6032960     1.1610050     0.2088840
units angstrom
no_reorient  #important for SAPT in psi4, default
symmetry c1  #important for SAPT in psi4, default
}

set PROPERTIES_ORIGIN ["COM"]
properties('MP2/aug-cc-pvtz', properties = ['dipole'])
--------------------------------------------------------------------------

    Molecular point group: c1
  Charge       = 0
  Multiplicity = 1
  Basis Set: AUG-CC-PVTZ
    Blend: AUG-CC-PVTZ
  Basis Set: (AUG-CC-PVTZ AUX)
    Blend: AUG-CC-PVTZ-JKFIT

    Orbital Energies [Eh]
    ---------------------

    Doubly Occupied:

       1A    -20.649021     2A    -20.519968     3A    -15.607458
       4A    -11.359869     5A    -11.338793     6A    -11.280447
       7A    -11.272317     8A    -11.242716     9A    -11.237382
      10A    -11.213757    11A     -1.533243    12A     -1.374923
      13A     -1.237544    14A     -1.096903    15A     -1.027750
      16A     -0.992024    17A     -0.949685    18A     -0.833729
      19A     -0.797815    20A     -0.774610    21A     -0.699211
      22A     -0.694160    23A     -0.672305    24A     -0.650146
      25A     -0.634444    26A     -0.597402    27A     -0.591640
      28A     -0.588950    29A     -0.577914    30A     -0.557415
      31A     -0.553705    32A     -0.523564    33A     -0.517923
      34A     -0.424704    35A     -0.415240    36A     -0.400948
      37A     -0.294862

  @DF-RHF Final Energy:  -474.61318176855923

   => Energetics <=

    Nuclear Repulsion Energy =            528.5152799364958582
    One-Electron Energy =               -1694.7879460311598905
    Two-Electron Energy =                 691.6594843261049164
    Total Energy =                       -474.6131817685592296
  Basis Set: (AUG-CC-PVTZ AUX)
    Blend: AUG-CC-PVTZ-RI
    Molecular point group: c1

    Geometry (in Angstrom), charge = 0, multiplicity = 1:

       Center              X                  Y                   Z               Mass
    ------------   -----------------  -----------------  -----------------  -----------------
         O           -1.481155924914     1.058117517157     0.092862750751    15.994914619570
         O            1.504497075086    -1.704571482843     0.046125750751    15.994914619570
         N            0.748839075086     0.449433517157    -0.078795249249    14.003074004430
         C           -0.717765524914     0.090779617157    -0.038362249249    12.000000000000
         C            0.984282075086     1.892872517157    -0.105897249249    12.000000000000
         C            1.755263075086    -0.498084482843     0.019390750751    12.000000000000
         C           -1.242658924914    -1.174786482843    -0.123562249249    12.000000000000
         C           -2.633129924914    -0.861622482843    -0.020219249249    12.000000000000
         C            3.182165075086     0.009091517157     0.081139750751    12.000000000000
         C           -2.733929924914     0.491406517157     0.106384750751    12.000000000000
         H            0.354516075086     2.346376517157    -0.872103249249     1.007825032230
         H            2.024820075086     2.085709517157    -0.351049249249     1.007825032230
         H            0.745879075086     2.351669517157     0.858136750751     1.007825032230
         H           -0.781237924914    -2.140915482843    -0.232467249249     1.007825032230
         H           -3.456574924914    -1.562724482843    -0.040216249249     1.007825032230
         H            3.338040075086     0.705636517157     0.909174750751     1.007825032230
         H            3.475234075086     0.507764517157    -0.847412249249     1.007825032230
         H            3.815394075086    -0.865938482843     0.223901750751     1.007825032230
         H           -3.552832924914     1.186957517157     0.206945750751     1.007825032230

  Basis Set: AUG-CC-PVTZ
    Blend: AUG-CC-PVTZ
  Basis Set: (AUG-CC-PVTZ AUX)
    Blend: AUG-CC-PVTZ-JKFIT
	 Reference Energy          =    -474.6131817685592296 [Eh]
	 Singles Energy            =      -0.0000000000000000 [Eh]
	 Same-Spin Energy          =      -0.4911481379245985 [Eh]
	 Opposite-Spin Energy      =      -1.5257447448441841 [Eh]
	 Correlation Energy        =      -2.0168928827687824 [Eh]
	 Total Energy              =    -476.6300746513280160 [Eh]

	 ================> DF-SCS-MP2 Energies <==================
	-----------------------------------------------------------
	 SCS Same-Spin Scale       =       0.3333333333333333 [-]
	 SCS Opposite-Spin Scale   =       1.2000000000000000 [-]
	 SCS Same-Spin Energy      =      -0.1637160459748662 [Eh]
	 SCS Opposite-Spin Energy  =      -1.8308936938130209 [Eh]
	 SCS Correlation Energy    =      -1.9946097397878870 [Eh]
	 SCS Total Energy          =    -476.6077915083471339 [Eh]
	-----------------------------------------------------------

  Dipole Moment: [D]
     X:    -0.0139      Y:     3.3150      Z:    -0.0985     Total:     3.3165

*** Psi4 exiting successfully. Buy a developer a beer!
