                               Psi4 1.3.2 release

  ==> Input File <==

--------------------------------------------------------------------------
#psi4
#
memory 32 gb

molecule  {
0 1
  O       -1.5316190     1.0321650     0.0948010
  O        1.4540340    -1.7305240     0.0480640
  N        0.6909266     0.4466611    -0.0744730
  C       -0.6387160     0.0037620    -0.0484130
  C        0.9338190     1.8669200    -0.1039590
  C        1.7048000    -0.5240370     0.0213290
  C       -1.2931220    -1.2007390    -0.1216240
  C       -2.6835930    -0.8875750    -0.0182810
  C        3.1317020    -0.0168610     0.0830780
  C       -2.7843930     0.4654540     0.1083230
  H        0.3040530     2.3204240    -0.8701650
  H        1.9743570     2.0597570    -0.3491110
  H        0.6954160     2.3257170     0.8600750
  H       -0.8317010    -2.1668680    -0.2305290
  H       -3.5070380    -1.5886770    -0.0382780
  H        3.2875770     0.6796840     0.9111130
  H        3.4247710     0.4818120    -0.8454740
  H        3.7649310    -0.8918910     0.2258400
  H       -3.6032960     1.1610050     0.2088840
units angstrom
no_reorient  #important for SAPT in psi4, default
symmetry c1  #important for SAPT in psi4, default
}

set PROPERTIES_ORIGIN ["COM"]
properties('MP2/aug-cc-pvtz', properties = ['dipole'])
--------------------------------------------------------------------------

    Molecular point group: c1
  Charge       = 0
  Multiplicity = 1
  Basis Set: AUG-CC-PVTZ
    Blend: AUG-CC-PVTZ
  Basis Set: (AUG-CC-PVTZ AUX)
    Blend: AUG-CC-PVTZ-JKFIT

    Orbital Energies [Eh]
    ---------------------

    Doubly Occupied:

       1A    -20.623574     2A    -20.532919     3A    -15.616409
       4A    -11.369226     5A    -11.332358     6A    -11.279682
       7A    -11.276475     8A    -11.247694     9A    -11.228995
      10A    -11.215391    11A     -1.461555    12A     -1.385713
      13A     -1.263966    14A     -1.079880    15A     -1.031928
      16A     -0.992735    17A     -0.951402    18A     -0.834512
      19A     -0.793116    20A     -0.750516    21A     -0.705534
      22A     -0.680940    23A     -0.673218    24A     -0.648344
      25A     -0.622426    26A     -0.593468    27A     -0.592336
      28A     -0.587207    29A     -0.566507    30A     -0.563134
      31A     -0.550378    32A     -0.541314    33A     -0.525751
      34A     -0.435307    35A     -0.432648    36A     -0.391457
      37A     -0.286611

  @DF-RHF Final Energy:  -474.63292622020748

   => Energetics <=

    Nuclear Repulsion Energy =            527.8866071112423697
    One-Electron Energy =               -1693.7098110908325452
    Two-Electron Energy =                 691.1902777593828660
    Total Energy =                       -474.6329262202074233
  Basis Set: (AUG-CC-PVTZ AUX)
    Blend: AUG-CC-PVTZ-RI
    Molecular point group: c1

    Geometry (in Angstrom), charge = 0, multiplicity = 1:

       Center              X                  Y                   Z               Mass
    ------------   -----------------  -----------------  -----------------  -----------------
         O           -1.491581654801     1.061052788077     0.093657242532    15.994914619570
         O            1.494071345199    -1.701636211923     0.046920242532    15.994914619570
         N            0.730963945199     0.475548888077    -0.075616757468    14.003074004430
         C           -0.598678654801     0.032649788077    -0.049556757468    12.000000000000
         C            0.973856345199     1.895807788077    -0.105102757468    12.000000000000
         C            1.744837345199    -0.495149211923     0.020185242532    12.000000000000
         C           -1.253084654801    -1.171851211923    -0.122767757468    12.000000000000
         C           -2.643555654801    -0.858687211923    -0.019424757468    12.000000000000
         C            3.171739345199     0.012026788077     0.081934242532    12.000000000000
         C           -2.744355654801     0.494341788077     0.107179242532    12.000000000000
         H            0.344090345199     2.349311788077    -0.871308757468     1.007825032230
         H            2.014394345199     2.088644788077    -0.350254757468     1.007825032230
         H            0.735453345199     2.354604788077     0.858931242532     1.007825032230
         H           -0.791663654801    -2.137980211923    -0.231672757468     1.007825032230
         H           -3.467000654801    -1.559789211923    -0.039421757468     1.007825032230
         H            3.327614345199     0.708571788077     0.909969242532     1.007825032230
         H            3.464808345199     0.510699788077    -0.846617757468     1.007825032230
         H            3.804968345199    -0.863003211923     0.224696242532     1.007825032230
         H           -3.563258654801     1.189892788077     0.207740242532     1.007825032230

  Basis Set: AUG-CC-PVTZ
    Blend: AUG-CC-PVTZ
  Basis Set: (AUG-CC-PVTZ AUX)
    Blend: AUG-CC-PVTZ-JKFIT
	 Reference Energy          =    -474.6329262202074801 [Eh]
	 Singles Energy            =      -0.0000000000000000 [Eh]
	 Same-Spin Energy          =      -0.4920902456051380 [Eh]
	 Opposite-Spin Energy      =      -1.5285545956309972 [Eh]
	 Correlation Energy        =      -2.0206448412361353 [Eh]
	 Total Energy              =    -476.6535710614436425 [Eh]

	 ================> DF-SCS-MP2 Energies <==================
	-----------------------------------------------------------
	 SCS Same-Spin Scale       =       0.3333333333333333 [-]
	 SCS Opposite-Spin Scale   =       1.2000000000000000 [-]
	 SCS Same-Spin Energy      =      -0.1640300818683793 [Eh]
	 SCS Opposite-Spin Energy  =      -1.8342655147571965 [Eh]
	 SCS Correlation Energy    =      -1.9982955966255758 [Eh]
	 SCS Total Energy          =    -476.6312218168330332 [Eh]
	-----------------------------------------------------------

  Dipole Moment: [D]
     X:     0.7264      Y:     3.1748      Z:    -0.1309     Total:     3.2594

*** Psi4 exiting successfully. Buy a developer a beer!
