                               Psi4 1.3.2 release

  ==> Input File <==

--------------------------------------------------------------------------
#psi4
#
memory 32 gb

molecule  {
0 1
  O       -1.5316190     1.0321650     0.0948010
  O        1.4540340    -1.7305240     0.0480640
  N        0.6983760     0.4234810    -0.0768570
  C       -0.5433259     0.0337054    -0.0504422
  C        0.9338190     1.8669200    -0.1039590
  C        1.7048000    -0.5240370     0.0213290
  C       -1.2931220    -1.2007390    -0.1216240
  C       -2.6835930    -0.8875750    -0.0182810
  C        3.1317020    -0.0168610     0.0830780
  C       -2.7843930     0.4654540     0.1083230
  H        0.3040530     2.3204240    -0.8701650
  H        1.9743570     2.0597570    -0.3491110
  H        0.6954160     2.3257170     0.8600750
  H       -0.8317010    -2.1668680    -0.2305290
  H       -3.5070380    -1.5886770    -0.0382780
  H        3.2875770     0.6796840     0.9111130
  H        3.4247710     0.4818120    -0.8454740
  H        3.7649310    -0.8918910     0.2258400
  H       -3.6032960     1.1610050     0.2088840
units angstrom
no_reorient  #important for SAPT in psi4, default
symmetry c1  #important for SAPT in psi4, default
}

set PROPERTIES_ORIGIN ["COM"]
properties('MP2/aug-cc-pvtz', properties = ['dipole'])
--------------------------------------------------------------------------

    Molecular point group: c1
  Charge       = 0
  Multiplicity = 1
  Basis Set: AUG-CC-PVTZ
    Blend: AUG-CC-PVTZ
  Basis Set: (AUG-CC-PVTZ AUX)
    Blend: AUG-CC-PVTZ-JKFIT

    Orbital Energies [Eh]
    ---------------------

    Doubly Occupied:

       1A    -20.615871     2A    -20.537630     3A    -15.625970
       4A    -11.372930     5A    -11.337567     6A    -11.286418
       7A    -11.274713     8A    -11.252091     9A    -11.224304
      10A    -11.217492    11A     -1.443015    12A     -1.395143
      13A     -1.293666    14A     -1.062194    15A     -1.041536
      16A     -0.995646    17A     -0.955358    18A     -0.855124
      19A     -0.785971    20A     -0.739172    21A     -0.708837
      22A     -0.687471    23A     -0.681684    24A     -0.653883
      25A     -0.615599    26A     -0.599106    27A     -0.596776
      28A     -0.593187    29A     -0.572131    30A     -0.550697
      31A     -0.545331    32A     -0.536586    33A     -0.522917
      34A     -0.449457    35A     -0.439935    36A     -0.383030
      37A     -0.268801

  @DF-RHF Final Energy:  -474.61386080963604

   => Energetics <=

    Nuclear Repulsion Energy =            528.1877906833816496
    One-Electron Energy =               -1694.1688253768643335
    Two-Electron Energy =                 691.3671738838467036
    Total Energy =                       -474.6138608096360940
  Basis Set: (AUG-CC-PVTZ AUX)
    Blend: AUG-CC-PVTZ-RI
    Molecular point group: c1

    Geometry (in Angstrom), charge = 0, multiplicity = 1:

       Center              X                  Y                   Z               Mass
    ------------   -----------------  -----------------  -----------------  -----------------
         O           -1.500563143398     1.060803059089     0.094072403948    15.994914619570
         O            1.485089856602    -1.701885940911     0.047335403948    15.994914619570
         N            0.729431856602     0.452119059089    -0.077585596052    14.003074004430
         C           -0.512270043398     0.062343459089    -0.051170796052    12.000000000000
         C            0.964874856602     1.895558059089    -0.104687596052    12.000000000000
         C            1.735855856602    -0.495398940911     0.020600403948    12.000000000000
         C           -1.262066143398    -1.172100940911    -0.122352596052    12.000000000000
         C           -2.652537143398    -0.858936940911    -0.019009596052    12.000000000000
         C            3.162757856602     0.011777059089     0.082349403948    12.000000000000
         C           -2.753337143398     0.494092059089     0.107594403948    12.000000000000
         H            0.335108856602     2.349062059089    -0.870893596052     1.007825032230
         H            2.005412856602     2.088395059089    -0.349839596052     1.007825032230
         H            0.726471856602     2.354355059089     0.859346403948     1.007825032230
         H           -0.800645143398    -2.138229940911    -0.231257596052     1.007825032230
         H           -3.475982143398    -1.560038940911    -0.039006596052     1.007825032230
         H            3.318632856602     0.708322059089     0.910384403948     1.007825032230
         H            3.455826856602     0.510450059089    -0.846202596052     1.007825032230
         H            3.795986856602    -0.863252940911     0.225111403948     1.007825032230
         H           -3.572240143398     1.189643059089     0.208155403948     1.007825032230

  Basis Set: AUG-CC-PVTZ
    Blend: AUG-CC-PVTZ
  Basis Set: (AUG-CC-PVTZ AUX)
    Blend: AUG-CC-PVTZ-JKFIT
	 Reference Energy          =    -474.6138608096360372 [Eh]
	 Singles Energy            =      -0.0000000000000000 [Eh]
	 Same-Spin Energy          =      -0.4944173747253388 [Eh]
	 Opposite-Spin Energy      =      -1.5318119184795793 [Eh]
	 Correlation Energy        =      -2.0262292932049180 [Eh]
	 Total Energy              =    -476.6400901028409294 [Eh]

	 ================> DF-SCS-MP2 Energies <==================
	-----------------------------------------------------------
	 SCS Same-Spin Scale       =       0.3333333333333333 [-]
	 SCS Opposite-Spin Scale   =       1.2000000000000000 [-]
	 SCS Same-Spin Energy      =      -0.1648057915751129 [Eh]
	 SCS Opposite-Spin Energy  =      -1.8381743021754950 [Eh]
	 SCS Correlation Energy    =      -2.0029800937506081 [Eh]
	 SCS Total Energy          =    -476.6168409033866737 [Eh]
	-----------------------------------------------------------

  Dipole Moment: [D]
     X:     1.1894      Y:     3.4375      Z:    -0.1311     Total:     3.6399

*** Psi4 exiting successfully. Buy a developer a beer!
