                               Psi4 1.3.2 release

  ==> Input File <==

--------------------------------------------------------------------------
#psi4
#
memory 32 gb

molecule  {
0 1
  O       -1.5316190     1.0321650     0.0948010
  O        1.4540340    -1.7305240     0.0480640
  N        0.6983760     0.4234810    -0.0768570
  C       -0.5353350     0.1029858    -0.0446367
  C        0.9338190     1.8669200    -0.1039590
  C        1.7048000    -0.5240370     0.0213290
  C       -1.2931220    -1.2007390    -0.1216240
  C       -2.6835930    -0.8875750    -0.0182810
  C        3.1317020    -0.0168610     0.0830780
  C       -2.7843930     0.4654540     0.1083230
  H        0.3040530     2.3204240    -0.8701650
  H        1.9743570     2.0597570    -0.3491110
  H        0.6954160     2.3257170     0.8600750
  H       -0.8317010    -2.1668680    -0.2305290
  H       -3.5070380    -1.5886770    -0.0382780
  H        3.2875770     0.6796840     0.9111130
  H        3.4247710     0.4818120    -0.8454740
  H        3.7649310    -0.8918910     0.2258400
  H       -3.6032960     1.1610050     0.2088840
units angstrom
no_reorient  #important for SAPT in psi4, default
symmetry c1  #important for SAPT in psi4, default
}

set PROPERTIES_ORIGIN ["COM"]
properties('MP2/aug-cc-pvtz', properties = ['dipole'])
--------------------------------------------------------------------------

    Molecular point group: c1
  Charge       = 0
  Multiplicity = 1
  Basis Set: AUG-CC-PVTZ
    Blend: AUG-CC-PVTZ
  Basis Set: (AUG-CC-PVTZ AUX)
    Blend: AUG-CC-PVTZ-JKFIT

    Orbital Energies [Eh]
    ---------------------

    Doubly Occupied:

       1A    -20.622560     2A    -20.540831     3A    -15.629246
       4A    -11.376504     5A    -11.342371     6A    -11.288672
       7A    -11.269456     8A    -11.254714     9A    -11.223811
      10A    -11.216040    11A     -1.457981    12A     -1.399190
      13A     -1.305135    14A     -1.056077    15A     -1.046251
      16A     -0.997584    17A     -0.956642    18A     -0.861766
      19A     -0.787155    20A     -0.740330    21A     -0.711086
      22A     -0.692502    23A     -0.686904    24A     -0.657917
      25A     -0.620860    26A     -0.603467    27A     -0.599915
      28A     -0.596617    29A     -0.574838    30A     -0.551934
      31A     -0.540464    32A     -0.539001    33A     -0.510806
      34A     -0.452880    35A     -0.442740    36A     -0.380638
      37A     -0.257748

  @DF-RHF Final Energy:  -474.59761852233555

   => Energetics <=

    Nuclear Repulsion Energy =            528.5121446447260496
    One-Electron Energy =               -1694.6342608251541151
    Two-Electron Energy =                 691.5244976580925140
    Total Energy =                       -474.5976185223355515
  Basis Set: (AUG-CC-PVTZ AUX)
    Blend: AUG-CC-PVTZ-RI
    Molecular point group: c1

    Geometry (in Angstrom), charge = 0, multiplicity = 1:

       Center              X                  Y                   Z               Mass
    ------------   -----------------  -----------------  -----------------  -----------------
         O           -1.501252691110     1.054824741090     0.093571437944    15.994914619570
         O            1.484400308890    -1.707864258910     0.046834437944    15.994914619570
         N            0.728742308890     0.446140741090    -0.078086562056    14.003074004430
         C           -0.504968691110     0.125645541090    -0.045866262056    12.000000000000
         C            0.964185308890     1.889579741090    -0.105188562056    12.000000000000
         C            1.735166308890    -0.501377258910     0.020099437944    12.000000000000
         C           -1.262755691110    -1.178079258910    -0.122853562056    12.000000000000
         C           -2.653226691110    -0.864915258910    -0.019510562056    12.000000000000
         C            3.162068308890     0.005798741090     0.081848437944    12.000000000000
         C           -2.754026691110     0.488113741090     0.107093437944    12.000000000000
         H            0.334419308890     2.343083741090    -0.871394562056     1.007825032230
         H            2.004723308890     2.082416741090    -0.350340562056     1.007825032230
         H            0.725782308890     2.348376741090     0.858845437944     1.007825032230
         H           -0.801334691110    -2.144208258910    -0.231758562056     1.007825032230
         H           -3.476671691110    -1.566017258910    -0.039507562056     1.007825032230
         H            3.317943308890     0.702343741090     0.909883437944     1.007825032230
         H            3.455137308890     0.504471741090    -0.846703562056     1.007825032230
         H            3.795297308890    -0.869231258910     0.224610437944     1.007825032230
         H           -3.572929691110     1.183664741090     0.207654437944     1.007825032230

  Basis Set: AUG-CC-PVTZ
    Blend: AUG-CC-PVTZ
  Basis Set: (AUG-CC-PVTZ AUX)
    Blend: AUG-CC-PVTZ-JKFIT
	 Reference Energy          =    -474.5976185223355515 [Eh]
	 Singles Energy            =      -0.0000000000000000 [Eh]
	 Same-Spin Energy          =      -0.4956053394249056 [Eh]
	 Opposite-Spin Energy      =      -1.5325723238018325 [Eh]
	 Correlation Energy        =      -2.0281776632267383 [Eh]
	 Total Energy              =    -476.6257961855623080 [Eh]

	 ================> DF-SCS-MP2 Energies <==================
	-----------------------------------------------------------
	 SCS Same-Spin Scale       =       0.3333333333333333 [-]
	 SCS Opposite-Spin Scale   =       1.2000000000000000 [-]
	 SCS Same-Spin Energy      =      -0.1652017798083019 [Eh]
	 SCS Opposite-Spin Energy  =      -1.8390867885621989 [Eh]
	 SCS Correlation Energy    =      -2.0042885683705007 [Eh]
	 SCS Total Energy          =    -476.6019070907060495 [Eh]
	-----------------------------------------------------------

  Dipole Moment: [D]
     X:     1.2757      Y:     3.5712      Z:    -0.1133     Total:     3.7939

*** Psi4 exiting successfully. Buy a developer a beer!
