                               Psi4 1.3.2 release

  ==> Input File <==

--------------------------------------------------------------------------
#psi4
#
memory 32 gb

molecule  {
0 1
  O       -1.5316190     1.0321650     0.0948010
  O        1.4540340    -1.7305240     0.0480640
  N        0.6983760     0.4234810    -0.0768570
  C       -0.5562730    -0.0443270    -0.0568598
  C        0.9338190     1.8669200    -0.1039590
  C        1.7048000    -0.5240370     0.0213290
  C       -1.2931220    -1.2007390    -0.1216240
  C       -2.6835930    -0.8875750    -0.0182810
  C        3.1317020    -0.0168610     0.0830780
  C       -2.7843930     0.4654540     0.1083230
  H        0.3040530     2.3204240    -0.8701650
  H        1.9743570     2.0597570    -0.3491110
  H        0.6954160     2.3257170     0.8600750
  H       -0.8317010    -2.1668680    -0.2305290
  H       -3.5070380    -1.5886770    -0.0382780
  H        3.2875770     0.6796840     0.9111130
  H        3.4247710     0.4818120    -0.8454740
  H        3.7649310    -0.8918910     0.2258400
  H       -3.6032960     1.1610050     0.2088840
units angstrom
no_reorient  #important for SAPT in psi4, default
symmetry c1  #important for SAPT in psi4, default
}

set PROPERTIES_ORIGIN ["COM"]
properties('MP2/aug-cc-pvtz', properties = ['dipole'])
--------------------------------------------------------------------------

    Molecular point group: c1
  Charge       = 0
  Multiplicity = 1
  Basis Set: AUG-CC-PVTZ
    Blend: AUG-CC-PVTZ
  Basis Set: (AUG-CC-PVTZ AUX)
    Blend: AUG-CC-PVTZ-JKFIT

    Orbital Energies [Eh]
    ---------------------

    Doubly Occupied:

       1A    -20.608351     2A    -20.534267     3A    -15.622776
       4A    -11.369182     5A    -11.332590     6A    -11.283952
       7A    -11.280060     8A    -11.249305     9A    -11.224689
      10A    -11.217489    11A     -1.428028    12A     -1.390825
      13A     -1.280019    14A     -1.073068    15A     -1.035793
      16A     -0.993510    17A     -0.955520    18A     -0.847067
      19A     -0.786650    20A     -0.737862    21A     -0.706322
      22A     -0.684219    23A     -0.674707    24A     -0.647784
      25A     -0.610431    26A     -0.593954    27A     -0.593138
      28A     -0.589365    29A     -0.570736    30A     -0.554347
      31A     -0.548006    32A     -0.533693    33A     -0.527425
      34A     -0.445850    35A     -0.436882    36A     -0.386819
      37A     -0.282212

  @DF-RHF Final Energy:  -474.62097960064966

   => Energetics <=

    Nuclear Repulsion Energy =            527.8436203353495557
    One-Electron Energy =               -1693.6554111514740271
    Two-Electron Energy =                 691.1908112154746959
    Total Energy =                       -474.6209796006496617
  Basis Set: (AUG-CC-PVTZ AUX)
    Blend: AUG-CC-PVTZ-RI
    Molecular point group: c1

    Geometry (in Angstrom), charge = 0, multiplicity = 1:

       Center              X                  Y                   Z               Mass
    ------------   -----------------  -----------------  -----------------  -----------------
         O           -1.499445917156     1.067536601353     0.094626189053    15.994914619570
         O            1.486207082844    -1.695152398647     0.047889189053    15.994914619570
         N            0.730549082844     0.458852601353    -0.077031810947    14.003074004430
         C           -0.524099917156    -0.008955398647    -0.057034610947    12.000000000000
         C            0.965992082844     1.902291601353    -0.104133810947    12.000000000000
         C            1.736973082844    -0.488665398647     0.021154189053    12.000000000000
         C           -1.260948917156    -1.165367398647    -0.121798810947    12.000000000000
         C           -2.651419917156    -0.852203398647    -0.018455810947    12.000000000000
         C            3.163875082844     0.018510601353     0.082903189053    12.000000000000
         C           -2.752219917156     0.500825601353     0.108148189053    12.000000000000
         H            0.336226082844     2.355795601353    -0.870339810947     1.007825032230
         H            2.006530082844     2.095128601353    -0.349285810947     1.007825032230
         H            0.727589082844     2.361088601353     0.859900189053     1.007825032230
         H           -0.799527917156    -2.131496398647    -0.230703810947     1.007825032230
         H           -3.474864917156    -1.553305398647    -0.038452810947     1.007825032230
         H            3.319750082844     0.715055601353     0.910938189053     1.007825032230
         H            3.456944082844     0.517183601353    -0.845648810947     1.007825032230
         H            3.797104082844    -0.856519398647     0.225665189053     1.007825032230
         H           -3.571122917156     1.196376601353     0.208709189053     1.007825032230

  Basis Set: AUG-CC-PVTZ
    Blend: AUG-CC-PVTZ
  Basis Set: (AUG-CC-PVTZ AUX)
    Blend: AUG-CC-PVTZ-JKFIT
	 Reference Energy          =    -474.6209796006496617 [Eh]
	 Singles Energy            =      -0.0000000000000000 [Eh]
	 Same-Spin Energy          =      -0.4930838106160639 [Eh]
	 Opposite-Spin Energy      =      -1.5310852109133228 [Eh]
	 Correlation Energy        =      -2.0241690215293868 [Eh]
	 Total Energy              =    -476.6451486221790219 [Eh]

	 ================> DF-SCS-MP2 Energies <==================
	-----------------------------------------------------------
	 SCS Same-Spin Scale       =       0.3333333333333333 [-]
	 SCS Opposite-Spin Scale   =       1.2000000000000000 [-]
	 SCS Same-Spin Energy      =      -0.1643612702053546 [Eh]
	 SCS Opposite-Spin Energy  =      -1.8373022530959873 [Eh]
	 SCS Correlation Energy    =      -2.0016635233013420 [Eh]
	 SCS Total Energy          =    -476.6226431239509793 [Eh]
	-----------------------------------------------------------

  Dipole Moment: [D]
     X:     1.0604      Y:     3.2767      Z:    -0.1514     Total:     3.4473

*** Psi4 exiting successfully. Buy a developer a beer!
