                               Psi4 1.3.2 release

  ==> Input File <==

--------------------------------------------------------------------------
#psi4
#
memory 32 gb

molecule  {
0 1
  O       -1.4949344     1.0628010     0.0955489
  O        1.4540340    -1.7305240     0.0480640
  N        0.6983760     0.4234810    -0.0768570
  C       -0.6387160     0.0037620    -0.0484130
  C        0.9338190     1.8669200    -0.1039590
  C        1.7048000    -0.5240370     0.0213290
  C       -1.2931220    -1.2007390    -0.1216240
  C       -2.6835930    -0.8875750    -0.0182810
  C        3.1317020    -0.0168610     0.0830780
  C       -2.7843930     0.4654540     0.1083230
  H        0.3040530     2.3204240    -0.8701650
  H        1.9743570     2.0597570    -0.3491110
  H        0.6954160     2.3257170     0.8600750
  H       -0.8317010    -2.1668680    -0.2305290
  H       -3.5070380    -1.5886770    -0.0382780
  H        3.2875770     0.6796840     0.9111130
  H        3.4247710     0.4818120    -0.8454740
  H        3.7649310    -0.8918910     0.2258400
  H       -3.6032960     1.1610050     0.2088840
units angstrom
no_reorient  #important for SAPT in psi4, default
symmetry c1  #important for SAPT in psi4, default
}

set PROPERTIES_ORIGIN ["COM"]
properties('MP2/aug-cc-pvtz', properties = ['dipole'])
--------------------------------------------------------------------------

    Molecular point group: c1
  Charge       = 0
  Multiplicity = 1
  Basis Set: AUG-CC-PVTZ
    Blend: AUG-CC-PVTZ
  Basis Set: (AUG-CC-PVTZ AUX)
    Blend: AUG-CC-PVTZ-JKFIT

    Orbital Energies [Eh]
    ---------------------

    Doubly Occupied:

       1A    -20.623806     2A    -20.528292     3A    -15.616142
       4A    -11.364978     5A    -11.334395     6A    -11.283291
       7A    -11.277710     8A    -11.246262     9A    -11.235012
      10A    -11.215733    11A     -1.449850    12A     -1.384082
      13A     -1.260440    14A     -1.084044    15A     -1.030030
      16A     -0.988331    17A     -0.951348    18A     -0.836398
      19A     -0.792085    20A     -0.749257    21A     -0.701055
      22A     -0.678935    23A     -0.671086    24A     -0.642667
      25A     -0.617424    26A     -0.591881    27A     -0.588863
      28A     -0.588526    29A     -0.566425    30A     -0.562642
      31A     -0.549706    32A     -0.543836    33A     -0.526257
      34A     -0.433346    35A     -0.430651    36A     -0.396704
      37A     -0.288116

  @DF-RHF Final Energy:  -474.63046002836899

   => Energetics <=

    Nuclear Repulsion Energy =            527.4606925759086380
    One-Electron Energy =               -1692.9230950845967527
    Two-Electron Energy =                 690.8319424803191851
    Total Energy =                       -474.6304600283690434
  Basis Set: (AUG-CC-PVTZ AUX)
    Blend: AUG-CC-PVTZ-RI
    Molecular point group: c1

    Geometry (in Angstrom), charge = 0, multiplicity = 1:

       Center              X                  Y                   Z               Mass
    ------------   -----------------  -----------------  -----------------  -----------------
         O           -1.459866600343     1.090499203804     0.094559178337    15.994914619570
         O            1.489101799657    -1.702825796196     0.047074278337    15.994914619570
         N            0.733443799657     0.451179203804    -0.077846721663    14.003074004430
         C           -0.603648200343     0.031460203804    -0.049402721663    12.000000000000
         C            0.968886799657     1.894618203804    -0.104948721663    12.000000000000
         C            1.739867799657    -0.496338796196     0.020339278337    12.000000000000
         C           -1.258054200343    -1.173040796196    -0.122613721663    12.000000000000
         C           -2.648525200343    -0.859876796196    -0.019270721663    12.000000000000
         C            3.166769799657     0.010837203804     0.082088278337    12.000000000000
         C           -2.749325200343     0.493152203804     0.107333278337    12.000000000000
         H            0.339120799657     2.348122203804    -0.871154721663     1.007825032230
         H            2.009424799657     2.087455203804    -0.350100721663     1.007825032230
         H            0.730483799657     2.353415203804     0.859085278337     1.007825032230
         H           -0.796633200343    -2.139169796196    -0.231518721663     1.007825032230
         H           -3.471970200343    -1.560978796196    -0.039267721663     1.007825032230
         H            3.322644799657     0.707382203804     0.910123278337     1.007825032230
         H            3.459838799657     0.509510203804    -0.846463721663     1.007825032230
         H            3.799998799657    -0.864192796196     0.224850278337     1.007825032230
         H           -3.568228200343     1.188703203804     0.207894278337     1.007825032230

  Basis Set: AUG-CC-PVTZ
    Blend: AUG-CC-PVTZ
  Basis Set: (AUG-CC-PVTZ AUX)
    Blend: AUG-CC-PVTZ-JKFIT
	 Reference Energy          =    -474.6304600283689865 [Eh]
	 Singles Energy            =      -0.0000000000000000 [Eh]
	 Same-Spin Energy          =      -0.4919906365989798 [Eh]
	 Opposite-Spin Energy      =      -1.5295274581058109 [Eh]
	 Correlation Energy        =      -2.0215180947047906 [Eh]
	 Total Energy              =    -476.6519781230737749 [Eh]

	 ================> DF-SCS-MP2 Energies <==================
	-----------------------------------------------------------
	 SCS Same-Spin Scale       =       0.3333333333333333 [-]
	 SCS Opposite-Spin Scale   =       1.2000000000000000 [-]
	 SCS Same-Spin Energy      =      -0.1639968788663266 [Eh]
	 SCS Opposite-Spin Energy  =      -1.8354329497269730 [Eh]
	 SCS Correlation Energy    =      -1.9994298285932997 [Eh]
	 SCS Total Energy          =    -476.6298898569622793 [Eh]
	-----------------------------------------------------------

  Dipole Moment: [D]
     X:     0.5275      Y:     3.1611      Z:    -0.1376     Total:     3.2078

*** Psi4 exiting successfully. Buy a developer a beer!
