                               Psi4 1.3.2 release

  ==> Input File <==

--------------------------------------------------------------------------
#psi4
#
memory 32 gb

molecule  {
0 1
  O       -1.5316190     1.0321650     0.0948010
  O        1.4540340    -1.7305240     0.0480640
  N        0.6983760     0.4234810    -0.0768570
  C       -0.6177948    -0.0077112    -0.0505773
  C        0.9338190     1.8669200    -0.1039590
  C        1.7048000    -0.5240370     0.0213290
  C       -1.2931220    -1.2007390    -0.1216240
  C       -2.6835930    -0.8875750    -0.0182810
  C        3.1317020    -0.0168610     0.0830780
  C       -2.7843930     0.4654540     0.1083230
  H        0.3040530     2.3204240    -0.8701650
  H        1.9743570     2.0597570    -0.3491110
  H        0.6954160     2.3257170     0.8600750
  H       -0.8317010    -2.1668680    -0.2305290
  H       -3.5070380    -1.5886770    -0.0382780
  H        3.2875770     0.6796840     0.9111130
  H        3.4247710     0.4818120    -0.8454740
  H        3.7649310    -0.8918910     0.2258400
  H       -3.6032960     1.1610050     0.2088840
units angstrom
no_reorient  #important for SAPT in psi4, default
symmetry c1  #important for SAPT in psi4, default
}

set PROPERTIES_ORIGIN ["COM"]
properties('MP2/aug-cc-pvtz', properties = ['dipole'])
--------------------------------------------------------------------------

    Molecular point group: c1
  Charge       = 0
  Multiplicity = 1
  Basis Set: AUG-CC-PVTZ
    Blend: AUG-CC-PVTZ
  Basis Set: (AUG-CC-PVTZ AUX)
    Blend: AUG-CC-PVTZ-JKFIT

    Orbital Energies [Eh]
    ---------------------

    Doubly Occupied:

       1A    -20.620807     2A    -20.529910     3A    -15.618776
       4A    -11.366460     5A    -11.332203     6A    -11.280431
       7A    -11.280233     8A    -11.247422     9A    -11.228137
      10A    -11.215943    11A     -1.452498    12A     -1.386585
      13A     -1.267007    14A     -1.078156    15A     -1.032895
      16A     -0.991042    17A     -0.955308    18A     -0.838694
      19A     -0.792870    20A     -0.747376    21A     -0.703628
      22A     -0.680753    23A     -0.672774    24A     -0.648850
      25A     -0.619500    26A     -0.593293    27A     -0.590233
      28A     -0.588970    29A     -0.567290    30A     -0.560093
      31A     -0.549027    32A     -0.540132    33A     -0.528518
      34A     -0.437310    35A     -0.432958    36A     -0.390517
      37A     -0.286252

  @DF-RHF Final Energy:  -474.63286363389170

   => Energetics <=

    Nuclear Repulsion Energy =            527.9394949345572741
    One-Electron Energy =               -1693.8390126968829463
    Two-Electron Energy =                 691.2666541284338564
    Total Energy =                       -474.6328636338917022
  Basis Set: (AUG-CC-PVTZ AUX)
    Blend: AUG-CC-PVTZ-RI
    Molecular point group: c1

    Geometry (in Angstrom), charge = 0, multiplicity = 1:

       Center              X                  Y                   Z               Mass
    ------------   -----------------  -----------------  -----------------  -----------------
         O           -1.494137101325     1.064376964627     0.094084061946    15.994914619570
         O            1.491515898675    -1.698312035373     0.047347061946    15.994914619570
         N            0.735857898675     0.455692964627    -0.077573938054    14.003074004430
         C           -0.580312901325     0.024500764627    -0.051294238054    12.000000000000
         C            0.971300898675     1.899131964627    -0.104675938054    12.000000000000
         C            1.742281898675    -0.491825035373     0.020612061946    12.000000000000
         C           -1.255640101325    -1.168527035373    -0.122340938054    12.000000000000
         C           -2.646111101325    -0.855363035373    -0.018997938054    12.000000000000
         C            3.169183898675     0.015350964627     0.082361061946    12.000000000000
         C           -2.746911101325     0.497665964627     0.107606061946    12.000000000000
         H            0.341534898675     2.352635964627    -0.870881938054     1.007825032230
         H            2.011838898675     2.091968964627    -0.349827938054     1.007825032230
         H            0.732897898675     2.357928964627     0.859358061946     1.007825032230
         H           -0.794219101325    -2.134656035373    -0.231245938054     1.007825032230
         H           -3.469556101325    -1.556465035373    -0.038994938054     1.007825032230
         H            3.325058898675     0.711895964627     0.910396061946     1.007825032230
         H            3.462252898675     0.514023964627    -0.846190938054     1.007825032230
         H            3.802412898675    -0.859679035373     0.225123061946     1.007825032230
         H           -3.565814101325     1.193216964627     0.208167061946     1.007825032230

  Basis Set: AUG-CC-PVTZ
    Blend: AUG-CC-PVTZ
  Basis Set: (AUG-CC-PVTZ AUX)
    Blend: AUG-CC-PVTZ-JKFIT
	 Reference Energy          =    -474.6328636338917022 [Eh]
	 Singles Energy            =      -0.0000000000000000 [Eh]
	 Same-Spin Energy          =      -0.4921166286233375 [Eh]
	 Opposite-Spin Energy      =      -1.5288133266476918 [Eh]
	 Correlation Energy        =      -2.0209299552710291 [Eh]
	 Total Energy              =    -476.6537935891627171 [Eh]

	 ================> DF-SCS-MP2 Energies <==================
	-----------------------------------------------------------
	 SCS Same-Spin Scale       =       0.3333333333333333 [-]
	 SCS Opposite-Spin Scale   =       1.2000000000000000 [-]
	 SCS Same-Spin Energy      =      -0.1640388762077792 [Eh]
	 SCS Opposite-Spin Energy  =      -1.8345759919772300 [Eh]
	 SCS Correlation Energy    =      -1.9986148681850091 [Eh]
	 SCS Total Energy          =    -476.6314785020767317 [Eh]
	-----------------------------------------------------------

  Dipole Moment: [D]
     X:     0.7395      Y:     3.2819      Z:    -0.1359     Total:     3.3669

*** Psi4 exiting successfully. Buy a developer a beer!
