                               Psi4 1.3.2 release

  ==> Input File <==

--------------------------------------------------------------------------
#psi4
#
memory 32 gb

molecule  {
0 1
  O       -1.5316190     1.0321650     0.0948010
  O        1.4540340    -1.7305240     0.0480640
  N        0.6983760     0.4234810    -0.0768570
  C       -0.6387160     0.0037620    -0.0484130
  C        0.9338190     1.8669200    -0.1039590
  C        1.7048000    -0.5240370     0.0213290
  C       -1.3188888    -1.2968134    -0.1290396
  C       -2.6835930    -0.8875750    -0.0182810
  C        3.1317020    -0.0168610     0.0830780
  C       -2.7843930     0.4654540     0.1083230
  H        0.3040530     2.3204240    -0.8701650
  H        1.9743570     2.0597570    -0.3491110
  H        0.6954160     2.3257170     0.8600750
  H       -0.8317010    -2.1668680    -0.2305290
  H       -3.5070380    -1.5886770    -0.0382780
  H        3.2875770     0.6796840     0.9111130
  H        3.4247710     0.4818120    -0.8454740
  H        3.7649310    -0.8918910     0.2258400
  H       -3.6032960     1.1610050     0.2088840
units angstrom
no_reorient  #important for SAPT in psi4, default
symmetry c1  #important for SAPT in psi4, default
}

set PROPERTIES_ORIGIN ["COM"]
properties('MP2/aug-cc-pvtz', properties = ['dipole'])
--------------------------------------------------------------------------

    Molecular point group: c1
  Charge       = 0
  Multiplicity = 1
  Basis Set: AUG-CC-PVTZ
    Blend: AUG-CC-PVTZ
  Basis Set: (AUG-CC-PVTZ AUX)
    Blend: AUG-CC-PVTZ-JKFIT

    Orbital Energies [Eh]
    ---------------------

    Doubly Occupied:

       1A    -20.631867     2A    -20.530915     3A    -15.621100
       4A    -11.367433     5A    -11.347558     6A    -11.280875
       7A    -11.277002     8A    -11.248237     9A    -11.231639
      10A    -11.222184    11A     -1.463440    12A     -1.386922
      13A     -1.265336    14A     -1.072286    15A     -1.032159
      16A     -0.988553    17A     -0.954405    18A     -0.839428
      19A     -0.792884    20A     -0.756168    21A     -0.703577
      22A     -0.681530    23A     -0.673688    24A     -0.652548
      25A     -0.623213    26A     -0.594557    27A     -0.592895
      28A     -0.590371    29A     -0.580750    30A     -0.565575
      31A     -0.551129    32A     -0.530505    33A     -0.525828
      34A     -0.436081    35A     -0.432569    36A     -0.391457
      37A     -0.276843

  @DF-RHF Final Energy:  -474.61609534875544

   => Energetics <=

    Nuclear Repulsion Energy =            526.0216800053200359
    One-Electron Energy =               -1689.8485305150445583
    Two-Electron Energy =                 689.2107551609689153
    Total Energy =                       -474.6160953487554934
  Basis Set: (AUG-CC-PVTZ AUX)
    Blend: AUG-CC-PVTZ-RI
    Molecular point group: c1

    Geometry (in Angstrom), charge = 0, multiplicity = 1:

       Center              X                  Y                   Z               Mass
    ------------   -----------------  -----------------  -----------------  -----------------
         O           -1.490108318137     1.071677339289     0.094537205134    15.994914619570
         O            1.495544681863    -1.691011660711     0.047800205134    15.994914619570
         N            0.739886681863     0.462993339289    -0.077120794866    14.003074004430
         C           -0.597205318137     0.043274339289    -0.048676794866    12.000000000000
         C            0.975329681863     1.906432339289    -0.104222794866    12.000000000000
         C            1.746310681863    -0.484524660711     0.021065205134    12.000000000000
         C           -1.277378118137    -1.257301060711    -0.129303394866    12.000000000000
         C           -2.642082318137    -0.848062660711    -0.018544794866    12.000000000000
         C            3.173212681863     0.022651339289     0.082814205134    12.000000000000
         C           -2.742882318137     0.504966339289     0.108059205134    12.000000000000
         H            0.345563681863     2.359936339289    -0.870428794866     1.007825032230
         H            2.015867681863     2.099269339289    -0.349374794866     1.007825032230
         H            0.736926681863     2.365229339289     0.859811205134     1.007825032230
         H           -0.790190318137    -2.127355660711    -0.230792794866     1.007825032230
         H           -3.465527318137    -1.549164660711    -0.038541794866     1.007825032230
         H            3.329087681863     0.719196339289     0.910849205134     1.007825032230
         H            3.466281681863     0.521324339289    -0.845737794866     1.007825032230
         H            3.806441681863    -0.852378660711     0.225576205134     1.007825032230
         H           -3.561785318137     1.200517339289     0.208620205134     1.007825032230

  Basis Set: AUG-CC-PVTZ
    Blend: AUG-CC-PVTZ
  Basis Set: (AUG-CC-PVTZ AUX)
    Blend: AUG-CC-PVTZ-JKFIT
	 Reference Energy          =    -474.6160953487554366 [Eh]
	 Singles Energy            =      -0.0000000000000000 [Eh]
	 Same-Spin Energy          =      -0.4934867374865322 [Eh]
	 Opposite-Spin Energy      =      -1.5311847631608864 [Eh]
	 Correlation Energy        =      -2.0246715006474187 [Eh]
	 Total Energy              =    -476.6407668494028371 [Eh]

	 ================> DF-SCS-MP2 Energies <==================
	-----------------------------------------------------------
	 SCS Same-Spin Scale       =       0.3333333333333333 [-]
	 SCS Opposite-Spin Scale   =       1.2000000000000000 [-]
	 SCS Same-Spin Energy      =      -0.1644955791621774 [Eh]
	 SCS Opposite-Spin Energy  =      -1.8374217157930635 [Eh]
	 SCS Correlation Energy    =      -2.0019172949552408 [Eh]
	 SCS Total Energy          =    -476.6180126437106992 [Eh]
	-----------------------------------------------------------

  Dipole Moment: [D]
     X:     0.6980      Y:     3.3636      Z:    -0.1253     Total:     3.4375

*** Psi4 exiting successfully. Buy a developer a beer!
