                               Psi4 1.3.2 release

  ==> Input File <==

--------------------------------------------------------------------------
#psi4
#
memory 32 gb

molecule  {
0 1
  O       -1.5316190     1.0321650     0.0948010
  O        1.4540340    -1.7305240     0.0480640
  N        0.6983760     0.4234810    -0.0768570
  C       -0.6754095    -0.0268590    -0.0493246
  C        0.9338190     1.8669200    -0.1039590
  C        1.7048000    -0.5240370     0.0213290
  C       -1.2931220    -1.2007390    -0.1216240
  C       -2.6835930    -0.8875750    -0.0182810
  C        3.1317020    -0.0168610     0.0830780
  C       -2.7843930     0.4654540     0.1083230
  H        0.3040530     2.3204240    -0.8701650
  H        1.9743570     2.0597570    -0.3491110
  H        0.6954160     2.3257170     0.8600750
  H       -0.8317010    -2.1668680    -0.2305290
  H       -3.5070380    -1.5886770    -0.0382780
  H        3.2875770     0.6796840     0.9111130
  H        3.4247710     0.4818120    -0.8454740
  H        3.7649310    -0.8918910     0.2258400
  H       -3.6032960     1.1610050     0.2088840
units angstrom
no_reorient  #important for SAPT in psi4, default
symmetry c1  #important for SAPT in psi4, default
}

set PROPERTIES_ORIGIN ["COM"]
properties('MP2/aug-cc-pvtz', properties = ['dipole'])
--------------------------------------------------------------------------

    Molecular point group: c1
  Charge       = 0
  Multiplicity = 1
  Basis Set: AUG-CC-PVTZ
    Blend: AUG-CC-PVTZ
  Basis Set: (AUG-CC-PVTZ AUX)
    Blend: AUG-CC-PVTZ-JKFIT

    Orbital Energies [Eh]
    ---------------------

    Doubly Occupied:

       1A    -20.625621     2A    -20.524900     3A    -15.613572
       4A    -11.362247     5A    -11.329531     6A    -11.283475
       7A    -11.276234     8A    -11.244444     9A    -11.231248
      10A    -11.213959    11A     -1.464354    12A     -1.380917
      13A     -1.250525    14A     -1.091378    15A     -1.028161
      16A     -0.990107    17A     -0.952736    18A     -0.830566
      19A     -0.795429    20A     -0.754069    21A     -0.700757
      22A     -0.676559    23A     -0.669455    24A     -0.644633
      25A     -0.623676    26A     -0.590693    27A     -0.587959
      28A     -0.586322    29A     -0.571604    30A     -0.561749
      31A     -0.549563    32A     -0.544092    33A     -0.523877
      34A     -0.430750    35A     -0.427565    36A     -0.395568
      37A     -0.296929

  @DF-RHF Final Energy:  -474.63257814401675

   => Energetics <=

    Nuclear Repulsion Energy =            527.9135621767596831
    One-Electron Energy =               -1693.8418308876753144
    Two-Electron Energy =                 691.2956905668989975
    Total Energy =                       -474.6325781440167475
  Basis Set: (AUG-CC-PVTZ AUX)
    Blend: AUG-CC-PVTZ-RI
    Molecular point group: c1

    Geometry (in Angstrom), charge = 0, multiplicity = 1:

       Center              X                  Y                   Z               Mass
    ------------   -----------------  -----------------  -----------------  -----------------
         O           -1.489165435485     1.066029259322     0.093975964433    15.994914619570
         O            1.496487564515    -1.696659740678     0.047238964433    15.994914619570
         N            0.740829564515     0.457345259322    -0.077682035567    14.003074004430
         C           -0.632955935485     0.007005259322    -0.050149635567    12.000000000000
         C            0.976272564515     1.900784259322    -0.104784035567    12.000000000000
         C            1.747253564515    -0.490172740678     0.020503964433    12.000000000000
         C           -1.250668435485    -1.166874740678    -0.122449035567    12.000000000000
         C           -2.641139435485    -0.853710740678    -0.019106035567    12.000000000000
         C            3.174155564515     0.017003259322     0.082252964433    12.000000000000
         C           -2.741939435485     0.499318259322     0.107497964433    12.000000000000
         H            0.346506564515     2.354288259322    -0.870990035567     1.007825032230
         H            2.016810564515     2.093621259322    -0.349936035567     1.007825032230
         H            0.737869564515     2.359581259322     0.859249964433     1.007825032230
         H           -0.789247435485    -2.133003740678    -0.231354035567     1.007825032230
         H           -3.464584435485    -1.554812740678    -0.039103035567     1.007825032230
         H            3.330030564515     0.713548259322     0.910287964433     1.007825032230
         H            3.467224564515     0.515676259322    -0.846299035567     1.007825032230
         H            3.807384564515    -0.858026740678     0.225014964433     1.007825032230
         H           -3.560842435485     1.194869259322     0.208058964433     1.007825032230

  Basis Set: AUG-CC-PVTZ
    Blend: AUG-CC-PVTZ
  Basis Set: (AUG-CC-PVTZ AUX)
    Blend: AUG-CC-PVTZ-JKFIT
	 Reference Energy          =    -474.6325781440167475 [Eh]
	 Singles Energy            =      -0.0000000000000000 [Eh]
	 Same-Spin Energy          =      -0.4909384213301363 [Eh]
	 Opposite-Spin Energy      =      -1.5273078833492364 [Eh]
	 Correlation Energy        =      -2.0182463046793728 [Eh]
	 Total Energy              =    -476.6508244486961416 [Eh]

	 ================> DF-SCS-MP2 Energies <==================
	-----------------------------------------------------------
	 SCS Same-Spin Scale       =       0.3333333333333333 [-]
	 SCS Opposite-Spin Scale   =       1.2000000000000000 [-]
	 SCS Same-Spin Energy      =      -0.1636461404433788 [Eh]
	 SCS Opposite-Spin Energy  =      -1.8327694600190836 [Eh]
	 SCS Correlation Energy    =      -1.9964156004624622 [Eh]
	 SCS Total Energy          =    -476.6289937444792031 [Eh]
	-----------------------------------------------------------

  Dipole Moment: [D]
     X:     0.3972      Y:     3.1863      Z:    -0.1369     Total:     3.2139

*** Psi4 exiting successfully. Buy a developer a beer!
