                               Psi4 1.3.2 release

  ==> Input File <==

--------------------------------------------------------------------------
#psi4
#
memory 32 gb

molecule  {
0 1
  O       -1.5316190     1.0321650     0.0948010
  O        1.4540340    -1.7305240     0.0480640
  N        0.6983760     0.4234810    -0.0768570
  C       -0.6207745     0.0195447    -0.0478917
  C        0.9338190     1.8669200    -0.1039590
  C        1.7048000    -0.5240370     0.0213290
  C       -1.2931220    -1.2007390    -0.1216240
  C       -2.6835930    -0.8875750    -0.0182810
  C        3.1317020    -0.0168610     0.0830780
  C       -2.7843930     0.4654540     0.1083230
  H        0.3040530     2.3204240    -0.8701650
  H        1.9743570     2.0597570    -0.3491110
  H        0.6954160     2.3257170     0.8600750
  H       -0.8317010    -2.1668680    -0.2305290
  H       -3.5070380    -1.5886770    -0.0382780
  H        3.2875770     0.6796840     0.9111130
  H        3.4247710     0.4818120    -0.8454740
  H        3.7649310    -0.8918910     0.2258400
  H       -3.6032960     1.1610050     0.2088840
units angstrom
no_reorient  #important for SAPT in psi4, default
symmetry c1  #important for SAPT in psi4, default
}

set PROPERTIES_ORIGIN ["COM"]
properties('MP2/aug-cc-pvtz', properties = ['dipole'])
--------------------------------------------------------------------------

    Molecular point group: c1
  Charge       = 0
  Multiplicity = 1
  Basis Set: AUG-CC-PVTZ
    Blend: AUG-CC-PVTZ
  Basis Set: (AUG-CC-PVTZ AUX)
    Blend: AUG-CC-PVTZ-JKFIT

    Orbital Energies [Eh]
    ---------------------

    Doubly Occupied:

       1A    -20.624480     2A    -20.530365     3A    -15.619290
       4A    -11.367286     5A    -11.334053     6A    -11.280507
       7A    -11.278872     8A    -11.248016     9A    -11.228407
      10A    -11.216056    11A     -1.461166    12A     -1.387032
      13A     -1.269141    14A     -1.075250    15A     -1.034064
      16A     -0.991195    17A     -0.955734    18A     -0.839744
      19A     -0.794142    20A     -0.749131    21A     -0.704033
      22A     -0.681511    23A     -0.674945    24A     -0.651094
      25A     -0.622368    26A     -0.594152    27A     -0.591689
      28A     -0.589702    29A     -0.567976    30A     -0.558281
      31A     -0.550859    32A     -0.537693    33A     -0.528581
      34A     -0.437102    35A     -0.433332    36A     -0.389874
      37A     -0.282724

  @DF-RHF Final Energy:  -474.63263343002581

   => Energetics <=

    Nuclear Repulsion Energy =            528.0461544154024978
    One-Electron Energy =               -1693.9978825466416765
    Two-Electron Energy =                 691.3190947012134302
    Total Energy =                       -474.6326334300257486
  Basis Set: (AUG-CC-PVTZ AUX)
    Blend: AUG-CC-PVTZ-RI
    Molecular point group: c1

    Geometry (in Angstrom), charge = 0, multiplicity = 1:

       Center              X                  Y                   Z               Mass
    ------------   -----------------  -----------------  -----------------  -----------------
         O           -1.493879978183     1.062025008842     0.093852317170    15.994914619570
         O            1.491773021817    -1.700663991158     0.047115317170    15.994914619570
         N            0.736115021817     0.453341008842    -0.077805682830    14.003074004430
         C           -0.583035478183     0.049404708842    -0.048840382830    12.000000000000
         C            0.971558021817     1.896780008842    -0.104907682830    12.000000000000
         C            1.742539021817    -0.494176991158     0.020380317170    12.000000000000
         C           -1.255382978183    -1.170878991158    -0.122572682830    12.000000000000
         C           -2.645853978183    -0.857714991158    -0.019229682830    12.000000000000
         C            3.169441021817     0.012999008842     0.082129317170    12.000000000000
         C           -2.746653978183     0.495314008842     0.107374317170    12.000000000000
         H            0.341792021817     2.350284008842    -0.871113682830     1.007825032230
         H            2.012096021817     2.089617008842    -0.350059682830     1.007825032230
         H            0.733155021817     2.355577008842     0.859126317170     1.007825032230
         H           -0.793961978183    -2.137007991158    -0.231477682830     1.007825032230
         H           -3.469298978183    -1.558816991158    -0.039226682830     1.007825032230
         H            3.325316021817     0.709544008842     0.910164317170     1.007825032230
         H            3.462510021817     0.511672008842    -0.846422682830     1.007825032230
         H            3.802670021817    -0.862030991158     0.224891317170     1.007825032230
         H           -3.565556978183     1.190865008842     0.207935317170     1.007825032230

  Basis Set: AUG-CC-PVTZ
    Blend: AUG-CC-PVTZ
  Basis Set: (AUG-CC-PVTZ AUX)
    Blend: AUG-CC-PVTZ-JKFIT
	 Reference Energy          =    -474.6326334300258054 [Eh]
	 Singles Energy            =      -0.0000000000000000 [Eh]
	 Same-Spin Energy          =      -0.4924078991209352 [Eh]
	 Opposite-Spin Energy      =      -1.5287414757468964 [Eh]
	 Correlation Energy        =      -2.0211493748678317 [Eh]
	 Total Energy              =    -476.6537828048936376 [Eh]

	 ================> DF-SCS-MP2 Energies <==================
	-----------------------------------------------------------
	 SCS Same-Spin Scale       =       0.3333333333333333 [-]
	 SCS Opposite-Spin Scale   =       1.2000000000000000 [-]
	 SCS Same-Spin Energy      =      -0.1641359663736451 [Eh]
	 SCS Opposite-Spin Energy  =      -1.8344897708962757 [Eh]
	 SCS Correlation Energy    =      -1.9986257372699208 [Eh]
	 SCS Total Energy          =    -476.6312591672957524 [Eh]
	-----------------------------------------------------------

  Dipole Moment: [D]
     X:     0.7483      Y:     3.3327      Z:    -0.1275     Total:     3.4181

*** Psi4 exiting successfully. Buy a developer a beer!
