                               Psi4 1.3.2 release

  ==> Input File <==

--------------------------------------------------------------------------
#psi4
#
memory 32 gb

molecule  {
0 1
  O       -1.4184365     1.1200877     0.0973665
  O        1.4540340    -1.7305240     0.0480640
  N        0.6983760     0.4234810    -0.0768570
  C       -0.6387160     0.0037620    -0.0484130
  C        0.9338190     1.8669200    -0.1039590
  C        1.7048000    -0.5240370     0.0213290
  C       -1.2931220    -1.2007390    -0.1216240
  C       -2.6835930    -0.8875750    -0.0182810
  C        3.1317020    -0.0168610     0.0830780
  C       -2.7843930     0.4654540     0.1083230
  H        0.3040530     2.3204240    -0.8701650
  H        1.9743570     2.0597570    -0.3491110
  H        0.6954160     2.3257170     0.8600750
  H       -0.8317010    -2.1668680    -0.2305290
  H       -3.5070380    -1.5886770    -0.0382780
  H        3.2875770     0.6796840     0.9111130
  H        3.4247710     0.4818120    -0.8454740
  H        3.7649310    -0.8918910     0.2258400
  H       -3.6032960     1.1610050     0.2088840
units angstrom
no_reorient  #important for SAPT in psi4, default
symmetry c1  #important for SAPT in psi4, default
}

set PROPERTIES_ORIGIN ["COM"]
properties('MP2/aug-cc-pvtz', properties = ['dipole'])
--------------------------------------------------------------------------

    Molecular point group: c1
  Charge       = 0
  Multiplicity = 1
  Basis Set: AUG-CC-PVTZ
    Blend: AUG-CC-PVTZ
  Basis Set: (AUG-CC-PVTZ AUX)
    Blend: AUG-CC-PVTZ-JKFIT

    Orbital Energies [Eh]
    ---------------------

    Doubly Occupied:

       1A    -20.620963     2A    -20.527650     3A    -15.613397
       4A    -11.363515     5A    -11.338112     6A    -11.289498
       7A    -11.274810     8A    -11.245745     9A    -11.245010
      10A    -11.216309    11A     -1.431142    12A     -1.381737
      13A     -1.255179    14A     -1.092076    15A     -1.026672
      16A     -0.984821    17A     -0.944863    18A     -0.836642
      19A     -0.789809    20A     -0.743955    21A     -0.698302
      22A     -0.677422    23A     -0.668402    24A     -0.633836
      25A     -0.609172    26A     -0.592243    27A     -0.587524
      28A     -0.583815    29A     -0.565951    30A     -0.561987
      31A     -0.550913    32A     -0.540835    33A     -0.524446
      34A     -0.431328    35A     -0.428356    36A     -0.406125
      37A     -0.289069

  @DF-RHF Final Energy:  -474.61312727809729

   => Energetics <=

    Nuclear Repulsion Energy =            526.6269526987895233
    One-Electron Energy =               -1691.3368959434947101
    Two-Electron Energy =                 690.0968159666080055
    Total Energy =                       -474.6131272780972949
  Basis Set: (AUG-CC-PVTZ AUX)
    Blend: AUG-CC-PVTZ-RI
    Molecular point group: c1

    Geometry (in Angstrom), charge = 0, multiplicity = 1:

       Center              X                  Y                   Z               Mass
    ------------   -----------------  -----------------  -----------------  -----------------
         O           -1.392167406601     1.141196849126     0.096167719938    15.994914619570
         O            1.480303093399    -1.709414850874     0.046865219938    15.994914619570
         N            0.724645093399     0.444590149126    -0.078055780062    14.003074004430
         C           -0.612446906601     0.024871149126    -0.049611780062    12.000000000000
         C            0.960088093399     1.888029149126    -0.105157780062    12.000000000000
         C            1.731069093399    -0.502927850874     0.020130219938    12.000000000000
         C           -1.266852906601    -1.179629850874    -0.122822780062    12.000000000000
         C           -2.657323906601    -0.866465850874    -0.019479780062    12.000000000000
         C            3.157971093399     0.004248149126     0.081879219938    12.000000000000
         C           -2.758123906601     0.486563149126     0.107124219938    12.000000000000
         H            0.330322093399     2.341533149126    -0.871363780062     1.007825032230
         H            2.000626093399     2.080866149126    -0.350309780062     1.007825032230
         H            0.721685093399     2.346826149126     0.858876219938     1.007825032230
         H           -0.805431906601    -2.145758850874    -0.231727780062     1.007825032230
         H           -3.480768906601    -1.567567850874    -0.039476780062     1.007825032230
         H            3.313846093399     0.700793149126     0.909914219938     1.007825032230
         H            3.451040093399     0.502921149126    -0.846672780062     1.007825032230
         H            3.791200093399    -0.870781850874     0.224641219938     1.007825032230
         H           -3.577026906601     1.182114149126     0.207685219938     1.007825032230

  Basis Set: AUG-CC-PVTZ
    Blend: AUG-CC-PVTZ
  Basis Set: (AUG-CC-PVTZ AUX)
    Blend: AUG-CC-PVTZ-JKFIT
	 Reference Energy          =    -474.6131272780972949 [Eh]
	 Singles Energy            =      -0.0000000000000000 [Eh]
	 Same-Spin Energy          =      -0.4925777706265547 [Eh]
	 Opposite-Spin Energy      =      -1.5326863622136873 [Eh]
	 Correlation Energy        =      -2.0252641328402419 [Eh]
	 Total Energy              =    -476.6383914109375155 [Eh]

	 ================> DF-SCS-MP2 Energies <==================
	-----------------------------------------------------------
	 SCS Same-Spin Scale       =       0.3333333333333333 [-]
	 SCS Opposite-Spin Scale   =       1.2000000000000000 [-]
	 SCS Same-Spin Energy      =      -0.1641925902088516 [Eh]
	 SCS Opposite-Spin Energy  =      -1.8392236346564246 [Eh]
	 SCS Correlation Energy    =      -2.0034162248652763 [Eh]
	 SCS Total Energy          =    -476.6165435029625996 [Eh]
	-----------------------------------------------------------

  Dipole Moment: [D]
     X:     0.3099      Y:     2.9453      Z:    -0.1491     Total:     2.9653

*** Psi4 exiting successfully. Buy a developer a beer!
