                               Psi4 1.3.2 release

  ==> Input File <==

--------------------------------------------------------------------------
#psi4
#
memory 32 gb

molecule  {
0 1
  O       -1.4571765     1.0920942     0.0966877
  O        1.4540340    -1.7305240     0.0480640
  N        0.6983760     0.4234810    -0.0768570
  C       -0.6387160     0.0037620    -0.0484130
  C        0.9338190     1.8669200    -0.1039590
  C        1.7048000    -0.5240370     0.0213290
  C       -1.2931220    -1.2007390    -0.1216240
  C       -2.6835930    -0.8875750    -0.0182810
  C        3.1317020    -0.0168610     0.0830780
  C       -2.7843930     0.4654540     0.1083230
  H        0.3040530     2.3204240    -0.8701650
  H        1.9743570     2.0597570    -0.3491110
  H        0.6954160     2.3257170     0.8600750
  H       -0.8317010    -2.1668680    -0.2305290
  H       -3.5070380    -1.5886770    -0.0382780
  H        3.2875770     0.6796840     0.9111130
  H        3.4247710     0.4818120    -0.8454740
  H        3.7649310    -0.8918910     0.2258400
  H       -3.6032960     1.1610050     0.2088840
units angstrom
no_reorient  #important for SAPT in psi4, default
symmetry c1  #important for SAPT in psi4, default
}

set PROPERTIES_ORIGIN ["COM"]
properties('MP2/aug-cc-pvtz', properties = ['dipole'])
--------------------------------------------------------------------------

    Molecular point group: c1
  Charge       = 0
  Multiplicity = 1
  Basis Set: AUG-CC-PVTZ
    Blend: AUG-CC-PVTZ
  Basis Set: (AUG-CC-PVTZ AUX)
    Blend: AUG-CC-PVTZ-JKFIT

    Orbital Energies [Eh]
    ---------------------

    Doubly Occupied:

       1A    -20.622524     2A    -20.528011     3A    -15.614808
       4A    -11.364291     5A    -11.336275     6A    -11.286312
       7A    -11.276299     8A    -11.245667     9A    -11.240484
      10A    -11.216001    11A     -1.439561    12A     -1.383028
      13A     -1.257948    14A     -1.088035    15A     -1.028277
      16A     -0.986409    17A     -0.947950    18A     -0.836576
      19A     -0.790390    20A     -0.746906    21A     -0.699572
      22A     -0.678163    23A     -0.669614    24A     -0.637452
      25A     -0.612863    26A     -0.591689    27A     -0.588413
      28A     -0.586601    29A     -0.566401    30A     -0.562382
      31A     -0.549431    32A     -0.544375    33A     -0.525381
      34A     -0.432256    35A     -0.429623    36A     -0.401491
      37A     -0.288601

  @DF-RHF Final Energy:  -474.62316910289690

   => Energetics <=

    Nuclear Repulsion Energy =            527.0070234132326732
    One-Electron Energy =               -1692.0602637335789495
    Two-Electron Energy =                 690.4300712174493810
    Total Energy =                       -474.6231691028968953
  Basis Set: (AUG-CC-PVTZ AUX)
    Blend: AUG-CC-PVTZ-RI
    Molecular point group: c1

    Geometry (in Angstrom), charge = 0, multiplicity = 1:

       Center              X                  Y                   Z               Mass
    ------------   -----------------  -----------------  -----------------  -----------------
         O           -1.426451573429     1.116423131417     0.095566994785    15.994914619570
         O            1.484758926571    -1.706195068583     0.046943294785    15.994914619570
         N            0.729100926571     0.447809931417    -0.077977705215    14.003074004430
         C           -0.607991073429     0.028090931417    -0.049533705215    12.000000000000
         C            0.964543926571     1.891248931417    -0.105079705215    12.000000000000
         C            1.735524926571    -0.499708068583     0.020208294785    12.000000000000
         C           -1.262397073429    -1.176410068583    -0.122744705215    12.000000000000
         C           -2.652868073429    -0.863246068583    -0.019401705215    12.000000000000
         C            3.162426926571     0.007467931417     0.081957294785    12.000000000000
         C           -2.753668073429     0.489782931417     0.107202294785    12.000000000000
         H            0.334777926571     2.344752931417    -0.871285705215     1.007825032230
         H            2.005081926571     2.084085931417    -0.350231705215     1.007825032230
         H            0.726140926571     2.350045931417     0.858954294785     1.007825032230
         H           -0.800976073429    -2.142539068583    -0.231649705215     1.007825032230
         H           -3.476313073429    -1.564348068583    -0.039398705215     1.007825032230
         H            3.318301926571     0.704012931417     0.909992294785     1.007825032230
         H            3.455495926571     0.506140931417    -0.846594705215     1.007825032230
         H            3.795655926571    -0.867562068583     0.224719294785     1.007825032230
         H           -3.572571073429     1.185333931417     0.207763294785     1.007825032230

  Basis Set: AUG-CC-PVTZ
    Blend: AUG-CC-PVTZ
  Basis Set: (AUG-CC-PVTZ AUX)
    Blend: AUG-CC-PVTZ-JKFIT
	 Reference Energy          =    -474.6231691028968953 [Eh]
	 Singles Energy            =      -0.0000000000000000 [Eh]
	 Same-Spin Energy          =      -0.4922261619618826 [Eh]
	 Opposite-Spin Energy      =      -1.5310310959276785 [Eh]
	 Correlation Energy        =      -2.0232572578895613 [Eh]
	 Total Energy              =    -476.6464263607864495 [Eh]

	 ================> DF-SCS-MP2 Energies <==================
	-----------------------------------------------------------
	 SCS Same-Spin Scale       =       0.3333333333333333 [-]
	 SCS Opposite-Spin Scale   =       1.2000000000000000 [-]
	 SCS Same-Spin Energy      =      -0.1640753873206275 [Eh]
	 SCS Opposite-Spin Energy  =      -1.8372373151132142 [Eh]
	 SCS Correlation Energy    =      -2.0013127024338417 [Eh]
	 SCS Total Energy          =    -476.6244818053307313 [Eh]
	-----------------------------------------------------------

  Dipole Moment: [D]
     X:     0.4194      Y:     3.0482      Z:    -0.1439     Total:     3.0803

*** Psi4 exiting successfully. Buy a developer a beer!
