                               Psi4 1.3.2 release

  ==> Input File <==

--------------------------------------------------------------------------
#psi4
#
memory 32 gb

molecule  {
0 1
  O       -1.5316190     1.0321650     0.0948010
  O        1.4540340    -1.7305240     0.0480640
  N        0.6983760     0.4234810    -0.0768570
  C       -0.5083130    -0.1464299    -0.0693285
  C        0.9338190     1.8669200    -0.1039590
  C        1.7048000    -0.5240370     0.0213290
  C       -1.2931220    -1.2007390    -0.1216240
  C       -2.6835930    -0.8875750    -0.0182810
  C        3.1317020    -0.0168610     0.0830780
  C       -2.7843930     0.4654540     0.1083230
  H        0.3040530     2.3204240    -0.8701650
  H        1.9743570     2.0597570    -0.3491110
  H        0.6954160     2.3257170     0.8600750
  H       -0.8317010    -2.1668680    -0.2305290
  H       -3.5070380    -1.5886770    -0.0382780
  H        3.2875770     0.6796840     0.9111130
  H        3.4247710     0.4818120    -0.8454740
  H        3.7649310    -0.8918910     0.2258400
  H       -3.6032960     1.1610050     0.2088840
units angstrom
no_reorient  #important for SAPT in psi4, default
symmetry c1  #important for SAPT in psi4, default
}

set PROPERTIES_ORIGIN ["COM"]
properties('MP2/aug-cc-pvtz', properties = ['dipole'])
--------------------------------------------------------------------------

    Molecular point group: c1
  Charge       = 0
  Multiplicity = 1
  Basis Set: AUG-CC-PVTZ
    Blend: AUG-CC-PVTZ
  Basis Set: (AUG-CC-PVTZ AUX)
    Blend: AUG-CC-PVTZ-JKFIT

    Orbital Energies [Eh]
    ---------------------

    Doubly Occupied:

       1A    -20.588213     2A    -20.536743     3A    -15.625236
       4A    -11.369817     5A    -11.332150     6A    -11.286022
       7A    -11.282723     8A    -11.249415     9A    -11.221279
      10A    -11.218519    11A     -1.408099    12A     -1.382774
      13A     -1.281012    14A     -1.081055    15A     -1.034116
      16A     -0.995429    17A     -0.957703    18A     -0.846882
      19A     -0.784444    20A     -0.729415    21A     -0.707912
      22A     -0.686349    23A     -0.673605    24A     -0.641971
      25A     -0.603403    26A     -0.595072    27A     -0.592289
      28A     -0.581864    29A     -0.572756    30A     -0.551484
      31A     -0.550256    32A     -0.535604    33A     -0.503212
      34A     -0.451666    35A     -0.438567    36A     -0.387456
      37A     -0.288852

  @DF-RHF Final Energy:  -474.59549843643646

   => Energetics <=

    Nuclear Repulsion Energy =            527.5354820802714357
    One-Electron Energy =               -1693.1152359079735561
    Two-Electron Energy =                 690.9842553912656058
    Total Energy =                       -474.5954984364364009
  Basis Set: (AUG-CC-PVTZ AUX)
    Blend: AUG-CC-PVTZ-RI
    Molecular point group: c1

    Geometry (in Angstrom), charge = 0, multiplicity = 1:

       Center              X                  Y                   Z               Mass
    ------------   -----------------  -----------------  -----------------  -----------------
         O           -1.503584463285     1.076347226072     0.095702133384    15.994914619570
         O            1.482068536715    -1.686341773928     0.048965133384    15.994914619570
         N            0.726410536715     0.467663226072    -0.075955866616    14.003074004430
         C           -0.480278463285    -0.102247673928    -0.068427366616    12.000000000000
         C            0.961853536715     1.911102226072    -0.103057866616    12.000000000000
         C            1.732834536715    -0.479854773928     0.022230133384    12.000000000000
         C           -1.265087463285    -1.156556773928    -0.120722866616    12.000000000000
         C           -2.655558463285    -0.843392773928    -0.017379866616    12.000000000000
         C            3.159736536715     0.027321226072     0.083979133384    12.000000000000
         C           -2.756358463285     0.509636226072     0.109224133384    12.000000000000
         H            0.332087536715     2.364606226072    -0.869263866616     1.007825032230
         H            2.002391536715     2.103939226072    -0.348209866616     1.007825032230
         H            0.723450536715     2.369899226072     0.860976133384     1.007825032230
         H           -0.803666463285    -2.122685773928    -0.229627866616     1.007825032230
         H           -3.479003463285    -1.544494773928    -0.037376866616     1.007825032230
         H            3.315611536715     0.723866226072     0.912014133384     1.007825032230
         H            3.452805536715     0.525994226072    -0.844572866616     1.007825032230
         H            3.792965536715    -0.847708773928     0.226741133384     1.007825032230
         H           -3.575261463285     1.205187226072     0.209785133384     1.007825032230

  Basis Set: AUG-CC-PVTZ
    Blend: AUG-CC-PVTZ
  Basis Set: (AUG-CC-PVTZ AUX)
    Blend: AUG-CC-PVTZ-JKFIT
	 Reference Energy          =    -474.5954984364364577 [Eh]
	 Singles Energy            =      -0.0000000000000000 [Eh]
	 Same-Spin Energy          =      -0.4934601925947543 [Eh]
	 Opposite-Spin Energy      =      -1.5333694743673407 [Eh]
	 Correlation Energy        =      -2.0268296669620951 [Eh]
	 Total Energy              =    -476.6223281033985586 [Eh]

	 ================> DF-SCS-MP2 Energies <==================
	-----------------------------------------------------------
	 SCS Same-Spin Scale       =       0.3333333333333333 [-]
	 SCS Opposite-Spin Scale   =       1.2000000000000000 [-]
	 SCS Same-Spin Energy      =      -0.1644867308649181 [Eh]
	 SCS Opposite-Spin Energy  =      -1.8400433692408087 [Eh]
	 SCS Correlation Energy    =      -2.0045301001057267 [Eh]
	 SCS Total Energy          =    -476.6000285365421973 [Eh]
	-----------------------------------------------------------

  Dipole Moment: [D]
     X:     1.2800      Y:     3.1288      Z:    -0.1834     Total:     3.3855

*** Psi4 exiting successfully. Buy a developer a beer!
