                               Psi4 1.4a2.dev612

  ==> Input File <==

--------------------------------------------------------------------------
#psi4
#
memory 32 gb

molecule  {
0 1
  I        1.8459160    -0.0000080    -0.2158900
  C       -1.1090600     0.0000310     0.6200500
  C       -1.7542490    -1.2100590     0.3235790
  C       -1.7542840     1.2100860     0.3235180
  C        0.2390990     0.0000660     1.2615770
  C       -3.0207270    -1.2105770    -0.2660280
  C       -3.0207610     1.2105390    -0.2660890
  C       -3.6585680    -0.0000350    -0.5596380
  H       -1.2554350    -2.1508520     0.5458670
  H       -1.2554970     2.1509060     0.5457600
  H        0.4082520    -0.8928840     1.8633820
  H        0.4082480     0.8930790     1.8632900
  H       -3.5121970    -2.1531960    -0.4899990
  H       -3.5122590     2.1531330    -0.4901070
  H       -4.6433520    -0.0000610    -1.0178180
units angstrom
no_reorient  #important for SAPT in psi4, default
symmetry c1  #important for SAPT in psi4, default
}

set PROPERTIES_ORIGIN ["COM"]

basis mybas {
    assign aug-cc-pvtz
    assign I aug-cc-pvtz-pp
}
properties('MP2/mybas', properties = ['dipole'])
--------------------------------------------------------------------------

    Molecular point group: c1
  Charge       = 0
  Multiplicity = 1
  Basis Set: MYBAS
    Blend: AUG-CC-PVTZ + AUG-CC-PVTZ-PP
  Basis Set: (MYBAS AUX)
    Blend: AUG-CC-PVTZ-JKFIT + DEF2-UNIVERSAL-JKFIT

    Orbital Energies [Eh]
    ---------------------

    Doubly Occupied:

       1A    -11.294164     2A    -11.258956     3A    -11.247171
       4A    -11.247027     5A    -11.246086     6A    -11.245797
       7A    -11.244738     8A     -7.709111     9A     -5.540584
      10A     -5.531259    11A     -5.531244    12A     -2.269793
      13A     -2.265368    14A     -2.265340    15A     -2.255030
      16A     -2.255030    17A     -1.165031    18A     -1.065943
      19A     -1.023067    20A     -0.962083    21A     -0.853280
      22A     -0.838013    23A     -0.799804    24A     -0.703779
      25A     -0.654847    26A     -0.648811    27A     -0.596543
      28A     -0.590518    29A     -0.577322    30A     -0.529821
      31A     -0.507292    32A     -0.500825    33A     -0.458022
      34A     -0.362996    35A     -0.360876    36A     -0.343897
      37A     -0.327383

  @DF-RHF Final Energy:  -563.90804202156448

   => Energetics <=

    Nuclear Repulsion Energy =            432.0507295553660470
    One-Electron Energy =               -1735.3638406440477411
    Two-Electron Energy =                 739.4050690671170969
    Total Energy =                       -563.9080420215644835
  Basis Set: (MYBAS AUX)
    Blend: AUG-CC-PVTZ-RI + DEF2-QZVPP-RI
    Molecular point group: c1

    Geometry (in Angstrom), charge = 0, multiplicity = 1:

       Center              X                  Y                   Z               Mass
    ------------   -----------------  -----------------  -----------------  -----------------
         I            1.608047701789    -0.000006727938    -0.182345500239   126.904471900000
         C           -1.346928298211     0.000032272062     0.653594499761    12.000000000000
         C           -1.992117298211    -1.210057727938     0.357123499761    12.000000000000
         C           -1.992152298211     1.210087272062     0.357062499761    12.000000000000
         C            0.001230701789     0.000067272062     1.295121499761    12.000000000000
         C           -3.258595298211    -1.210575727938    -0.232483500239    12.000000000000
         C           -3.258629298211     1.210540272062    -0.232544500239    12.000000000000
         C           -3.896436298211    -0.000033727938    -0.526093500239    12.000000000000
         H           -1.493303298211    -2.150850727938     0.579411499761     1.007825032230
         H           -1.493365298211     2.150907272062     0.579304499761     1.007825032230
         H            0.170383701789    -0.892882727938     1.896926499761     1.007825032230
         H            0.170379701789     0.893080272062     1.896834499761     1.007825032230
         H           -3.750065298211    -2.153194727938    -0.456454500239     1.007825032230
         H           -3.750127298211     2.153134272062    -0.456562500239     1.007825032230
         H           -4.881220298211    -0.000059727938    -0.984273500239     1.007825032230

  Basis Set: MYBAS
    Blend: AUG-CC-PVTZ + AUG-CC-PVTZ-PP
  Basis Set: (MYBAS AUX)
    Blend: AUG-CC-PVTZ-JKFIT + DEF2-UNIVERSAL-JKFIT
	 Reference Energy          =    -563.9080420215644835 [Eh]
	 Singles Energy            =      -0.0000000000000000 [Eh]
	 Same-Spin Energy          =      -0.3792191556027887 [Eh]
	 Opposite-Spin Energy      =      -1.1394290323065515 [Eh]
	 Correlation Energy        =      -1.5186481879093403 [Eh]
	 Total Energy              =    -565.4266902094738043 [Eh]

	 ================> DF-SCS-MP2 Energies <==================
	-----------------------------------------------------------
	 SCS Same-Spin Scale       =       0.3333333333333333 [-]
	 SCS Opposite-Spin Scale   =       1.2000000000000000 [-]
	 SCS Same-Spin Energy      =      -0.1264063852009296 [Eh]
	 SCS Opposite-Spin Energy  =      -1.3673148387678618 [Eh]
	 SCS Correlation Energy    =      -1.4937212239687914 [Eh]
	 SCS Total Energy          =    -565.4017632455332887 [Eh]
	-----------------------------------------------------------

  Dipole Moment: [D]
     X:    -1.6243      Y:     0.0000      Z:     0.8768     Total:     1.8459

*** Psi4 exiting successfully. Buy a developer a beer!
