                               Psi4 1.4a2.dev612

  ==> Input File <==

--------------------------------------------------------------------------
#psi4
#
memory 32 gb

molecule  {
0 1
  I        1.6826763    -0.0000165    -0.3757544
  C       -1.1090600     0.0000310     0.6200500
  C       -1.7542490    -1.2100590     0.3235790
  C       -1.7542840     1.2100860     0.3235180
  C        0.2390990     0.0000660     1.2615770
  C       -3.0207270    -1.2105770    -0.2660280
  C       -3.0207610     1.2105390    -0.2660890
  C       -3.6585680    -0.0000350    -0.5596380
  H       -1.2554350    -2.1508520     0.5458670
  H       -1.2554970     2.1509060     0.5457600
  H        0.4082520    -0.8928840     1.8633820
  H        0.4082480     0.8930790     1.8632900
  H       -3.5121970    -2.1531960    -0.4899990
  H       -3.5122590     2.1531330    -0.4901070
  H       -4.6433520    -0.0000610    -1.0178180
units angstrom
no_reorient  #important for SAPT in psi4, default
symmetry c1  #important for SAPT in psi4, default
}

set PROPERTIES_ORIGIN ["COM"]

basis mybas {
    assign aug-cc-pvtz
    assign I aug-cc-pvtz-pp
}
properties('MP2/mybas', properties = ['dipole'])
--------------------------------------------------------------------------

    Molecular point group: c1
  Charge       = 0
  Multiplicity = 1
  Basis Set: MYBAS
    Blend: AUG-CC-PVTZ + AUG-CC-PVTZ-PP
  Basis Set: (MYBAS AUX)
    Blend: AUG-CC-PVTZ-JKFIT + DEF2-UNIVERSAL-JKFIT

    Orbital Energies [Eh]
    ---------------------

    Doubly Occupied:

       1A    -11.294952     2A    -11.258018     3A    -11.245759
       4A    -11.245579     5A    -11.244186     6A    -11.244116
       7A    -11.242787     8A     -7.709693     9A     -5.541237
      10A     -5.531835    11A     -5.531746    12A     -2.270467
      13A     -2.266032    14A     -2.265949    15A     -2.255534
      16A     -2.255530    17A     -1.164211    18A     -1.066459
      19A     -1.021663    20A     -0.960376    21A     -0.852349
      22A     -0.836905    23A     -0.800616    24A     -0.702675
      25A     -0.654245    26A     -0.648144    27A     -0.595240
      28A     -0.590052    29A     -0.576576    30A     -0.529957
      31A     -0.505928    32A     -0.499543    33A     -0.457971
      34A     -0.366354    35A     -0.362761    36A     -0.342191
      37A     -0.322041

  @DF-RHF Final Energy:  -563.90556007705061

   => Energetics <=

    Nuclear Repulsion Energy =            436.0642661134169771
    One-Electron Energy =               -1743.4202980632883282
    Two-Electron Energy =                 743.4504718728206853
    Total Energy =                       -563.9055600770506089
  Basis Set: (MYBAS AUX)
    Blend: AUG-CC-PVTZ-RI + DEF2-QZVPP-RI
    Molecular point group: c1

    Geometry (in Angstrom), charge = 0, multiplicity = 1:

       Center              X                  Y                   Z               Mass
    ------------   -----------------  -----------------  -----------------  -----------------
         I            1.539852594734    -0.000010278903    -0.249130540105   126.904471900000
         C           -1.251883705266     0.000037221097     0.746673859895    12.000000000000
         C           -1.897072705266    -1.210052778903     0.450202859895    12.000000000000
         C           -1.897107705266     1.210092221097     0.450141859895    12.000000000000
         C            0.096275294734     0.000072221097     1.388200859895    12.000000000000
         C           -3.163550705266    -1.210570778903    -0.139404140105    12.000000000000
         C           -3.163584705266     1.210545221097    -0.139465140105    12.000000000000
         C           -3.801391705266    -0.000028778903    -0.433014140105    12.000000000000
         H           -1.398258705266    -2.150845778903     0.672490859895     1.007825032230
         H           -1.398320705266     2.150912221097     0.672383859895     1.007825032230
         H            0.265428294734    -0.892877778903     1.990005859895     1.007825032230
         H            0.265424294734     0.893085221097     1.989913859895     1.007825032230
         H           -3.655020705266    -2.153189778903    -0.363375140105     1.007825032230
         H           -3.655082705266     2.153139221097    -0.363483140105     1.007825032230
         H           -4.786175705266    -0.000054778903    -0.891194140105     1.007825032230

  Basis Set: MYBAS
    Blend: AUG-CC-PVTZ + AUG-CC-PVTZ-PP
  Basis Set: (MYBAS AUX)
    Blend: AUG-CC-PVTZ-JKFIT + DEF2-UNIVERSAL-JKFIT
	 Reference Energy          =    -563.9055600770506089 [Eh]
	 Singles Energy            =      -0.0000000000000000 [Eh]
	 Same-Spin Energy          =      -0.3798002639647405 [Eh]
	 Opposite-Spin Energy      =      -1.1403346860301187 [Eh]
	 Correlation Energy        =      -1.5201349499948593 [Eh]
	 Total Energy              =    -565.4256950270454354 [Eh]

	 ================> DF-SCS-MP2 Energies <==================
	-----------------------------------------------------------
	 SCS Same-Spin Scale       =       0.3333333333333333 [-]
	 SCS Opposite-Spin Scale   =       1.2000000000000000 [-]
	 SCS Same-Spin Energy      =      -0.1266000879882468 [Eh]
	 SCS Opposite-Spin Energy  =      -1.3684016232361425 [Eh]
	 SCS Correlation Energy    =      -1.4950017112243894 [Eh]
	 SCS Total Energy          =    -565.4005617882750130 [Eh]
	-----------------------------------------------------------

  Dipole Moment: [D]
     X:    -1.4232      Y:     0.0000      Z:     0.9561     Total:     1.7146

*** Psi4 exiting successfully. Buy a developer a beer!
