                               Psi4 1.4a3.dev225

  ==> Input File <==

--------------------------------------------------------------------------
#psi4
#
memory 32 gb

molecule  {
0 1
  I        1.8459160    -0.0000080    -0.2158900
  C       -1.1090600     0.0000310     0.6200500
  C       -1.7542490    -1.2100590     0.3235790
  C       -1.7542840     1.2100860     0.3235180
  C        0.2243767     0.0000667     1.2751141
  C       -3.0207270    -1.2105770    -0.2660280
  C       -3.0207610     1.2105390    -0.2660890
  C       -3.6585680    -0.0000350    -0.5596380
  H       -1.2554350    -2.1508520     0.5458670
  H       -1.2554970     2.1509060     0.5457600
  H        0.4082520    -0.8928840     1.8633820
  H        0.4082480     0.8930790     1.8632900
  H       -3.5121970    -2.1531960    -0.4899990
  H       -3.5122590     2.1531330    -0.4901070
  H       -4.6433520    -0.0000610    -1.0178180
units angstrom
no_reorient  #important for SAPT in psi4, default
symmetry c1  #important for SAPT in psi4, default
}

set PROPERTIES_ORIGIN ["COM"]
properties('MP2/aug-cc-pvtz', properties = ['dipole'])
--------------------------------------------------------------------------

    Molecular point group: c1
  Charge       = 0
  Multiplicity = 1
  Basis Set: AUG-CC-PVTZ
    Blend: AUG-CC-PVTZ
  Basis Set: (AUG-CC-PVTZ AUX)
    Blend: AUG-CC-PVTZ-JKFIT + DEF2-UNIVERSAL-JKFIT

    Orbital Energies [Eh]
    ---------------------

    Doubly Occupied:

       1A    -11.294904     2A    -11.259100     3A    -11.247692
       4A    -11.247577     5A    -11.246673     6A    -11.246315
       7A    -11.245289     8A     -7.707616     9A     -5.539016
      10A     -5.529785    11A     -5.529767    12A     -2.268125
      13A     -2.263819    14A     -2.263789    15A     -2.253581
      16A     -2.253581    17A     -1.165953    18A     -1.067253
      19A     -1.023611    20A     -0.961559    21A     -0.852773
      22A     -0.838744    23A     -0.800813    24A     -0.704721
      25A     -0.656773    26A     -0.650209    27A     -0.597129
      28A     -0.592127    29A     -0.579474    30A     -0.529575
      31A     -0.508854    32A     -0.501378    33A     -0.455009
      34A     -0.362294    35A     -0.360257    36A     -0.344223
      37A     -0.326615

  @DF-RHF Final Energy:  -563.90807018714008

   => Energetics <=

    Nuclear Repulsion Energy =            431.8837097486656376
    One-Electron Energy =               -1735.0316143964223556
    Two-Electron Energy =                 739.2398344606165210
    Total Energy =                       -563.9080701871400834
  Basis Set: (AUG-CC-PVTZ AUX)
    Blend: AUG-CC-PVTZ-RI + DEF2-QZVPP-RI
    Molecular point group: c1

    Geometry (in Angstrom), charge = 0, multiplicity = 1:

       Center              X                  Y                   Z               Mass
    ------------   -----------------  -----------------  -----------------  -----------------
         I            1.608858255149    -0.000006766477    -0.183090801033   126.904471900000
         C           -1.346117744851     0.000032233523     0.652849198967    12.000000000000
         C           -1.991306744851    -1.210057766477     0.356378198967    12.000000000000
         C           -1.991341744851     1.210087233523     0.356317198967    12.000000000000
         C           -0.012681044851     0.000067933523     1.307913298967    12.000000000000
         C           -3.257784744851    -1.210575766477    -0.233228801033    12.000000000000
         C           -3.257818744851     1.210540233523    -0.233289801033    12.000000000000
         C           -3.895625744851    -0.000033766477    -0.526838801033    12.000000000000
         H           -1.492492744851    -2.150850766477     0.578666198967     1.007825032230
         H           -1.492554744851     2.150907233523     0.578559198967     1.007825032230
         H            0.171194255149    -0.892882766477     1.896181198967     1.007825032230
         H            0.171190255149     0.893080233523     1.896089198967     1.007825032230
         H           -3.749254744851    -2.153194766477    -0.457199801033     1.007825032230
         H           -3.749316744851     2.153134233523    -0.457307801033     1.007825032230
         H           -4.880409744851    -0.000059766477    -0.985018801033     1.007825032230

  Basis Set: AUG-CC-PVTZ
    Blend: AUG-CC-PVTZ
  Basis Set: (AUG-CC-PVTZ AUX)
    Blend: AUG-CC-PVTZ-JKFIT + DEF2-UNIVERSAL-JKFIT
	 Reference Energy          =    -563.9080701871400834 [Eh]
	 Singles Energy            =      -0.0000000000000000 [Eh]
	 Same-Spin Energy          =      -0.3791659815855483 [Eh]
	 Opposite-Spin Energy      =      -1.1392584729675892 [Eh]
	 Correlation Energy        =      -1.5184244545531373 [Eh]
	 Total Energy              =    -565.4264946416932389 [Eh]

	 ================> DF-SCS-MP2 Energies <==================
	-----------------------------------------------------------
	 SCS Same-Spin Scale       =       0.3333333333333333 [-]
	 SCS Opposite-Spin Scale   =       1.2000000000000000 [-]
	 SCS Same-Spin Energy      =      -0.1263886605285161 [Eh]
	 SCS Opposite-Spin Energy  =      -1.3671101675611070 [Eh]
	 SCS Correlation Energy    =      -1.4934988280896231 [Eh]
	 SCS Total Energy          =    -565.4015690152297111 [Eh]
	-----------------------------------------------------------

  Dipole Moment: [D]
     X:    -1.6933      Y:     0.0000      Z:     0.9035     Total:     1.9192

*** Psi4 exiting successfully. Buy a developer a beer!
