                               Psi4 1.4a3.dev225

  ==> Input File <==

--------------------------------------------------------------------------
#psi4
#
memory 32 gb

molecule  {
0 1
  I        1.8459160    -0.0000080    -0.2158900
  C       -1.1090600     0.0000310     0.6200500
  C       -1.7542490    -1.2100590     0.3235790
  C       -1.7542840     1.2100860     0.3235180
  C        0.2538213     0.0000653     1.2480399
  C       -3.0207270    -1.2105770    -0.2660280
  C       -3.0207610     1.2105390    -0.2660890
  C       -3.6585680    -0.0000350    -0.5596380
  H       -1.2554350    -2.1508520     0.5458670
  H       -1.2554970     2.1509060     0.5457600
  H        0.4082520    -0.8928840     1.8633820
  H        0.4082480     0.8930790     1.8632900
  H       -3.5121970    -2.1531960    -0.4899990
  H       -3.5122590     2.1531330    -0.4901070
  H       -4.6433520    -0.0000610    -1.0178180
units angstrom
no_reorient  #important for SAPT in psi4, default
symmetry c1  #important for SAPT in psi4, default
}

set PROPERTIES_ORIGIN ["COM"]
properties('MP2/aug-cc-pvtz', properties = ['dipole'])
--------------------------------------------------------------------------

    Molecular point group: c1
  Charge       = 0
  Multiplicity = 1
  Basis Set: AUG-CC-PVTZ
    Blend: AUG-CC-PVTZ
  Basis Set: (AUG-CC-PVTZ AUX)
    Blend: AUG-CC-PVTZ-JKFIT + DEF2-UNIVERSAL-JKFIT

    Orbital Energies [Eh]
    ---------------------

    Doubly Occupied:

       1A    -11.293551     2A    -11.258865     3A    -11.246699
       4A    -11.246533     5A    -11.245537     6A    -11.245303
       7A    -11.244225     8A     -7.710535     9A     -5.542080
      10A     -5.532665    11A     -5.532653    12A     -2.271397
      13A     -2.266848    14A     -2.266823    15A     -2.256415
      16A     -2.256415    17A     -1.164159    18A     -1.064688
      19A     -1.022560    20A     -0.962746    21A     -0.853688
      22A     -0.837321    23A     -0.798800    24A     -0.702885
      25A     -0.652983    26A     -0.647464    27A     -0.596000
      28A     -0.588904    29A     -0.575088    30A     -0.530168
      31A     -0.505731    32A     -0.500306    33A     -0.461089
      34A     -0.363591    35A     -0.361434    36A     -0.343574
      37A     -0.328094

  @DF-RHF Final Energy:  -563.90761996174751

   => Energetics <=

    Nuclear Repulsion Energy =            432.2199639283206807
    One-Electron Energy =               -1735.6995271306921040
    Two-Electron Energy =                 739.5719432406240230
    Total Energy =                       -563.9076199617475140
  Basis Set: (AUG-CC-PVTZ AUX)
    Blend: AUG-CC-PVTZ-RI + DEF2-QZVPP-RI
    Molecular point group: c1

    Geometry (in Angstrom), charge = 0, multiplicity = 1:

       Center              X                  Y                   Z               Mass
    ------------   -----------------  -----------------  -----------------  -----------------
         I            1.607237148430    -0.000006689399    -0.181600199444   126.904471900000
         C           -1.347738851570     0.000032310601     0.654339800556    12.000000000000
         C           -1.992927851570    -1.210057689399     0.357868800556    12.000000000000
         C           -1.992962851570     1.210087310601     0.357807800556    12.000000000000
         C            0.015142448430     0.000066610601     1.282329700556    12.000000000000
         C           -3.259405851570    -1.210575689399    -0.231738199444    12.000000000000
         C           -3.259439851570     1.210540310601    -0.231799199444    12.000000000000
         C           -3.897246851570    -0.000033689399    -0.525348199444    12.000000000000
         H           -1.494113851570    -2.150850689399     0.580156800556     1.007825032230
         H           -1.494175851570     2.150907310601     0.580049800556     1.007825032230
         H            0.169573148430    -0.892882689399     1.897671800556     1.007825032230
         H            0.169569148430     0.893080310601     1.897579800556     1.007825032230
         H           -3.750875851570    -2.153194689399    -0.455709199444     1.007825032230
         H           -3.750937851570     2.153134310601    -0.455817199444     1.007825032230
         H           -4.882030851570    -0.000059689399    -0.983528199444     1.007825032230

  Basis Set: AUG-CC-PVTZ
    Blend: AUG-CC-PVTZ
  Basis Set: (AUG-CC-PVTZ AUX)
    Blend: AUG-CC-PVTZ-JKFIT + DEF2-UNIVERSAL-JKFIT
	 Reference Energy          =    -563.9076199617475140 [Eh]
	 Singles Energy            =      -0.0000000000000000 [Eh]
	 Same-Spin Energy          =      -0.3792894369551505 [Eh]
	 Opposite-Spin Energy      =      -1.1396215881136746 [Eh]
	 Correlation Energy        =      -1.5189110250688251 [Eh]
	 Total Energy              =    -565.4265309868163740 [Eh]

	 ================> DF-SCS-MP2 Energies <==================
	-----------------------------------------------------------
	 SCS Same-Spin Scale       =       0.3333333333333333 [-]
	 SCS Opposite-Spin Scale   =       1.2000000000000000 [-]
	 SCS Same-Spin Energy      =      -0.1264298123183835 [Eh]
	 SCS Opposite-Spin Energy  =      -1.3675459057364094 [Eh]
	 SCS Correlation Energy    =      -1.4939757180547930 [Eh]
	 SCS Total Energy          =    -565.4015956798023126 [Eh]
	-----------------------------------------------------------

  Dipole Moment: [D]
     X:    -1.5584      Y:     0.0000      Z:     0.8502     Total:     1.7753

*** Psi4 exiting successfully. Buy a developer a beer!
