                               Psi4 1.4a2.dev612

  ==> Input File <==

--------------------------------------------------------------------------
#psi4
#
memory 32 gb

molecule  {
0 1
  I        1.7933743    -0.0000109    -0.2710671
  C       -1.1090600     0.0000310     0.6200500
  C       -1.7542490    -1.2100590     0.3235790
  C       -1.7542840     1.2100860     0.3235180
  C        0.2390990     0.0000660     1.2615770
  C       -3.0207270    -1.2105770    -0.2660280
  C       -3.0207610     1.2105390    -0.2660890
  C       -3.6585680    -0.0000350    -0.5596380
  H       -1.2554350    -2.1508520     0.5458670
  H       -1.2554970     2.1509060     0.5457600
  H        0.4082520    -0.8928840     1.8633820
  H        0.4082480     0.8930790     1.8632900
  H       -3.5121970    -2.1531960    -0.4899990
  H       -3.5122590     2.1531330    -0.4901070
  H       -4.6433520    -0.0000610    -1.0178180
units angstrom
no_reorient  #important for SAPT in psi4, default
symmetry c1  #important for SAPT in psi4, default
}

set PROPERTIES_ORIGIN ["COM"]

basis mybas {
    assign aug-cc-pvtz
    assign I aug-cc-pvtz-pp
}
properties('MP2/mybas', properties = ['dipole'])
--------------------------------------------------------------------------

    Molecular point group: c1
  Charge       = 0
  Multiplicity = 1
  Basis Set: MYBAS
    Blend: AUG-CC-PVTZ + AUG-CC-PVTZ-PP
  Basis Set: (MYBAS AUX)
    Blend: AUG-CC-PVTZ-JKFIT + DEF2-UNIVERSAL-JKFIT

    Orbital Energies [Eh]
    ---------------------

    Doubly Occupied:

       1A    -11.294428     2A    -11.258604     3A    -11.246697
       4A    -11.246532     5A    -11.245490     6A    -11.245293
       7A    -11.244137     8A     -7.709271     9A     -5.540762
      10A     -5.531421    11A     -5.531381    12A     -2.269977
      13A     -2.265552    14A     -2.265504    15A     -2.255171
      16A     -2.255169    17A     -1.164747    18A     -1.066076
      19A     -1.022614    20A     -0.961515    21A     -0.852944
      22A     -0.837648    23A     -0.800080    24A     -0.703428
      25A     -0.654641    26A     -0.648586    27A     -0.596122
      28A     -0.590350    29A     -0.577072    30A     -0.529875
      31A     -0.506835    32A     -0.500407    33A     -0.458082
      34A     -0.364019    35A     -0.361455    36A     -0.343359
      37A     -0.325787

  @DF-RHF Final Energy:  -563.90759787423326

   => Energetics <=

    Nuclear Repulsion Energy =            433.3245609724204996
    One-Electron Energy =               -1737.9222549109479132
    Two-Electron Energy =                 740.6900960642940390
    Total Energy =                       -563.9075978742332609
  Basis Set: (MYBAS AUX)
    Blend: AUG-CC-PVTZ-RI + DEF2-QZVPP-RI
    Molecular point group: c1

    Geometry (in Angstrom), charge = 0, multiplicity = 1:

       Center              X                  Y                   Z               Mass
    ------------   -----------------  -----------------  -----------------  -----------------
         I            1.586097852234    -0.000007939444    -0.205396315950   126.904471900000
         C           -1.316336447766     0.000033960556     0.685720784050    12.000000000000
         C           -1.961525447766    -1.210056039444     0.389249784050    12.000000000000
         C           -1.961560447766     1.210088960556     0.389188784050    12.000000000000
         C            0.031822552234     0.000068960556     1.327247784050    12.000000000000
         C           -3.228003447766    -1.210574039444    -0.200357215950    12.000000000000
         C           -3.228037447766     1.210541960556    -0.200418215950    12.000000000000
         C           -3.865844447766    -0.000032039444    -0.493967215950    12.000000000000
         H           -1.462711447766    -2.150849039444     0.611537784050     1.007825032230
         H           -1.462773447766     2.150908960556     0.611430784050     1.007825032230
         H            0.200975552234    -0.892881039444     1.929052784050     1.007825032230
         H            0.200971552234     0.893081960556     1.928960784050     1.007825032230
         H           -3.719473447766    -2.153193039444    -0.424328215950     1.007825032230
         H           -3.719535447766     2.153135960556    -0.424436215950     1.007825032230
         H           -4.850628447766    -0.000058039444    -0.952147215950     1.007825032230

  Basis Set: MYBAS
    Blend: AUG-CC-PVTZ + AUG-CC-PVTZ-PP
  Basis Set: (MYBAS AUX)
    Blend: AUG-CC-PVTZ-JKFIT + DEF2-UNIVERSAL-JKFIT
	 Reference Energy          =    -563.9075978742332609 [Eh]
	 Singles Energy            =      -0.0000000000000000 [Eh]
	 Same-Spin Energy          =      -0.3793799783610388 [Eh]
	 Opposite-Spin Energy      =      -1.1396767573019926 [Eh]
	 Correlation Energy        =      -1.5190567356630313 [Eh]
	 Total Energy              =    -565.4266546098963317 [Eh]

	 ================> DF-SCS-MP2 Energies <==================
	-----------------------------------------------------------
	 SCS Same-Spin Scale       =       0.3333333333333333 [-]
	 SCS Opposite-Spin Scale   =       1.2000000000000000 [-]
	 SCS Same-Spin Energy      =      -0.1264599927870129 [Eh]
	 SCS Opposite-Spin Energy  =      -1.3676121087623911 [Eh]
	 SCS Correlation Energy    =      -1.4940721015494041 [Eh]
	 SCS Total Energy          =    -565.4016699757826245 [Eh]
	-----------------------------------------------------------

  Dipole Moment: [D]
     X:    -1.5595      Y:     0.0000      Z:     0.9050     Total:     1.8031

*** Psi4 exiting successfully. Buy a developer a beer!
