                               Psi4 1.4a3.dev225

  ==> Input File <==

--------------------------------------------------------------------------
#psi4
#
memory 32 gb

molecule  {
0 1
  I        1.8459160    -0.0000080    -0.2158900
  C       -1.1090600     0.0000310     0.6200500
  C       -1.7542490    -1.2100590     0.3235790
  C       -1.7542840     1.2100860     0.3235180
  C        0.2759047     0.0000643     1.2277342
  C       -3.0207270    -1.2105770    -0.2660280
  C       -3.0207610     1.2105390    -0.2660890
  C       -3.6585680    -0.0000350    -0.5596380
  H       -1.2554350    -2.1508520     0.5458670
  H       -1.2554970     2.1509060     0.5457600
  H        0.4082520    -0.8928840     1.8633820
  H        0.4082480     0.8930790     1.8632900
  H       -3.5121970    -2.1531960    -0.4899990
  H       -3.5122590     2.1531330    -0.4901070
  H       -4.6433520    -0.0000610    -1.0178180
units angstrom
no_reorient  #important for SAPT in psi4, default
symmetry c1  #important for SAPT in psi4, default
}

set PROPERTIES_ORIGIN ["COM"]
properties('MP2/aug-cc-pvtz', properties = ['dipole'])
--------------------------------------------------------------------------

    Molecular point group: c1
  Charge       = 0
  Multiplicity = 1
  Basis Set: AUG-CC-PVTZ
    Blend: AUG-CC-PVTZ
  Basis Set: (AUG-CC-PVTZ AUX)
    Blend: AUG-CC-PVTZ-JKFIT + DEF2-UNIVERSAL-JKFIT

    Orbital Energies [Eh]
    ---------------------

    Doubly Occupied:

       1A    -11.292877     2A    -11.258826     3A    -11.246075
       4A    -11.245884     5A    -11.244786     6A    -11.244611
       7A    -11.243531     8A     -7.712541     9A     -5.544193
      10A     -5.534649    11A     -5.534641    12A     -2.273685
      13A     -2.268939    14A     -2.268917    15A     -2.258375
      16A     -2.258374    17A     -1.162942    18A     -1.062922
      19A     -1.021869    20A     -0.964017    21A     -0.854105
      22A     -0.836356    23A     -0.797306    24A     -0.701635
      25A     -0.650323    26A     -0.645551    27A     -0.595265
      28A     -0.586486    29A     -0.571604    30A     -0.530889
      31A     -0.503406    32A     -0.499590    33A     -0.465739
      34A     -0.364282    35A     -0.362138    36A     -0.343107
      37A     -0.329060

  @DF-RHF Final Energy:  -563.90618292724082

   => Energetics <=

    Nuclear Repulsion Energy =            432.4787384897891229
    One-Electron Energy =               -1736.2108500238016404
    Two-Electron Energy =                 739.8259286067717539
    Total Energy =                       -563.9061829272408204
  Basis Set: (AUG-CC-PVTZ AUX)
    Blend: AUG-CC-PVTZ-RI + DEF2-QZVPP-RI
    Molecular point group: c1

    Geometry (in Angstrom), charge = 0, multiplicity = 1:

       Center              X                  Y                   Z               Mass
    ------------   -----------------  -----------------  -----------------  -----------------
         I            1.606021321143    -0.000006634343    -0.180482245500   126.904471900000
         C           -1.348954678857     0.000032365657     0.655457754500    12.000000000000
         C           -1.994143678857    -1.210057634343     0.358986754500    12.000000000000
         C           -1.994178678857     1.210087365657     0.358925754500    12.000000000000
         C            0.036010021143     0.000065665657     1.263141954500    12.000000000000
         C           -3.260621678857    -1.210575634343    -0.230620245500    12.000000000000
         C           -3.260655678857     1.210540365657    -0.230681245500    12.000000000000
         C           -3.898462678857    -0.000033634343    -0.524230245500    12.000000000000
         H           -1.495329678857    -2.150850634343     0.581274754500     1.007825032230
         H           -1.495391678857     2.150907365657     0.581167754500     1.007825032230
         H            0.168357321143    -0.892882634343     1.898789754500     1.007825032230
         H            0.168353321143     0.893080365657     1.898697754500     1.007825032230
         H           -3.752091678857    -2.153194634343    -0.454591245500     1.007825032230
         H           -3.752153678857     2.153134365657    -0.454699245500     1.007825032230
         H           -4.883246678857    -0.000059634343    -0.982410245500     1.007825032230

  Basis Set: AUG-CC-PVTZ
    Blend: AUG-CC-PVTZ
  Basis Set: (AUG-CC-PVTZ AUX)
    Blend: AUG-CC-PVTZ-JKFIT + DEF2-UNIVERSAL-JKFIT
	 Reference Energy          =    -563.9061829272408204 [Eh]
	 Singles Energy            =      -0.0000000000000000 [Eh]
	 Same-Spin Energy          =      -0.3794302273606561 [Eh]
	 Opposite-Spin Energy      =      -1.1399560433043230 [Eh]
	 Correlation Energy        =      -1.5193862706649792 [Eh]
	 Total Energy              =    -565.4255691979058156 [Eh]

	 ================> DF-SCS-MP2 Energies <==================
	-----------------------------------------------------------
	 SCS Same-Spin Scale       =       0.3333333333333333 [-]
	 SCS Opposite-Spin Scale   =       1.2000000000000000 [-]
	 SCS Same-Spin Energy      =      -0.1264767424535520 [Eh]
	 SCS Opposite-Spin Energy  =      -1.3679472519651876 [Eh]
	 SCS Correlation Energy    =      -1.4944239944187396 [Eh]
	 SCS Total Energy          =    -565.4006069216595733 [Eh]
	-----------------------------------------------------------

  Dipole Moment: [D]
     X:    -1.4656      Y:     0.0000      Z:     0.8106     Total:     1.6748

*** Psi4 exiting successfully. Buy a developer a beer!
