                               Psi4 1.4a2.dev612

  ==> Input File <==

--------------------------------------------------------------------------
#psi4
#
memory 32 gb

molecule  {
0 1
  I        1.8198859    -0.0000095    -0.2437078
  C       -1.1090600     0.0000310     0.6200500
  C       -1.7542490    -1.2100590     0.3235790
  C       -1.7542840     1.2100860     0.3235180
  C        0.2390990     0.0000660     1.2615770
  C       -3.0207270    -1.2105770    -0.2660280
  C       -3.0207610     1.2105390    -0.2660890
  C       -3.6585680    -0.0000350    -0.5596380
  H       -1.2554350    -2.1508520     0.5458670
  H       -1.2554970     2.1509060     0.5457600
  H        0.4082520    -0.8928840     1.8633820
  H        0.4082480     0.8930790     1.8632900
  H       -3.5121970    -2.1531960    -0.4899990
  H       -3.5122590     2.1531330    -0.4901070
  H       -4.6433520    -0.0000610    -1.0178180
units angstrom
no_reorient  #important for SAPT in psi4, default
symmetry c1  #important for SAPT in psi4, default
}

set PROPERTIES_ORIGIN ["COM"]

basis mybas {
    assign aug-cc-pvtz
    assign I aug-cc-pvtz-pp
}
properties('MP2/mybas', properties = ['dipole'])
--------------------------------------------------------------------------

    Molecular point group: c1
  Charge       = 0
  Multiplicity = 1
  Basis Set: MYBAS
    Blend: AUG-CC-PVTZ + AUG-CC-PVTZ-PP
  Basis Set: (MYBAS AUX)
    Blend: AUG-CC-PVTZ-JKFIT + DEF2-UNIVERSAL-JKFIT

    Orbital Energies [Eh]
    ---------------------

    Doubly Occupied:

       1A    -11.294296     2A    -11.258776     3A    -11.246934
       4A    -11.246779     5A    -11.245792     6A    -11.245552
       7A    -11.244443     8A     -7.709187     9A     -5.540668
      10A     -5.531336    11A     -5.531309    12A     -2.269880
      13A     -2.265455    14A     -2.265418    15A     -2.255097
      16A     -2.255096    17A     -1.164888    18A     -1.066005
      19A     -1.022843    20A     -0.961799    21A     -0.853109
      22A     -0.837831    23A     -0.799942    24A     -0.703606
      25A     -0.654743    26A     -0.648698    27A     -0.596334
      28A     -0.590432    29A     -0.577197    30A     -0.529849
      31A     -0.507064    32A     -0.500617    33A     -0.458062
      34A     -0.363495    35A     -0.361160    36A     -0.343632
      37A     -0.326608

  @DF-RHF Final Energy:  -563.90786595302211

   => Energetics <=

    Nuclear Repulsion Energy =            432.6798916170455982
    One-Electron Energy =               -1736.6276472478398318
    Two-Electron Energy =                 740.0398896777721802
    Total Energy =                       -563.9078659530221103
  Basis Set: (MYBAS AUX)
    Blend: AUG-CC-PVTZ-RI + DEF2-QZVPP-RI
    Molecular point group: c1

    Geometry (in Angstrom), charge = 0, multiplicity = 1:

       Center              X                  Y                   Z               Mass
    ------------   -----------------  -----------------  -----------------  -----------------
         I            1.597173352864    -0.000007354579    -0.193966679701   126.904471900000
         C           -1.331772547136     0.000033145421     0.669791120299    12.000000000000
         C           -1.976961547136    -1.210056854579     0.373320120299    12.000000000000
         C           -1.976996547136     1.210088145421     0.373259120299    12.000000000000
         C            0.016386452864     0.000068145421     1.311318120299    12.000000000000
         C           -3.243439547136    -1.210574854579    -0.216286879701    12.000000000000
         C           -3.243473547136     1.210541145421    -0.216347879701    12.000000000000
         C           -3.881280547136    -0.000032854579    -0.509896879701    12.000000000000
         H           -1.478147547136    -2.150849854579     0.595608120299     1.007825032230
         H           -1.478209547136     2.150908145421     0.595501120299     1.007825032230
         H            0.185539452864    -0.892881854579     1.913123120299     1.007825032230
         H            0.185535452864     0.893081145421     1.913031120299     1.007825032230
         H           -3.734909547136    -2.153193854579    -0.440257879701     1.007825032230
         H           -3.734971547136     2.153135145421    -0.440365879701     1.007825032230
         H           -4.866064547136    -0.000058854579    -0.968076879701     1.007825032230

  Basis Set: MYBAS
    Blend: AUG-CC-PVTZ + AUG-CC-PVTZ-PP
  Basis Set: (MYBAS AUX)
    Blend: AUG-CC-PVTZ-JKFIT + DEF2-UNIVERSAL-JKFIT
	 Reference Energy          =    -563.9078659530221103 [Eh]
	 Singles Energy            =      -0.0000000000000000 [Eh]
	 Same-Spin Energy          =      -0.3792956870395107 [Eh]
	 Opposite-Spin Energy      =      -1.1395464589036954 [Eh]
	 Correlation Energy        =      -1.5188421459432062 [Eh]
	 Total Energy              =    -565.4267080989652641 [Eh]

	 ================> DF-SCS-MP2 Energies <==================
	-----------------------------------------------------------
	 SCS Same-Spin Scale       =       0.3333333333333333 [-]
	 SCS Opposite-Spin Scale   =       1.2000000000000000 [-]
	 SCS Same-Spin Energy      =      -0.1264318956798369 [Eh]
	 SCS Opposite-Spin Energy  =      -1.3674557506844345 [Eh]
	 SCS Correlation Energy    =      -1.4938876463642714 [Eh]
	 SCS Total Energy          =    -565.4017535993864385 [Eh]
	-----------------------------------------------------------

  Dipole Moment: [D]
     X:    -1.5922      Y:     0.0000      Z:     0.8911     Total:     1.8246

*** Psi4 exiting successfully. Buy a developer a beer!
