                               Psi4 1.4a2.dev612

  ==> Input File <==

--------------------------------------------------------------------------
#psi4
#
memory 32 gb

molecule  {
0 1
  I        1.8459160    -0.0000080    -0.2158900
  C       -1.1090600     0.0000310     0.6200500
  C       -1.7542490    -1.2100590     0.3235790
  C       -1.7542840     1.2100860     0.3235180
  C        0.0918761     0.0000728     1.3969484
  C       -3.0207270    -1.2105770    -0.2660280
  C       -3.0207610     1.2105390    -0.2660890
  C       -3.6585680    -0.0000350    -0.5596380
  H       -1.2554350    -2.1508520     0.5458670
  H       -1.2554970     2.1509060     0.5457600
  H        0.4082520    -0.8928840     1.8633820
  H        0.4082480     0.8930790     1.8632900
  H       -3.5121970    -2.1531960    -0.4899990
  H       -3.5122590     2.1531330    -0.4901070
  H       -4.6433520    -0.0000610    -1.0178180
units angstrom
no_reorient  #important for SAPT in psi4, default
symmetry c1  #important for SAPT in psi4, default
}

set PROPERTIES_ORIGIN ["COM"]

basis mybas {
    assign aug-cc-pvtz
    assign I aug-cc-pvtz-pp
}
properties('MP2/mybas', properties = ['dipole'])
--------------------------------------------------------------------------

    Molecular point group: c1
  Charge       = 0
  Multiplicity = 1
  Basis Set: MYBAS
    Blend: AUG-CC-PVTZ + AUG-CC-PVTZ-PP
  Basis Set: (MYBAS AUX)
    Blend: AUG-CC-PVTZ-JKFIT + DEF2-UNIVERSAL-JKFIT

    Orbital Energies [Eh]
    ---------------------

    Doubly Occupied:

       1A    -11.306403     2A    -11.262522     3A    -11.255085
       4A    -11.254997     5A    -11.253784     6A    -11.251866
       7A    -11.251507     8A     -7.691280     9A     -5.521935
      10A     -5.513743    11A     -5.513704    12A     -2.250407
      13A     -2.246995    14A     -2.246946    15A     -2.237914
      16A     -2.237913    17A     -1.176246    18A     -1.080480
      19A     -1.030143    20A     -0.961563    21A     -0.846907
      22A     -0.845228    23A     -0.809308    24A     -0.714902
      25A     -0.674727    26A     -0.664171    27A     -0.605827
      28A     -0.604212    29A     -0.594559    30A     -0.531883
      31A     -0.521702    32A     -0.507781    33A     -0.433402
      34A     -0.355704    35A     -0.351647    36A     -0.344174
      37A     -0.316771

  @DF-RHF Final Energy:  -563.89512353722012

   => Energetics <=

    Nuclear Repulsion Energy =            430.4265307678971340
    One-Electron Energy =               -1732.1066329375521491
    Two-Electron Energy =                 737.7849786324350134
    Total Energy =                       -563.8951235372201154
  Basis Set: (MYBAS AUX)
    Blend: AUG-CC-PVTZ-RI + DEF2-QZVPP-RI
    Molecular point group: c1

    Geometry (in Angstrom), charge = 0, multiplicity = 1:

       Center              X                  Y                   Z               Mass
    ------------   -----------------  -----------------  -----------------  -----------------
         I            1.616153229879    -0.000007102320    -0.189798530204   126.904471900000
         C           -1.338822770121     0.000031897680     0.646141469796    12.000000000000
         C           -1.984011770121    -1.210058102320     0.349670469796    12.000000000000
         C           -1.984046770121     1.210086897680     0.349609469796    12.000000000000
         C           -0.137886670121     0.000073697680     1.423039869796    12.000000000000
         C           -3.250489770121    -1.210576102320    -0.239936530204    12.000000000000
         C           -3.250523770121     1.210539897680    -0.239997530204    12.000000000000
         C           -3.888330770121    -0.000034102320    -0.533546530204    12.000000000000
         H           -1.485197770121    -2.150851102320     0.571958469796     1.007825032230
         H           -1.485259770121     2.150906897680     0.571851469796     1.007825032230
         H            0.178489229879    -0.892883102320     1.889473469796     1.007825032230
         H            0.178485229879     0.893079897680     1.889381469796     1.007825032230
         H           -3.741959770121    -2.153195102320    -0.463907530204     1.007825032230
         H           -3.742021770121     2.153133897680    -0.464015530204     1.007825032230
         H           -4.873114770121    -0.000060102320    -0.991726530204     1.007825032230

  Basis Set: MYBAS
    Blend: AUG-CC-PVTZ + AUG-CC-PVTZ-PP
  Basis Set: (MYBAS AUX)
    Blend: AUG-CC-PVTZ-JKFIT + DEF2-UNIVERSAL-JKFIT
	 Reference Energy          =    -563.8951235372201154 [Eh]
	 Singles Energy            =      -0.0000000000000000 [Eh]
	 Same-Spin Energy          =      -0.3792128344144596 [Eh]
	 Opposite-Spin Energy      =      -1.1384517955791185 [Eh]
	 Correlation Energy        =      -1.5176646299935781 [Eh]
	 Total Energy              =    -565.4127881672136482 [Eh]

	 ================> DF-SCS-MP2 Energies <==================
	-----------------------------------------------------------
	 SCS Same-Spin Scale       =       0.3333333333333333 [-]
	 SCS Opposite-Spin Scale   =       1.2000000000000000 [-]
	 SCS Same-Spin Energy      =      -0.1264042781381532 [Eh]
	 SCS Opposite-Spin Energy  =      -1.3661421546949422 [Eh]
	 SCS Correlation Energy    =      -1.4925464328330953 [Eh]
	 SCS Total Energy          =    -565.3876699700532527 [Eh]
	-----------------------------------------------------------

  Dipole Moment: [D]
     X:    -2.4085      Y:     0.0000      Z:     1.1203     Total:     2.6563

*** Psi4 exiting successfully. Buy a developer a beer!
