                               Psi4 1.4a2.dev612

  ==> Input File <==

--------------------------------------------------------------------------
#psi4
#
memory 32 gb

molecule  {
0 1
  I        1.8714566    -0.0000065    -0.1876222
  C       -1.1090600     0.0000310     0.6200500
  C       -1.7542490    -1.2100590     0.3235790
  C       -1.7542840     1.2100860     0.3235180
  C        0.2390990     0.0000660     1.2615770
  C       -3.0207270    -1.2105770    -0.2660280
  C       -3.0207610     1.2105390    -0.2660890
  C       -3.6585680    -0.0000350    -0.5596380
  H       -1.2554350    -2.1508520     0.5458670
  H       -1.2554970     2.1509060     0.5457600
  H        0.4082520    -0.8928840     1.8633820
  H        0.4082480     0.8930790     1.8632900
  H       -3.5121970    -2.1531960    -0.4899990
  H       -3.5122590     2.1531330    -0.4901070
  H       -4.6433520    -0.0000610    -1.0178180
units angstrom
no_reorient  #important for SAPT in psi4, default
symmetry c1  #important for SAPT in psi4, default
}

set PROPERTIES_ORIGIN ["COM"]

basis mybas {
    assign aug-cc-pvtz
    assign I aug-cc-pvtz-pp
}
properties('MP2/mybas', properties = ['dipole'])
--------------------------------------------------------------------------

    Molecular point group: c1
  Charge       = 0
  Multiplicity = 1
  Basis Set: MYBAS
    Blend: AUG-CC-PVTZ + AUG-CC-PVTZ-PP
  Basis Set: (MYBAS AUX)
    Blend: AUG-CC-PVTZ-JKFIT + DEF2-UNIVERSAL-JKFIT

    Orbital Energies [Eh]
    ---------------------

    Doubly Occupied:

       1A    -11.294032     2A    -11.259145     3A    -11.247409
       4A    -11.247277     5A    -11.246372     6A    -11.246031
       7A    -11.245020     8A     -7.709042     9A     -5.540509
      10A     -5.531188    11A     -5.531185    12A     -2.269715
      13A     -2.265290    14A     -2.265272    15A     -2.254969
      16A     -2.254969    17A     -1.165176    18A     -1.065890
      19A     -1.023287    20A     -0.962368    21A     -0.853455
      22A     -0.838194    23A     -0.799665    24A     -0.703949
      25A     -0.654951    26A     -0.648923    27A     -0.596748
      28A     -0.590607    29A     -0.577447    30A     -0.529791
      31A     -0.507519    32A     -0.501030    33A     -0.457962
      34A     -0.362520    35A     -0.360602    36A     -0.344156
      37A     -0.328114

  @DF-RHF Final Energy:  -563.90812808032240

   => Energetics <=

    Nuclear Repulsion Energy =            431.4367963204936700
    One-Electron Energy =               -1734.1302909961264049
    Two-Electron Energy =                 738.7853665953103928
    Total Energy =                       -563.9081280803223990
  Basis Set: (MYBAS AUX)
    Blend: AUG-CC-PVTZ-RI + DEF2-QZVPP-RI
    Molecular point group: c1

    Geometry (in Angstrom), charge = 0, multiplicity = 1:

       Center              X                  Y                   Z               Mass
    ------------   -----------------  -----------------  -----------------  -----------------
         I            1.618717556924    -0.000006101297    -0.170536328528   126.904471900000
         C           -1.361799043076     0.000031398703     0.637135871472    12.000000000000
         C           -2.006988043076    -1.210058601297     0.340664871472    12.000000000000
         C           -2.007023043076     1.210086398703     0.340603871472    12.000000000000
         C           -0.013640043076     0.000066398703     1.278662871472    12.000000000000
         C           -3.273466043076    -1.210576601297    -0.248942128528    12.000000000000
         C           -3.273500043076     1.210539398703    -0.249003128528    12.000000000000
         C           -3.911307043076    -0.000034601297    -0.542552128528    12.000000000000
         H           -1.508174043076    -2.150851601297     0.562952871472     1.007825032230
         H           -1.508236043076     2.150906398703     0.562845871472     1.007825032230
         H            0.155512956924    -0.892883601297     1.880467871472     1.007825032230
         H            0.155508956924     0.893079398703     1.880375871472     1.007825032230
         H           -3.764936043076    -2.153195601297    -0.472913128528     1.007825032230
         H           -3.764998043076     2.153133398703    -0.473021128528     1.007825032230
         H           -4.896091043076    -0.000060601297    -1.000732128528     1.007825032230

  Basis Set: MYBAS
    Blend: AUG-CC-PVTZ + AUG-CC-PVTZ-PP
  Basis Set: (MYBAS AUX)
    Blend: AUG-CC-PVTZ-JKFIT + DEF2-UNIVERSAL-JKFIT
	 Reference Energy          =    -563.9081280803223990 [Eh]
	 Singles Energy            =      -0.0000000000000000 [Eh]
	 Same-Spin Energy          =      -0.3791501229149086 [Eh]
	 Opposite-Spin Energy      =      -1.1393241007740995 [Eh]
	 Correlation Energy        =      -1.5184742236890081 [Eh]
	 Total Energy              =    -565.4266023040114533 [Eh]

	 ================> DF-SCS-MP2 Energies <==================
	-----------------------------------------------------------
	 SCS Same-Spin Scale       =       0.3333333333333333 [-]
	 SCS Opposite-Spin Scale   =       1.2000000000000000 [-]
	 SCS Same-Spin Energy      =      -0.1263833743049695 [Eh]
	 SCS Opposite-Spin Energy  =      -1.3671889209289194 [Eh]
	 SCS Correlation Energy    =      -1.4935722952338890 [Eh]
	 SCS Total Energy          =    -565.4017003755562882 [Eh]
	-----------------------------------------------------------

  Dipole Moment: [D]
     X:    -1.6559      Y:     0.0000      Z:     0.8621     Total:     1.8668

*** Psi4 exiting successfully. Buy a developer a beer!
