                               Psi4 1.4a2.dev612

  ==> Input File <==

--------------------------------------------------------------------------
#psi4
#
memory 32 gb

molecule  {
0 1
  I        1.9915510     0.0000013    -0.0398382
  C       -1.1090600     0.0000310     0.6200500
  C       -1.7542490    -1.2100590     0.3235790
  C       -1.7542840     1.2100860     0.3235180
  C        0.2390990     0.0000660     1.2615770
  C       -3.0207270    -1.2105770    -0.2660280
  C       -3.0207610     1.2105390    -0.2660890
  C       -3.6585680    -0.0000350    -0.5596380
  H       -1.2554350    -2.1508520     0.5458670
  H       -1.2554970     2.1509060     0.5457600
  H        0.4082520    -0.8928840     1.8633820
  H        0.4082480     0.8930790     1.8632900
  H       -3.5121970    -2.1531960    -0.4899990
  H       -3.5122590     2.1531330    -0.4901070
  H       -4.6433520    -0.0000610    -1.0178180
units angstrom
no_reorient  #important for SAPT in psi4, default
symmetry c1  #important for SAPT in psi4, default
}

set PROPERTIES_ORIGIN ["COM"]

basis mybas {
    assign aug-cc-pvtz
    assign I aug-cc-pvtz-pp
}
properties('MP2/mybas', properties = ['dipole'])
--------------------------------------------------------------------------

    Molecular point group: c1
  Charge       = 0
  Multiplicity = 1
  Basis Set: MYBAS
    Blend: AUG-CC-PVTZ + AUG-CC-PVTZ-PP
  Basis Set: (MYBAS AUX)
    Blend: AUG-CC-PVTZ-JKFIT + DEF2-UNIVERSAL-JKFIT

    Orbital Energies [Eh]
    ---------------------

    Doubly Occupied:

       1A    -11.293369     2A    -11.260187     3A    -11.248578
       4A    -11.248511     5A    -11.247683     6A    -11.247053
       7A    -11.246267     8A     -7.708813     9A     -5.540269
      10A     -5.530992    11A     -5.530937    12A     -2.269464
      13A     -2.265061    14A     -2.265028    15A     -2.254757
      16A     -2.254755    17A     -1.165905    18A     -1.065733
      19A     -1.024325    20A     -0.963814    21A     -0.854384
      22A     -0.839064    23A     -0.798950    24A     -0.704728
      25A     -0.655484    26A     -0.649482    27A     -0.597719
      28A     -0.591092    29A     -0.578093    30A     -0.529618
      31A     -0.508642    32A     -0.502013    33A     -0.457349
      34A     -0.360509    35A     -0.359379    36A     -0.345346
      37A     -0.331103

  @DF-RHF Final Energy:  -563.90726708428429

   => Energetics <=

    Nuclear Repulsion Energy =            428.5862845893854569
    One-Electron Energy =               -1728.3981936054822199
    Two-Electron Energy =                 735.9046419318124208
    Total Energy =                       -563.9072670842842854
  Basis Set: (MYBAS AUX)
    Blend: AUG-CC-PVTZ-RI + DEF2-QZVPP-RI
    Molecular point group: c1

    Geometry (in Angstrom), charge = 0, multiplicity = 1:

       Center              X                  Y                   Z               Mass
    ------------   -----------------  -----------------  -----------------  -----------------
         I            1.668888259668    -0.000002842765    -0.108798003225   126.904471900000
         C           -1.431722740332     0.000026857235     0.551090196775    12.000000000000
         C           -2.076911740332    -1.210063142765     0.254619196775    12.000000000000
         C           -2.076946740332     1.210081857235     0.254558196775    12.000000000000
         C           -0.083563740332     0.000061857235     1.192617196775    12.000000000000
         C           -3.343389740332    -1.210581142765    -0.334987803225    12.000000000000
         C           -3.343423740332     1.210534857235    -0.335048803225    12.000000000000
         C           -3.981230740332    -0.000039142765    -0.628597803225    12.000000000000
         H           -1.578097740332    -2.150856142765     0.476907196775     1.007825032230
         H           -1.578159740332     2.150901857235     0.476800196775     1.007825032230
         H            0.085589259668    -0.892888142765     1.794422196775     1.007825032230
         H            0.085585259668     0.893074857235     1.794330196775     1.007825032230
         H           -3.834859740332    -2.153200142765    -0.558958803225     1.007825032230
         H           -3.834921740332     2.153128857235    -0.559066803225     1.007825032230
         H           -4.966014740332    -0.000065142765    -1.086777803225     1.007825032230

  Basis Set: MYBAS
    Blend: AUG-CC-PVTZ + AUG-CC-PVTZ-PP
  Basis Set: (MYBAS AUX)
    Blend: AUG-CC-PVTZ-JKFIT + DEF2-UNIVERSAL-JKFIT
	 Reference Energy          =    -563.9072670842842854 [Eh]
	 Singles Energy            =      -0.0000000000000000 [Eh]
	 Same-Spin Energy          =      -0.3789092115533534 [Eh]
	 Opposite-Spin Energy      =      -1.1389760436586220 [Eh]
	 Correlation Energy        =      -1.5178852552119755 [Eh]
	 Total Energy              =    -565.4251523394962078 [Eh]

	 ================> DF-SCS-MP2 Energies <==================
	-----------------------------------------------------------
	 SCS Same-Spin Scale       =       0.3333333333333333 [-]
	 SCS Opposite-Spin Scale   =       1.2000000000000000 [-]
	 SCS Same-Spin Energy      =      -0.1263030705177844 [Eh]
	 SCS Opposite-Spin Energy  =      -1.3667712523903464 [Eh]
	 SCS Correlation Energy    =      -1.4930743229081309 [Eh]
	 SCS Total Energy          =    -565.4003414071923999 [Eh]
	-----------------------------------------------------------

  Dipole Moment: [D]
     X:    -1.8044      Y:     0.0000      Z:     0.7826     Total:     1.9669

*** Psi4 exiting successfully. Buy a developer a beer!
