                               Psi4 1.4a2.dev612

  ==> Input File <==

--------------------------------------------------------------------------
#psi4
#
memory 32 gb

molecule  {
0 1
  I        1.7389390    -0.0000137    -0.3243769
  C       -1.1090600     0.0000310     0.6200500
  C       -1.7542490    -1.2100590     0.3235790
  C       -1.7542840     1.2100860     0.3235180
  C        0.2390990     0.0000660     1.2615770
  C       -3.0207270    -1.2105770    -0.2660280
  C       -3.0207610     1.2105390    -0.2660890
  C       -3.6585680    -0.0000350    -0.5596380
  H       -1.2554350    -2.1508520     0.5458670
  H       -1.2554970     2.1509060     0.5457600
  H        0.4082520    -0.8928840     1.8633820
  H        0.4082480     0.8930790     1.8632900
  H       -3.5121970    -2.1531960    -0.4899990
  H       -3.5122590     2.1531330    -0.4901070
  H       -4.6433520    -0.0000610    -1.0178180
units angstrom
no_reorient  #important for SAPT in psi4, default
symmetry c1  #important for SAPT in psi4, default
}

set PROPERTIES_ORIGIN ["COM"]

basis mybas {
    assign aug-cc-pvtz
    assign I aug-cc-pvtz-pp
}
properties('MP2/mybas', properties = ['dipole'])
--------------------------------------------------------------------------

    Molecular point group: c1
  Charge       = 0
  Multiplicity = 1
  Basis Set: MYBAS
    Blend: AUG-CC-PVTZ + AUG-CC-PVTZ-PP
  Basis Set: (MYBAS AUX)
    Blend: AUG-CC-PVTZ-JKFIT + DEF2-UNIVERSAL-JKFIT

    Orbital Energies [Eh]
    ---------------------

    Doubly Occupied:

       1A    -11.294691     2A    -11.258290     3A    -11.246226
       4A    -11.246049     5A    -11.244857     6A    -11.244733
       7A    -11.243486     8A     -7.709464     9A     -5.540979
      10A     -5.531612    11A     -5.531548    12A     -2.270201
      13A     -2.265772    14A     -2.265706    15A     -2.255338
      16A     -2.255336    17A     -1.164472    18A     -1.066247
      19A     -1.022146    20A     -0.960946    21A     -0.852632
      22A     -0.837278    23A     -0.800351    24A     -0.703060
      25A     -0.654440    26A     -0.648363    27A     -0.595688
      28A     -0.590194    29A     -0.576824    30A     -0.529921
      31A     -0.506380    32A     -0.499979    33A     -0.458064
      34A     -0.365138    35A     -0.362082    36A     -0.342791
      37A     -0.324008

  @DF-RHF Final Energy:  -563.90677700785295

   => Energetics <=

    Nuclear Repulsion Energy =            434.6615943705065206
    One-Electron Energy =               -1740.6061610064177785
    Two-Electron Energy =                 742.0377896280583627
    Total Energy =                       -563.9067770078529520
  Basis Set: (MYBAS AUX)
    Blend: AUG-CC-PVTZ-RI + DEF2-QZVPP-RI
    Molecular point group: c1

    Geometry (in Angstrom), charge = 0, multiplicity = 1:

       Center              X                  Y                   Z               Mass
    ------------   -----------------  -----------------  -----------------  -----------------
         I            1.563356931300    -0.000009109173    -0.227667047384   126.904471900000
         C           -1.284642068700     0.000035590827     0.716759852616    12.000000000000
         C           -1.929831068700    -1.210054409173     0.420288852616    12.000000000000
         C           -1.929866068700     1.210090590827     0.420227852616    12.000000000000
         C            0.063516931300     0.000070590827     1.358286852616    12.000000000000
         C           -3.196309068700    -1.210572409173    -0.169318147384    12.000000000000
         C           -3.196343068700     1.210543590827    -0.169379147384    12.000000000000
         C           -3.834150068700    -0.000030409173    -0.462928147384    12.000000000000
         H           -1.431017068700    -2.150847409173     0.642576852616     1.007825032230
         H           -1.431079068700     2.150910590827     0.642469852616     1.007825032230
         H            0.232669931300    -0.892879409173     1.960091852616     1.007825032230
         H            0.232665931300     0.893083590827     1.959999852616     1.007825032230
         H           -3.687779068700    -2.153191409173    -0.393289147384     1.007825032230
         H           -3.687841068700     2.153137590827    -0.393397147384     1.007825032230
         H           -4.818934068700    -0.000056409173    -0.921108147384     1.007825032230

  Basis Set: MYBAS
    Blend: AUG-CC-PVTZ + AUG-CC-PVTZ-PP
  Basis Set: (MYBAS AUX)
    Blend: AUG-CC-PVTZ-JKFIT + DEF2-UNIVERSAL-JKFIT
	 Reference Energy          =    -563.9067770078529520 [Eh]
	 Singles Energy            =      -0.0000000000000000 [Eh]
	 Same-Spin Energy          =      -0.3795729109641656 [Eh]
	 Opposite-Spin Energy      =      -1.1399774970744749 [Eh]
	 Correlation Energy        =      -1.5195504080386404 [Eh]
	 Total Energy              =    -565.4263274158915920 [Eh]

	 ================> DF-SCS-MP2 Energies <==================
	-----------------------------------------------------------
	 SCS Same-Spin Scale       =       0.3333333333333333 [-]
	 SCS Opposite-Spin Scale   =       1.2000000000000000 [-]
	 SCS Same-Spin Energy      =      -0.1265243036547218 [Eh]
	 SCS Opposite-Spin Energy  =      -1.3679729964893699 [Eh]
	 SCS Correlation Energy    =      -1.4944973001440918 [Eh]
	 SCS Total Energy          =    -565.4012743079970278 [Eh]
	-----------------------------------------------------------

  Dipole Moment: [D]
     X:    -1.4925      Y:     0.0000      Z:     0.9315     Total:     1.7593

*** Psi4 exiting successfully. Buy a developer a beer!
