                               Psi4 1.4a2.dev612

  ==> Input File <==

--------------------------------------------------------------------------
#psi4
#
memory 32 gb

molecule  {
0 1
  I        1.8459160    -0.0000080    -0.2158900
  C       -1.1090600     0.0000310     0.6200500
  C       -1.7542490    -1.2100590     0.3235790
  C       -1.7542840     1.2100860     0.3235180
  C        0.1654875     0.0000694     1.3292627
  C       -3.0207270    -1.2105770    -0.2660280
  C       -3.0207610     1.2105390    -0.2660890
  C       -3.6585680    -0.0000350    -0.5596380
  H       -1.2554350    -2.1508520     0.5458670
  H       -1.2554970     2.1509060     0.5457600
  H        0.4082520    -0.8928840     1.8633820
  H        0.4082480     0.8930790     1.8632900
  H       -3.5121970    -2.1531960    -0.4899990
  H       -3.5122590     2.1531330    -0.4901070
  H       -4.6433520    -0.0000610    -1.0178180
units angstrom
no_reorient  #important for SAPT in psi4, default
symmetry c1  #important for SAPT in psi4, default
}

set PROPERTIES_ORIGIN ["COM"]

basis mybas {
    assign aug-cc-pvtz
    assign I aug-cc-pvtz-pp
}
properties('MP2/mybas', properties = ['dipole'])
--------------------------------------------------------------------------

    Molecular point group: c1
  Charge       = 0
  Multiplicity = 1
  Basis Set: MYBAS
    Blend: AUG-CC-PVTZ + AUG-CC-PVTZ-PP
  Basis Set: (MYBAS AUX)
    Blend: AUG-CC-PVTZ-JKFIT + DEF2-UNIVERSAL-JKFIT

    Orbital Energies [Eh]
    ---------------------

    Doubly Occupied:

       1A    -11.299057     2A    -11.260174     3A    -11.250368
       4A    -11.250357     5A    -11.249375     6A    -11.248576
       7A    -11.247837     8A     -7.700954     9A     -5.532042
      10A     -5.523230    11A     -5.523202    12A     -2.260818
      13A     -2.256940    14A     -2.256901    15A     -2.247162
      16A     -2.247162    17A     -1.170111    18A     -1.072909
      19A     -1.026158    20A     -0.960676    21A     -0.849912
      22A     -0.842045    23A     -0.804830    24A     -0.708928
      25A     -0.664868    26A     -0.656217    27A     -0.599912
      28A     -0.598434    29A     -0.587152    30A     -0.529563
      31A     -0.514994    32A     -0.503920    33A     -0.443925
      34A     -0.358471    35A     -0.357500    36A     -0.345310
      37A     -0.322904

  @DF-RHF Final Energy:  -563.90481744667147

   => Energetics <=

    Nuclear Repulsion Energy =            431.2310377526146112
    One-Electron Energy =               -1733.7259279248448820
    Two-Electron Energy =                 738.5900727255587981
    Total Energy =                       -563.9048174466714727
  Basis Set: (MYBAS AUX)
    Blend: AUG-CC-PVTZ-RI + DEF2-QZVPP-RI
    Molecular point group: c1

    Geometry (in Angstrom), charge = 0, multiplicity = 1:

       Center              X                  Y                   Z               Mass
    ------------   -----------------  -----------------  -----------------  -----------------
         I            1.612100468587    -0.000006915129    -0.186072015221   126.904471900000
         C           -1.342875531413     0.000032084871     0.649867984779    12.000000000000
         C           -1.988064531413    -1.210057915129     0.353396984779    12.000000000000
         C           -1.988099531413     1.210087084871     0.353335984779    12.000000000000
         C           -0.068328031413     0.000070484871     1.359080684779    12.000000000000
         C           -3.254542531413    -1.210575915129    -0.236210015221    12.000000000000
         C           -3.254576531413     1.210540084871    -0.236271015221    12.000000000000
         C           -3.892383531413    -0.000033915129    -0.529820015221    12.000000000000
         H           -1.489250531413    -2.150850915129     0.575684984779     1.007825032230
         H           -1.489312531413     2.150907084871     0.575577984779     1.007825032230
         H            0.174436468587    -0.892882915129     1.893199984779     1.007825032230
         H            0.174432468587     0.893080084871     1.893107984779     1.007825032230
         H           -3.746012531413    -2.153194915129    -0.460181015221     1.007825032230
         H           -3.746074531413     2.153134084871    -0.460289015221     1.007825032230
         H           -4.877167531413    -0.000059915129    -0.988000015221     1.007825032230

  Basis Set: MYBAS
    Blend: AUG-CC-PVTZ + AUG-CC-PVTZ-PP
  Basis Set: (MYBAS AUX)
    Blend: AUG-CC-PVTZ-JKFIT + DEF2-UNIVERSAL-JKFIT
	 Reference Energy          =    -563.9048174466714727 [Eh]
	 Singles Energy            =      -0.0000000000000000 [Eh]
	 Same-Spin Energy          =      -0.3790938238103820 [Eh]
	 Opposite-Spin Energy      =      -1.1387599954035519 [Eh]
	 Correlation Energy        =      -1.5178538192139339 [Eh]
	 Total Energy              =    -565.4226712658853558 [Eh]

	 ================> DF-SCS-MP2 Energies <==================
	-----------------------------------------------------------
	 SCS Same-Spin Scale       =       0.3333333333333333 [-]
	 SCS Opposite-Spin Scale   =       1.2000000000000000 [-]
	 SCS Same-Spin Energy      =      -0.1263646079367940 [Eh]
	 SCS Opposite-Spin Energy  =      -1.3665119944842623 [Eh]
	 SCS Correlation Energy    =      -1.4928766024210562 [Eh]
	 SCS Total Energy          =    -565.3976940490924790 [Eh]
	-----------------------------------------------------------

  Dipole Moment: [D]
     X:    -1.9952      Y:     0.0000      Z:     1.0078     Total:     2.2353

*** Psi4 exiting successfully. Buy a developer a beer!
