                               Psi4 1.4a3.dev225

  ==> Input File <==

--------------------------------------------------------------------------
#psi4
#
memory 32 gb

molecule  {
0 1
  I        1.8459160    -0.0000080    -0.2158900
  C       -1.1090600     0.0000310     0.6200500
  C       -1.7542490    -1.2100590     0.3235790
  C       -1.7542840     1.2100860     0.3235180
  C        0.2022933     0.0000677     1.2954198
  C       -3.0207270    -1.2105770    -0.2660280
  C       -3.0207610     1.2105390    -0.2660890
  C       -3.6585680    -0.0000350    -0.5596380
  H       -1.2554350    -2.1508520     0.5458670
  H       -1.2554970     2.1509060     0.5457600
  H        0.4082520    -0.8928840     1.8633820
  H        0.4082480     0.8930790     1.8632900
  H       -3.5121970    -2.1531960    -0.4899990
  H       -3.5122590     2.1531330    -0.4901070
  H       -4.6433520    -0.0000610    -1.0178180
units angstrom
no_reorient  #important for SAPT in psi4, default
symmetry c1  #important for SAPT in psi4, default
}

set PROPERTIES_ORIGIN ["COM"]
properties('MP2/aug-cc-pvtz', properties = ['dipole'])
--------------------------------------------------------------------------

    Molecular point group: c1
  Charge       = 0
  Multiplicity = 1
  Basis Set: AUG-CC-PVTZ
    Blend: AUG-CC-PVTZ
  Basis Set: (AUG-CC-PVTZ AUX)
    Blend: AUG-CC-PVTZ-JKFIT + DEF2-UNIVERSAL-JKFIT

    Orbital Energies [Eh]
    ---------------------

    Doubly Occupied:

       1A    -11.296247     2A    -11.259410     3A    -11.248577
       4A    -11.248512     5A    -11.247619     6A    -11.247127
       7A    -11.246184     8A     -7.705244     9A     -5.536530
      10A     -5.527448    11A     -5.527427    12A     -2.265504
      13A     -2.261366    14A     -2.261332    15A     -2.251289
      16A     -2.251289    17A     -1.167425    18A     -1.069304
      19A     -1.024496    20A     -0.961015    21A     -0.851844
      22A     -0.839913    23A     -0.802329    24A     -0.706220
      25A     -0.659757    26A     -0.652393    27A     -0.598091
      28A     -0.594521    29A     -0.582534    30A     -0.529390
      31A     -0.511188    32A     -0.502269    33A     -0.450640
      34A     -0.361048    35A     -0.359246    36A     -0.344696
      37A     -0.325346

  @DF-RHF Final Energy:  -563.90743767716958

   => Energetics <=

    Nuclear Repulsion Energy =            431.6365830286707705
    One-Electron Energy =               -1734.5384956865329968
    Two-Electron Energy =                 738.9944749806927575
    Total Energy =                       -563.9074376771695825
  Basis Set: (AUG-CC-PVTZ AUX)
    Blend: AUG-CC-PVTZ-RI + DEF2-QZVPP-RI
    Molecular point group: c1

    Geometry (in Angstrom), charge = 0, multiplicity = 1:

       Center              X                  Y                   Z               Mass
    ------------   -----------------  -----------------  -----------------  -----------------
         I            1.610074082435    -0.000006821534    -0.184208754977   126.904471900000
         C           -1.344901917565     0.000032178466     0.651731245023    12.000000000000
         C           -1.990090917565    -1.210057821534     0.355260245023    12.000000000000
         C           -1.990125917565     1.210087178466     0.355199245023    12.000000000000
         C           -0.033548617565     0.000068878466     1.327101045023    12.000000000000
         C           -3.256568917565    -1.210575821534    -0.234346754977    12.000000000000
         C           -3.256602917565     1.210540178466    -0.234407754977    12.000000000000
         C           -3.894409917565    -0.000033821534    -0.527956754977    12.000000000000
         H           -1.491276917565    -2.150850821534     0.577548245023     1.007825032230
         H           -1.491338917565     2.150907178466     0.577441245023     1.007825032230
         H            0.172410082435    -0.892882821534     1.895063245023     1.007825032230
         H            0.172406082435     0.893080178466     1.894971245023     1.007825032230
         H           -3.748038917565    -2.153194821534    -0.458317754977     1.007825032230
         H           -3.748100917565     2.153134178466    -0.458425754977     1.007825032230
         H           -4.879193917565    -0.000059821534    -0.986136754977     1.007825032230

  Basis Set: AUG-CC-PVTZ
    Blend: AUG-CC-PVTZ
  Basis Set: (AUG-CC-PVTZ AUX)
    Blend: AUG-CC-PVTZ-JKFIT + DEF2-UNIVERSAL-JKFIT
	 Reference Energy          =    -563.9074376771695825 [Eh]
	 Singles Energy            =      -0.0000000000000000 [Eh]
	 Same-Spin Energy          =      -0.3791149494675175 [Eh]
	 Opposite-Spin Energy      =      -1.1390397266203223 [Eh]
	 Correlation Energy        =      -1.5181546760878397 [Eh]
	 Total Energy              =    -565.4255923532574570 [Eh]

	 ================> DF-SCS-MP2 Energies <==================
	-----------------------------------------------------------
	 SCS Same-Spin Scale       =       0.3333333333333333 [-]
	 SCS Opposite-Spin Scale   =       1.2000000000000000 [-]
	 SCS Same-Spin Energy      =      -0.1263716498225058 [Eh]
	 SCS Opposite-Spin Energy  =      -1.3668476719443867 [Eh]
	 SCS Correlation Energy    =      -1.4932193217668925 [Eh]
	 SCS Total Energy          =    -565.4006569989364834 [Eh]
	-----------------------------------------------------------

  Dipole Moment: [D]
     X:    -1.8020      Y:     0.0000      Z:     0.9432     Total:     2.0339

*** Psi4 exiting successfully. Buy a developer a beer!
