                               Psi4 1.4a2.dev612

  ==> Input File <==

--------------------------------------------------------------------------
#psi4
#
memory 32 gb

molecule  {
0 1
  I        1.9450648    -0.0000019    -0.1002051
  C       -1.1090600     0.0000310     0.6200500
  C       -1.7542490    -1.2100590     0.3235790
  C       -1.7542840     1.2100860     0.3235180
  C        0.2390990     0.0000660     1.2615770
  C       -3.0207270    -1.2105770    -0.2660280
  C       -3.0207610     1.2105390    -0.2660890
  C       -3.6585680    -0.0000350    -0.5596380
  H       -1.2554350    -2.1508520     0.5458670
  H       -1.2554970     2.1509060     0.5457600
  H        0.4082520    -0.8928840     1.8633820
  H        0.4082480     0.8930790     1.8632900
  H       -3.5121970    -2.1531960    -0.4899990
  H       -3.5122590     2.1531330    -0.4901070
  H       -4.6433520    -0.0000610    -1.0178180
units angstrom
no_reorient  #important for SAPT in psi4, default
symmetry c1  #important for SAPT in psi4, default
}

set PROPERTIES_ORIGIN ["COM"]

basis mybas {
    assign aug-cc-pvtz
    assign I aug-cc-pvtz-pp
}
properties('MP2/mybas', properties = ['dipole'])
--------------------------------------------------------------------------

    Molecular point group: c1
  Charge       = 0
  Multiplicity = 1
  Basis Set: MYBAS
    Blend: AUG-CC-PVTZ + AUG-CC-PVTZ-PP
  Basis Set: (MYBAS AUX)
    Blend: AUG-CC-PVTZ-JKFIT + DEF2-UNIVERSAL-JKFIT

    Orbital Energies [Eh]
    ---------------------

    Doubly Occupied:

       1A    -11.293634     2A    -11.259752     3A    -11.248116
       4A    -11.248024     5A    -11.247180     6A    -11.246669
       7A    -11.245800     8A     -7.708883     9A     -5.540338
      10A     -5.531050    11A     -5.531018    12A     -2.269538
      13A     -2.265120    14A     -2.265107    15A     -2.254824
      16A     -2.254823    17A     -1.165614    18A     -1.065775
      19A     -1.023923    20A     -0.963231    21A     -0.854004
      22A     -0.838723    23A     -0.799239    24A     -0.704430
      25A     -0.655269    26A     -0.649260    27A     -0.597342
      28A     -0.590890    29A     -0.577831    30A     -0.529691
      31A     -0.508197    32A     -0.501628    33A     -0.457656
      34A     -0.361239    35A     -0.359841    36A     -0.344889
      37A     -0.330039

  @DF-RHF Final Energy:  -563.90786365903477

   => Energetics <=

    Nuclear Repulsion Energy =            429.6836733875030063
    One-Electron Energy =               -1730.6058976459355563
    Two-Electron Energy =                 737.0143605993978326
    Total Energy =                       -563.9078636590347742
  Basis Set: (MYBAS AUX)
    Blend: AUG-CC-PVTZ-RI + DEF2-QZVPP-RI
    Molecular point group: c1

    Geometry (in Angstrom), charge = 0, multiplicity = 1:

       Center              X                  Y                   Z               Mass
    ------------   -----------------  -----------------  -----------------  -----------------
         I            1.649468159131    -0.000004179599    -0.134016912645   126.904471900000
         C           -1.404656640869     0.000028720401     0.586238187355    12.000000000000
         C           -2.049845640869    -1.210061279599     0.289767187355    12.000000000000
         C           -2.049880640869     1.210083720401     0.289706187355    12.000000000000
         C           -0.056497640869     0.000063720401     1.227765187355    12.000000000000
         C           -3.316323640869    -1.210579279599    -0.299839812645    12.000000000000
         C           -3.316357640869     1.210536720401    -0.299900812645    12.000000000000
         C           -3.954164640869    -0.000037279599    -0.593449812645    12.000000000000
         H           -1.551031640869    -2.150854279599     0.512055187355     1.007825032230
         H           -1.551093640869     2.150903720401     0.511948187355     1.007825032230
         H            0.112655359131    -0.892886279599     1.829570187355     1.007825032230
         H            0.112651359131     0.893076720401     1.829478187355     1.007825032230
         H           -3.807793640869    -2.153198279599    -0.523810812645     1.007825032230
         H           -3.807855640869     2.153130720401    -0.523918812645     1.007825032230
         H           -4.938948640869    -0.000063279599    -1.051629812645     1.007825032230

  Basis Set: MYBAS
    Blend: AUG-CC-PVTZ + AUG-CC-PVTZ-PP
  Basis Set: (MYBAS AUX)
    Blend: AUG-CC-PVTZ-JKFIT + DEF2-UNIVERSAL-JKFIT
	 Reference Energy          =    -563.9078636590347742 [Eh]
	 Singles Energy            =      -0.0000000000000000 [Eh]
	 Same-Spin Energy          =      -0.3789856190167438 [Eh]
	 Opposite-Spin Energy      =      -1.1390810674123910 [Eh]
	 Correlation Energy        =      -1.5180666864291348 [Eh]
	 Total Energy              =    -565.4259303454639394 [Eh]

	 ================> DF-SCS-MP2 Energies <==================
	-----------------------------------------------------------
	 SCS Same-Spin Scale       =       0.3333333333333333 [-]
	 SCS Opposite-Spin Scale   =       1.2000000000000000 [-]
	 SCS Same-Spin Energy      =      -0.1263285396722479 [Eh]
	 SCS Opposite-Spin Energy  =      -1.3668972808948692 [Eh]
	 SCS Correlation Energy    =      -1.4932258205671172 [Eh]
	 SCS Total Energy          =    -565.4010894796018647 [Eh]
	-----------------------------------------------------------

  Dipole Moment: [D]
     X:    -1.7469      Y:     0.0000      Z:     0.8156     Total:     1.9279

*** Psi4 exiting successfully. Buy a developer a beer!
