                               Psi4 1.4a2.dev612

  ==> Input File <==

--------------------------------------------------------------------------
#psi4
#
memory 32 gb

molecule  {
0 1
  I        1.8459160    -0.0000080    -0.2158900
  C       -1.1090600     0.0000310     0.6200500
  C       -1.7542490    -1.2100590     0.3235790
  C       -1.7542840     1.2100860     0.3235180
  C        0.3127105     0.0000626     1.1938913
  C       -3.0207270    -1.2105770    -0.2660280
  C       -3.0207610     1.2105390    -0.2660890
  C       -3.6585680    -0.0000350    -0.5596380
  H       -1.2554350    -2.1508520     0.5458670
  H       -1.2554970     2.1509060     0.5457600
  H        0.4082520    -0.8928840     1.8633820
  H        0.4082480     0.8930790     1.8632900
  H       -3.5121970    -2.1531960    -0.4899990
  H       -3.5122590     2.1531330    -0.4901070
  H       -4.6433520    -0.0000610    -1.0178180
units angstrom
no_reorient  #important for SAPT in psi4, default
symmetry c1  #important for SAPT in psi4, default
}

set PROPERTIES_ORIGIN ["COM"]

basis mybas {
    assign aug-cc-pvtz
    assign I aug-cc-pvtz-pp
}
properties('MP2/mybas', properties = ['dipole'])
--------------------------------------------------------------------------

    Molecular point group: c1
  Charge       = 0
  Multiplicity = 1
  Basis Set: MYBAS
    Blend: AUG-CC-PVTZ + AUG-CC-PVTZ-PP
  Basis Set: (MYBAS AUX)
    Blend: AUG-CC-PVTZ-JKFIT + DEF2-UNIVERSAL-JKFIT

    Orbital Energies [Eh]
    ---------------------

    Doubly Occupied:

       1A    -11.292413     2A    -11.259019     3A    -11.245227
       4A    -11.245018     5A    -11.243737     6A    -11.243618
       7A    -11.242570     8A     -7.715548     9A     -5.547375
      10A     -5.537630    11A     -5.537629    12A     -2.277207
      13A     -2.272093    14A     -2.272078    15A     -2.261335
      16A     -2.261334    17A     -1.161154    18A     -1.060345
      19A     -1.020893    20A     -0.966918    21A     -0.854247
      22A     -0.834942    23A     -0.794845    24A     -0.699795
      25A     -0.646305    26A     -0.642665    27A     -0.594238
      28A     -0.582502    29A     -0.565534    30A     -0.532669
      31A     -0.499618    32A     -0.498563    33A     -0.473410
      34A     -0.364879    35A     -0.362893    36A     -0.342404
      37A     -0.330436

  @DF-RHF Final Energy:  -563.90138927271107

   => Energetics <=

    Nuclear Repulsion Energy =            432.9261782837370447
    One-Electron Energy =               -1737.0889621337453264
    Two-Electron Energy =                 740.2613945772972102
    Total Energy =                       -563.9013892727110715
  Basis Set: (MYBAS AUX)
    Blend: AUG-CC-PVTZ-RI + DEF2-QZVPP-RI
    Molecular point group: c1

    Geometry (in Angstrom), charge = 0, multiplicity = 1:

       Center              X                  Y                   Z               Mass
    ------------   -----------------  -----------------  -----------------  -----------------
         I            1.603994934991    -0.000006540747    -0.178618985256   126.904471900000
         C           -1.350981065009     0.000032459253     0.657321014744    12.000000000000
         C           -1.996170065009    -1.210057540747     0.360850014744    12.000000000000
         C           -1.996205065009     1.210087459253     0.360789014744    12.000000000000
         C            0.070789434991     0.000064059253     1.231162314744    12.000000000000
         C           -3.262648065009    -1.210575540747    -0.228756985256    12.000000000000
         C           -3.262682065009     1.210540459253    -0.228817985256    12.000000000000
         C           -3.900489065009    -0.000033540747    -0.522366985256    12.000000000000
         H           -1.497356065009    -2.150850540747     0.583138014744     1.007825032230
         H           -1.497418065009     2.150907459253     0.583031014744     1.007825032230
         H            0.166330934991    -0.892882540747     1.900653014744     1.007825032230
         H            0.166326934991     0.893080459253     1.900561014744     1.007825032230
         H           -3.754118065009    -2.153194540747    -0.452727985256     1.007825032230
         H           -3.754180065009     2.153134459253    -0.452835985256     1.007825032230
         H           -4.885273065009    -0.000059540747    -0.980546985256     1.007825032230

  Basis Set: MYBAS
    Blend: AUG-CC-PVTZ + AUG-CC-PVTZ-PP
  Basis Set: (MYBAS AUX)
    Blend: AUG-CC-PVTZ-JKFIT + DEF2-UNIVERSAL-JKFIT
	 Reference Energy          =    -563.9013892727110715 [Eh]
	 Singles Energy            =      -0.0000000000000000 [Eh]
	 Same-Spin Energy          =      -0.3797713227263797 [Eh]
	 Opposite-Spin Energy      =      -1.1406524083756289 [Eh]
	 Correlation Energy        =      -1.5204237311020086 [Eh]
	 Total Energy              =    -565.4218130038130994 [Eh]

	 ================> DF-SCS-MP2 Energies <==================
	-----------------------------------------------------------
	 SCS Same-Spin Scale       =       0.3333333333333333 [-]
	 SCS Opposite-Spin Scale   =       1.2000000000000000 [-]
	 SCS Same-Spin Energy      =      -0.1265904409087932 [Eh]
	 SCS Opposite-Spin Energy  =      -1.3687828900507546 [Eh]
	 SCS Correlation Energy    =      -1.4953733309595478 [Eh]
	 SCS Total Energy          =    -565.3967626036705951 [Eh]
	-----------------------------------------------------------

  Dipole Moment: [D]
     X:    -1.3276      Y:     0.0000      Z:     0.7461     Total:     1.5229

*** Psi4 exiting successfully. Buy a developer a beer!
