                               Psi4 1.4a2.dev612

  ==> Input File <==

--------------------------------------------------------------------------
#psi4
#
memory 32 gb

molecule  {
0 1
  I        1.8459160    -0.0000080    -0.2158900
  C       -1.1090600     0.0000310     0.6200500
  C       -1.7542490    -1.2100590     0.3235790
  C       -1.7542840     1.2100860     0.3235180
  C        0.3863219     0.0000592     1.1262056
  C       -3.0207270    -1.2105770    -0.2660280
  C       -3.0207610     1.2105390    -0.2660890
  C       -3.6585680    -0.0000350    -0.5596380
  H       -1.2554350    -2.1508520     0.5458670
  H       -1.2554970     2.1509060     0.5457600
  H        0.4082520    -0.8928840     1.8633820
  H        0.4082480     0.8930790     1.8632900
  H       -3.5121970    -2.1531960    -0.4899990
  H       -3.5122590     2.1531330    -0.4901070
  H       -4.6433520    -0.0000610    -1.0178180
units angstrom
no_reorient  #important for SAPT in psi4, default
symmetry c1  #important for SAPT in psi4, default
}

set PROPERTIES_ORIGIN ["COM"]

basis mybas {
    assign aug-cc-pvtz
    assign I aug-cc-pvtz-pp
}
properties('MP2/mybas', properties = ['dipole'])
--------------------------------------------------------------------------

    Molecular point group: c1
  Charge       = 0
  Multiplicity = 1
  Basis Set: MYBAS
    Blend: AUG-CC-PVTZ + AUG-CC-PVTZ-PP
  Basis Set: (MYBAS AUX)
    Blend: AUG-CC-PVTZ-JKFIT + DEF2-UNIVERSAL-JKFIT

    Orbital Energies [Eh]
    ---------------------

    Doubly Occupied:

       1A    -11.293868     2A    -11.260314     3A    -11.244131
       4A    -11.243913     5A    -11.242378     6A    -11.242295
       7A    -11.241335     8A     -7.720440     9A     -5.552635
      10A     -5.542524    11A     -5.542503    12A     -2.283375
      13A     -2.277321    14A     -2.277321    15A     -2.266248
      16A     -2.266247    17A     -1.158433    18A     -1.057080
      19A     -1.019557    20A     -0.975713    21A     -0.852415
      22A     -0.832799    23A     -0.789929    24A     -0.696974
      25A     -0.639940    26A     -0.638083    27A     -0.592847
      28A     -0.575029    29A     -0.553191    30A     -0.538617
      31A     -0.497107    32A     -0.492721    33A     -0.487123
      34A     -0.363868    35A     -0.362541    36A     -0.341337
      37A     -0.332524

  @DF-RHF Final Energy:  -563.88103446917034

   => Energetics <=

    Nuclear Repulsion Energy =            433.9029395601096439
    One-Electron Energy =               -1738.9785992747715682
    Two-Electron Energy =                 741.1946252454915793
    Total Energy =                       -563.8810344691703449
  Basis Set: (MYBAS AUX)
    Blend: AUG-CC-PVTZ-RI + DEF2-QZVPP-RI
    Molecular point group: c1

    Geometry (in Angstrom), charge = 0, multiplicity = 1:

       Center              X                  Y                   Z               Mass
    ------------   -----------------  -----------------  -----------------  -----------------
         I            1.599942173699    -0.000006353556    -0.174892470273   126.904471900000
         C           -1.355033826301     0.000032646444     0.661047529727    12.000000000000
         C           -2.000222826301    -1.210057353556     0.364576529727    12.000000000000
         C           -2.000257826301     1.210087646444     0.364515529727    12.000000000000
         C            0.140348073699     0.000060846444     1.167203129727    12.000000000000
         C           -3.266700826301    -1.210575353556    -0.225030470273    12.000000000000
         C           -3.266734826301     1.210540646444    -0.225091470273    12.000000000000
         C           -3.904541826301    -0.000033353556    -0.518640470273    12.000000000000
         H           -1.501408826301    -2.150850353556     0.586864529727     1.007825032230
         H           -1.501470826301     2.150907646444     0.586757529727     1.007825032230
         H            0.162278173699    -0.892882353556     1.904379529727     1.007825032230
         H            0.162274173699     0.893080646444     1.904287529727     1.007825032230
         H           -3.758170826301    -2.153194353556    -0.449001470273     1.007825032230
         H           -3.758232826301     2.153134646444    -0.449109470273     1.007825032230
         H           -4.889325826301    -0.000059353556    -0.976820470273     1.007825032230

  Basis Set: MYBAS
    Blend: AUG-CC-PVTZ + AUG-CC-PVTZ-PP
  Basis Set: (MYBAS AUX)
    Blend: AUG-CC-PVTZ-JKFIT + DEF2-UNIVERSAL-JKFIT
	 Reference Energy          =    -563.8810344691703449 [Eh]
	 Singles Energy            =      -0.0000000000000000 [Eh]
	 Same-Spin Energy          =      -0.3809295627982054 [Eh]
	 Opposite-Spin Energy      =      -1.1426867040328106 [Eh]
	 Correlation Energy        =      -1.5236162668310160 [Eh]
	 Total Energy              =    -565.4046507360013720 [Eh]

	 ================> DF-SCS-MP2 Energies <==================
	-----------------------------------------------------------
	 SCS Same-Spin Scale       =       0.3333333333333333 [-]
	 SCS Opposite-Spin Scale   =       1.2000000000000000 [-]
	 SCS Same-Spin Energy      =      -0.1269765209327351 [Eh]
	 SCS Opposite-Spin Energy  =      -1.3712240448393727 [Eh]
	 SCS Correlation Energy    =      -1.4982005657721078 [Eh]
	 SCS Total Energy          =    -565.3792350349424396 [Eh]
	-----------------------------------------------------------

  Dipole Moment: [D]
     X:    -1.1135      Y:     0.0000      Z:     0.6243     Total:     1.2766

*** Psi4 exiting successfully. Buy a developer a beer!
