                               Psi4 1.4a2.dev612

  ==> Input File <==

--------------------------------------------------------------------------
#psi4
#
memory 32 gb

molecule  {
0 1
  I        1.8965000    -0.0000050    -0.1589129
  C       -1.1090600     0.0000310     0.6200500
  C       -1.7542490    -1.2100590     0.3235790
  C       -1.7542840     1.2100860     0.3235180
  C        0.2390990     0.0000660     1.2615770
  C       -3.0207270    -1.2105770    -0.2660280
  C       -3.0207610     1.2105390    -0.2660890
  C       -3.6585680    -0.0000350    -0.5596380
  H       -1.2554350    -2.1508520     0.5458670
  H       -1.2554970     2.1509060     0.5457600
  H        0.4082520    -0.8928840     1.8633820
  H        0.4082480     0.8930790     1.8632900
  H       -3.5121970    -2.1531960    -0.4899990
  H       -3.5122590     2.1531330    -0.4901070
  H       -4.6433520    -0.0000610    -1.0178180
units angstrom
no_reorient  #important for SAPT in psi4, default
symmetry c1  #important for SAPT in psi4, default
}

set PROPERTIES_ORIGIN ["COM"]

basis mybas {
    assign aug-cc-pvtz
    assign I aug-cc-pvtz-pp
}
properties('MP2/mybas', properties = ['dipole'])
--------------------------------------------------------------------------

    Molecular point group: c1
  Charge       = 0
  Multiplicity = 1
  Basis Set: MYBAS
    Blend: AUG-CC-PVTZ + AUG-CC-PVTZ-PP
  Basis Set: (MYBAS AUX)
    Blend: AUG-CC-PVTZ-JKFIT + DEF2-UNIVERSAL-JKFIT

    Orbital Energies [Eh]
    ---------------------

    Doubly Occupied:

       1A    -11.293899     2A    -11.259340     3A    -11.247646
       4A    -11.247528     5A    -11.246649     6A    -11.246253
       7A    -11.245291     8A     -7.708982     9A     -5.540443
      10A     -5.531134    11A     -5.531125    12A     -2.269647
      13A     -2.265221    14A     -2.265213    15A     -2.254915
      16A     -2.254915    17A     -1.165321    18A     -1.065844
      19A     -1.023503    20A     -0.962654    21A     -0.853634
      22A     -0.838372    23A     -0.799524    24A     -0.704113
      25A     -0.655056    26A     -0.649036    27A     -0.596950
      28A     -0.590698    29A     -0.577574    30A     -0.529759
      31A     -0.507746    32A     -0.501232    33A     -0.457881
      34A     -0.362069    35A     -0.360339    36A     -0.344407
      37A     -0.328800

  @DF-RHF Final Energy:  -563.90812593481746

   => Energetics <=

    Nuclear Repulsion Energy =            430.8378177449606028
    One-Electron Energy =               -1732.9264609926824505
    Two-Electron Energy =                 738.1805173129043851
    Total Energy =                       -563.9081259348174626
  Basis Set: (MYBAS AUX)
    Blend: AUG-CC-PVTZ-RI + DEF2-QZVPP-RI
    Molecular point group: c1

    Geometry (in Angstrom), charge = 0, multiplicity = 1:

       Center              X                  Y                   Z               Mass
    ------------   -----------------  -----------------  -----------------  -----------------
         I            1.629179701513    -0.000005474656    -0.158542715535   126.904471900000
         C           -1.376380298487     0.000030525344     0.620420184465    12.000000000000
         C           -2.021569298487    -1.210059474656     0.323949184465    12.000000000000
         C           -2.021604298487     1.210085525344     0.323888184465    12.000000000000
         C           -0.028221298487     0.000065525344     1.261947184465    12.000000000000
         C           -3.288047298487    -1.210577474656    -0.265657815535    12.000000000000
         C           -3.288081298487     1.210538525344    -0.265718815535    12.000000000000
         C           -3.925888298487    -0.000035474656    -0.559267815535    12.000000000000
         H           -1.522755298487    -2.150852474656     0.546237184465     1.007825032230
         H           -1.522817298487     2.150905525344     0.546130184465     1.007825032230
         H            0.140931701513    -0.892884474656     1.863752184465     1.007825032230
         H            0.140927701513     0.893078525344     1.863660184465     1.007825032230
         H           -3.779517298487    -2.153196474656    -0.489628815535     1.007825032230
         H           -3.779579298487     2.153132525344    -0.489736815535     1.007825032230
         H           -4.910672298487    -0.000061474656    -1.017447815535     1.007825032230

  Basis Set: MYBAS
    Blend: AUG-CC-PVTZ + AUG-CC-PVTZ-PP
  Basis Set: (MYBAS AUX)
    Blend: AUG-CC-PVTZ-JKFIT + DEF2-UNIVERSAL-JKFIT
	 Reference Energy          =    -563.9081259348174626 [Eh]
	 Singles Energy            =      -0.0000000000000000 [Eh]
	 Same-Spin Energy          =      -0.3790883449802094 [Eh]
	 Opposite-Spin Energy      =      -1.1392313322253456 [Eh]
	 Correlation Energy        =      -1.5183196772055549 [Eh]
	 Total Energy              =    -565.4264456120230307 [Eh]

	 ================> DF-SCS-MP2 Energies <==================
	-----------------------------------------------------------
	 SCS Same-Spin Scale       =       0.3333333333333333 [-]
	 SCS Opposite-Spin Scale   =       1.2000000000000000 [-]
	 SCS Same-Spin Energy      =      -0.1263627816600698 [Eh]
	 SCS Opposite-Spin Energy  =      -1.3670775986704147 [Eh]
	 SCS Correlation Energy    =      -1.4934403803304845 [Eh]
	 SCS Total Energy          =    -565.4015663151479885 [Eh]
	-----------------------------------------------------------

  Dipole Moment: [D]
     X:    -1.6868      Y:     0.0000      Z:     0.8470     Total:     1.8875

*** Psi4 exiting successfully. Buy a developer a beer!
