                               Psi4 1.3.2 release

  ==> Input File <==

--------------------------------------------------------------------------
#psi4
#
memory 32 gb

molecule  {
0 1
  S        1.0039920    -1.8370330     0.0416350
  C       -0.5663001    -0.0054585    -0.2170679
  C        0.8344880    -0.0270290     0.3757450
  C       -0.7993060    -1.5368490    -0.1403280
  C       -1.6389980     0.8445570     0.4478430
  C        1.8965050     0.8563820    -0.2511320
  C       -3.0139260     0.6977340    -0.2008490
  C        1.6197410     2.3450710    -0.0456480
  H       -0.4989150     0.2672930    -1.2933800
  H        0.7896660     0.1408860     1.4600880
  H       -1.3425120    -1.8245460     0.7655480
  H       -1.2523250    -2.0240820    -1.0064780
  H       -1.3288740     1.8959250     0.4270340
  H       -1.6941720     0.5567670     1.5060070
  H        2.8729810     0.5983550     0.1779310
  H        1.9538560     0.6259360    -1.3212150
  H       -2.9803430     0.9928380    -1.2542670
  H       -3.7577360     1.3235000     0.3006380
  H       -3.3631330    -0.3381970    -0.1530850
  H        0.6957430     2.6486760    -0.5454840
  H        2.4328210     2.9512940    -0.4556920
  H        1.5246440     2.5856330     1.0178510
units angstrom
no_reorient  #important for SAPT in psi4, default
symmetry c1  #important for SAPT in psi4, default
}

set PROPERTIES_ORIGIN ["COM"]
properties('MP2/aug-cc-pvtz', properties = ['dipole'])
--------------------------------------------------------------------------

    Molecular point group: c1
  Charge       = 0
  Multiplicity = 1
  Basis Set: AUG-CC-PVTZ
    Blend: AUG-CC-PVTZ
  Basis Set: (AUG-CC-PVTZ AUX)
    Blend: AUG-CC-PVTZ-JKFIT

    Orbital Energies [Eh]
    ---------------------

    Doubly Occupied:

       1A    -91.935077     2A    -11.256532     3A    -11.252862
       4A    -11.239529     5A    -11.226922     6A    -11.225577
       7A    -11.220626     8A    -11.219603     9A     -8.935515
      10A     -6.616314    11A     -6.615973    12A     -6.614729
      13A     -1.149405    14A     -1.050440    15A     -1.026501
      16A     -0.918669    17A     -0.909556    18A     -0.831930
      19A     -0.807184    20A     -0.745819    21A     -0.649810
      22A     -0.632855    23A     -0.600923    24A     -0.597059
      25A     -0.571037    26A     -0.557019    27A     -0.539087
      28A     -0.530507    29A     -0.519320    30A     -0.502135
      31A     -0.485258    32A     -0.468712    33A     -0.459345
      34A     -0.437361    35A     -0.394298    36A     -0.331246

  @DF-RHF Final Energy:  -670.85268360649843

   => Energetics <=

    Nuclear Repulsion Energy =            468.3536274633590892
    One-Electron Energy =               -1848.2631529660477554
    Two-Electron Energy =                 709.0568418961902353
    Total Energy =                       -670.8526836064984309
  Basis Set: (AUG-CC-PVTZ AUX)
    Blend: AUG-CC-PVTZ-RI
    Molecular point group: c1

    Geometry (in Angstrom), charge = 0, multiplicity = 1:

       Center              X                  Y                   Z               Mass
    ------------   -----------------  -----------------  -----------------  -----------------
         S            0.957165201756    -1.758934347875     0.037203321872    31.972071174400
         C           -0.613126898244     0.072640152125    -0.221499578128    12.000000000000
         C            0.787661201756     0.051069652125     0.371313321872    12.000000000000
         C           -0.846132798244    -1.458750347875    -0.144759678128    12.000000000000
         C           -1.685824798244     0.922655652125     0.443411321872    12.000000000000
         C            1.849678201756     0.934480652125    -0.255563678128    12.000000000000
         C           -3.060752798244     0.775832652125    -0.205280678128    12.000000000000
         C            1.572914201756     2.423169652125    -0.050079678128    12.000000000000
         H           -0.545741798244     0.345391652125    -1.297811678128     1.007825032230
         H            0.742839201756     0.218984652125     1.455656321872     1.007825032230
         H           -1.389338798244    -1.746447347875     0.761116321872     1.007825032230
         H           -1.299151798244    -1.945983347875    -1.010909678128     1.007825032230
         H           -1.375700798244     1.974023652125     0.422602321872     1.007825032230
         H           -1.740998798244     0.634865652125     1.501575321872     1.007825032230
         H            2.826154201756     0.676453652125     0.173499321872     1.007825032230
         H            1.907029201756     0.704034652125    -1.325646678128     1.007825032230
         H           -3.027169798244     1.070936652125    -1.258698678128     1.007825032230
         H           -3.804562798244     1.401598652125     0.296206321872     1.007825032230
         H           -3.409959798244    -0.260098347875    -0.157516678128     1.007825032230
         H            0.648916201756     2.726774652125    -0.549915678128     1.007825032230
         H            2.385994201756     3.029392652125    -0.460123678128     1.007825032230
         H            1.477817201756     2.663731652125     1.013419321872     1.007825032230

  Basis Set: AUG-CC-PVTZ
    Blend: AUG-CC-PVTZ
  Basis Set: (AUG-CC-PVTZ AUX)
    Blend: AUG-CC-PVTZ-JKFIT
	 Reference Energy          =    -670.8526836064984309 [Eh]
	 Singles Energy            =      -0.0000000000000000 [Eh]
	 Same-Spin Energy          =      -0.3558867627594663 [Eh]
	 Opposite-Spin Energy      =      -1.2392703635505109 [Eh]
	 Correlation Energy        =      -1.5951571263099771 [Eh]
	 Total Energy              =    -672.4478407328084586 [Eh]

	 ================> DF-SCS-MP2 Energies <==================
	-----------------------------------------------------------
	 SCS Same-Spin Scale       =       0.3333333333333333 [-]
	 SCS Opposite-Spin Scale   =       1.2000000000000000 [-]
	 SCS Same-Spin Energy      =      -0.1186289209198221 [Eh]
	 SCS Opposite-Spin Energy  =      -1.4871244362606131 [Eh]
	 SCS Correlation Energy    =      -1.6057533571804352 [Eh]
	 SCS Total Energy          =    -672.4584369636788779 [Eh]
	-----------------------------------------------------------

  Dipole Moment: [D]
     X:    -1.2801      Y:     1.7681      Z:     0.0438     Total:     2.1833

*** Psi4 exiting successfully. Buy a developer a beer!
