                               Psi4 1.3.2 release

  ==> Input File <==

--------------------------------------------------------------------------
#psi4
#
memory 32 gb

molecule  {
0 1
  S        1.0039920    -1.8370330     0.0416350
  C       -0.5844320    -0.0144930    -0.2342400
  C        1.0261613    -0.0242515     0.4019226
  C       -0.7993060    -1.5368490    -0.1403280
  C       -1.6389980     0.8445570     0.4478430
  C        1.8965050     0.8563820    -0.2511320
  C       -3.0139260     0.6977340    -0.2008490
  C        1.6197410     2.3450710    -0.0456480
  H       -0.4989150     0.2672930    -1.2933800
  H        0.7896660     0.1408860     1.4600880
  H       -1.3425120    -1.8245460     0.7655480
  H       -1.2523250    -2.0240820    -1.0064780
  H       -1.3288740     1.8959250     0.4270340
  H       -1.6941720     0.5567670     1.5060070
  H        2.8729810     0.5983550     0.1779310
  H        1.9538560     0.6259360    -1.3212150
  H       -2.9803430     0.9928380    -1.2542670
  H       -3.7577360     1.3235000     0.3006380
  H       -3.3631330    -0.3381970    -0.1530850
  H        0.6957430     2.6486760    -0.5454840
  H        2.4328210     2.9512940    -0.4556920
  H        1.5246440     2.5856330     1.0178510
units angstrom
no_reorient  #important for SAPT in psi4, default
symmetry c1  #important for SAPT in psi4, default
}

set PROPERTIES_ORIGIN ["COM"]
properties('MP2/aug-cc-pvtz', properties = ['dipole'])
--------------------------------------------------------------------------

    Molecular point group: c1
  Charge       = 0
  Multiplicity = 1
  Basis Set: AUG-CC-PVTZ
    Blend: AUG-CC-PVTZ
  Basis Set: (AUG-CC-PVTZ AUX)
    Blend: AUG-CC-PVTZ-JKFIT

    Orbital Energies [Eh]
    ---------------------

    Doubly Occupied:

       1A    -91.939137     2A    -11.259535     3A    -11.252445
       4A    -11.243894     5A    -11.226145     6A    -11.222591
       7A    -11.220418     8A    -11.219920     9A     -8.938804
      10A     -6.619618    11A     -6.619334    12A     -6.618130
      13A     -1.135732    14A     -1.064025    15A     -1.025824
      16A     -0.927880    17A     -0.901256    18A     -0.839556
      19A     -0.794729    20A     -0.746641    21A     -0.647578
      22A     -0.631292    23A     -0.598928    24A     -0.597958
      25A     -0.576907    26A     -0.567174    27A     -0.537939
      28A     -0.526729    29A     -0.518643    30A     -0.503469
      31A     -0.498213    32A     -0.472759    33A     -0.462049
      34A     -0.424063    35A     -0.369562    36A     -0.329740

  @DF-RHF Final Energy:  -670.82323956674406

   => Energetics <=

    Nuclear Repulsion Energy =            466.6734908800159474
    One-Electron Energy =               -1844.8362253636546484
    Two-Electron Energy =                 707.3394949168947505
    Total Energy =                       -670.8232395667440642
  Basis Set: (AUG-CC-PVTZ AUX)
    Blend: AUG-CC-PVTZ-RI
    Molecular point group: c1

    Geometry (in Angstrom), charge = 0, multiplicity = 1:

       Center              X                  Y                   Z               Mass
    ------------   -----------------  -----------------  -----------------  -----------------
         S            0.941156047088    -1.758357141049     0.036372566545    31.972071174400
         C           -0.647267952912     0.064182858951    -0.239502433455    12.000000000000
         C            0.963325347088     0.054424358951     0.396660166545    12.000000000000
         C           -0.862141952912    -1.458173141049    -0.145590433455    12.000000000000
         C           -1.701833952912     0.923232858951     0.442580566545    12.000000000000
         C            1.833669047088     0.935057858951    -0.256394433455    12.000000000000
         C           -3.076761952912     0.776409858951    -0.206111433455    12.000000000000
         C            1.556905047088     2.423746858951    -0.050910433455    12.000000000000
         H           -0.561750952912     0.345968858951    -1.298642433455     1.007825032230
         H            0.726830047088     0.219561858951     1.454825566545     1.007825032230
         H           -1.405347952912    -1.745870141049     0.760285566545     1.007825032230
         H           -1.315160952912    -1.945406141049    -1.011740433455     1.007825032230
         H           -1.391709952912     1.974600858951     0.421771566545     1.007825032230
         H           -1.757007952912     0.635442858951     1.500744566545     1.007825032230
         H            2.810145047088     0.677030858951     0.172668566545     1.007825032230
         H            1.891020047088     0.704611858951    -1.326477433455     1.007825032230
         H           -3.043178952912     1.071513858951    -1.259529433455     1.007825032230
         H           -3.820571952912     1.402175858951     0.295375566545     1.007825032230
         H           -3.425968952912    -0.259521141049    -0.158347433455     1.007825032230
         H            0.632907047088     2.727351858951    -0.550746433455     1.007825032230
         H            2.369985047088     3.029969858951    -0.460954433455     1.007825032230
         H            1.461808047088     2.664308858951     1.012588566545     1.007825032230

  Basis Set: AUG-CC-PVTZ
    Blend: AUG-CC-PVTZ
  Basis Set: (AUG-CC-PVTZ AUX)
    Blend: AUG-CC-PVTZ-JKFIT
	 Reference Energy          =    -670.8232395667440642 [Eh]
	 Singles Energy            =      -0.0000000000000000 [Eh]
	 Same-Spin Energy          =      -0.3571991430089049 [Eh]
	 Opposite-Spin Energy      =      -1.2418696384895664 [Eh]
	 Correlation Energy        =      -1.5990687814984714 [Eh]
	 Total Energy              =    -672.4223083482424954 [Eh]

	 ================> DF-SCS-MP2 Energies <==================
	-----------------------------------------------------------
	 SCS Same-Spin Scale       =       0.3333333333333333 [-]
	 SCS Opposite-Spin Scale   =       1.2000000000000000 [-]
	 SCS Same-Spin Energy      =      -0.1190663810029683 [Eh]
	 SCS Opposite-Spin Energy  =      -1.4902435661874798 [Eh]
	 SCS Correlation Energy    =      -1.6093099471904482 [Eh]
	 SCS Total Energy          =    -672.4325495139345321 [Eh]
	-----------------------------------------------------------

  Dipole Moment: [D]
     X:    -1.2572      Y:     1.8894      Z:     0.0178     Total:     2.2695

*** Psi4 exiting successfully. Buy a developer a beer!
