                               Psi4 1.3.2 release

  ==> Input File <==

--------------------------------------------------------------------------
#psi4
#
memory 32 gb

molecule  {
0 1
  S        1.0039920    -1.8370330     0.0416350
  C       -0.5844320    -0.0144930    -0.2342400
  C        0.7781246     0.0752619     0.4875330
  C       -0.7993060    -1.5368490    -0.1403280
  C       -1.6389980     0.8445570     0.4478430
  C        1.8965050     0.8563820    -0.2511320
  C       -3.0139260     0.6977340    -0.2008490
  C        1.6197410     2.3450710    -0.0456480
  H       -0.4989150     0.2672930    -1.2933800
  H        0.7896660     0.1408860     1.4600880
  H       -1.3425120    -1.8245460     0.7655480
  H       -1.2523250    -2.0240820    -1.0064780
  H       -1.3288740     1.8959250     0.4270340
  H       -1.6941720     0.5567670     1.5060070
  H        2.8729810     0.5983550     0.1779310
  H        1.9538560     0.6259360    -1.3212150
  H       -2.9803430     0.9928380    -1.2542670
  H       -3.7577360     1.3235000     0.3006380
  H       -3.3631330    -0.3381970    -0.1530850
  H        0.6957430     2.6486760    -0.5454840
  H        2.4328210     2.9512940    -0.4556920
  H        1.5246440     2.5856330     1.0178510
units angstrom
no_reorient  #important for SAPT in psi4, default
symmetry c1  #important for SAPT in psi4, default
}

set PROPERTIES_ORIGIN ["COM"]
properties('MP2/aug-cc-pvtz', properties = ['dipole'])
--------------------------------------------------------------------------

    Molecular point group: c1
  Charge       = 0
  Multiplicity = 1
  Basis Set: AUG-CC-PVTZ
    Blend: AUG-CC-PVTZ
  Basis Set: (AUG-CC-PVTZ AUX)
    Blend: AUG-CC-PVTZ-JKFIT

    Orbital Energies [Eh]
    ---------------------

    Doubly Occupied:

       1A    -91.929021     2A    -11.260227     3A    -11.250829
       4A    -11.242768     5A    -11.230957     6A    -11.226066
       7A    -11.219309     8A    -11.219266     9A     -8.928547
      10A     -6.609293    11A     -6.608798    12A     -6.607689
      13A     -1.141680    14A     -1.050324    15A     -1.022310
      16A     -0.922989    17A     -0.903577    18A     -0.827321
      19A     -0.806522    20A     -0.769630    21A     -0.650660
      22A     -0.635836    23A     -0.599705    24A     -0.597566
      25A     -0.582586    26A     -0.551085    27A     -0.539515
      28A     -0.534735    29A     -0.520191    30A     -0.500207
      31A     -0.495058    32A     -0.480270    33A     -0.455441
      34A     -0.426512    35A     -0.373538    36A     -0.327154

  @DF-RHF Final Energy:  -670.83048450081083

   => Energetics <=

    Nuclear Repulsion Energy =            466.7858017213075073
    One-Electron Energy =               -1845.1382146917937916
    Two-Electron Energy =                 707.5219284696754585
    Total Energy =                       -670.8304845008108259
  Basis Set: (AUG-CC-PVTZ AUX)
    Blend: AUG-CC-PVTZ-RI
    Molecular point group: c1

    Geometry (in Angstrom), charge = 0, multiplicity = 1:

       Center              X                  Y                   Z               Mass
    ------------   -----------------  -----------------  -----------------  -----------------
         S            0.964037376232    -1.767537229558     0.028475026623    31.972071174400
         C           -0.624386623768     0.055002770442    -0.247399973377    12.000000000000
         C            0.738169976232     0.144757670442     0.474373026623    12.000000000000
         C           -0.839260623768    -1.467353229558    -0.153487973377    12.000000000000
         C           -1.678952623768     0.914052770442     0.434683026623    12.000000000000
         C            1.856550376232     0.925877770442    -0.264291973377    12.000000000000
         C           -3.053880623768     0.767229770442    -0.214008973377    12.000000000000
         C            1.579786376232     2.414566770442    -0.058807973377    12.000000000000
         H           -0.538869623768     0.336788770442    -1.306539973377     1.007825032230
         H            0.749711376232     0.210381770442     1.446928026623     1.007825032230
         H           -1.382466623768    -1.755050229558     0.752388026623     1.007825032230
         H           -1.292279623768    -1.954586229558    -1.019637973377     1.007825032230
         H           -1.368828623768     1.965420770442     0.413874026623     1.007825032230
         H           -1.734126623768     0.626262770442     1.492847026623     1.007825032230
         H            2.833026376232     0.667850770442     0.164771026623     1.007825032230
         H            1.913901376232     0.695431770442    -1.334374973377     1.007825032230
         H           -3.020297623768     1.062333770442    -1.267426973377     1.007825032230
         H           -3.797690623768     1.392995770442     0.287478026623     1.007825032230
         H           -3.403087623768    -0.268701229558    -0.166244973377     1.007825032230
         H            0.655788376232     2.718171770442    -0.558643973377     1.007825032230
         H            2.392866376232     3.020789770442    -0.468851973377     1.007825032230
         H            1.484689376232     2.655128770442     1.004691026623     1.007825032230

  Basis Set: AUG-CC-PVTZ
    Blend: AUG-CC-PVTZ
  Basis Set: (AUG-CC-PVTZ AUX)
    Blend: AUG-CC-PVTZ-JKFIT
	 Reference Energy          =    -670.8304845008108259 [Eh]
	 Singles Energy            =      -0.0000000000000000 [Eh]
	 Same-Spin Energy          =      -0.3556729397917957 [Eh]
	 Opposite-Spin Energy      =      -1.2403678192629695 [Eh]
	 Correlation Energy        =      -1.5960407590547652 [Eh]
	 Total Energy              =    -672.4265252598655707 [Eh]

	 ================> DF-SCS-MP2 Energies <==================
	-----------------------------------------------------------
	 SCS Same-Spin Scale       =       0.3333333333333333 [-]
	 SCS Opposite-Spin Scale   =       1.2000000000000000 [-]
	 SCS Same-Spin Energy      =      -0.1185576465972652 [Eh]
	 SCS Opposite-Spin Energy  =      -1.4884413831155634 [Eh]
	 SCS Correlation Energy    =      -1.6069990297128287 [Eh]
	 SCS Total Energy          =    -672.4374835305236502 [Eh]
	-----------------------------------------------------------

  Dipole Moment: [D]
     X:    -1.2351      Y:     1.9560      Z:     0.0606     Total:     2.3141

*** Psi4 exiting successfully. Buy a developer a beer!
