                               Psi4 1.3.2 release

  ==> Input File <==

--------------------------------------------------------------------------
#psi4
#
memory 32 gb

molecule  {
0 1
  S        1.0039920    -1.8370330     0.0416350
  C       -0.5844320    -0.0144930    -0.2342400
  C        0.9621933    -0.0229675     0.3936221
  C       -0.7993060    -1.5368490    -0.1403280
  C       -1.6389980     0.8445570     0.4478430
  C        1.8965050     0.8563820    -0.2511320
  C       -3.0139260     0.6977340    -0.2008490
  C        1.6197410     2.3450710    -0.0456480
  H       -0.4989150     0.2672930    -1.2933800
  H        0.7896660     0.1408860     1.4600880
  H       -1.3425120    -1.8245460     0.7655480
  H       -1.2523250    -2.0240820    -1.0064780
  H       -1.3288740     1.8959250     0.4270340
  H       -1.6941720     0.5567670     1.5060070
  H        2.8729810     0.5983550     0.1779310
  H        1.9538560     0.6259360    -1.3212150
  H       -2.9803430     0.9928380    -1.2542670
  H       -3.7577360     1.3235000     0.3006380
  H       -3.3631330    -0.3381970    -0.1530850
  H        0.6957430     2.6486760    -0.5454840
  H        2.4328210     2.9512940    -0.4556920
  H        1.5246440     2.5856330     1.0178510
units angstrom
no_reorient  #important for SAPT in psi4, default
symmetry c1  #important for SAPT in psi4, default
}

set PROPERTIES_ORIGIN ["COM"]
properties('MP2/aug-cc-pvtz', properties = ['dipole'])
--------------------------------------------------------------------------

    Molecular point group: c1
  Charge       = 0
  Multiplicity = 1
  Basis Set: AUG-CC-PVTZ
    Blend: AUG-CC-PVTZ
  Basis Set: (AUG-CC-PVTZ AUX)
    Blend: AUG-CC-PVTZ-JKFIT

    Orbital Energies [Eh]
    ---------------------

    Doubly Occupied:

       1A    -91.937491     2A    -11.257924     3A    -11.252337
       4A    -11.242945     5A    -11.226370     6A    -11.222062
       7A    -11.221314     8A    -11.220017     9A     -8.937438
      10A     -6.618251    11A     -6.617945    12A     -6.616733
      13A     -1.138076    14A     -1.059492    15A     -1.026125
      16A     -0.924226    17A     -0.903620    18A     -0.837149
      19A     -0.798196    20A     -0.747110    21A     -0.648199
      22A     -0.631142    23A     -0.599145    24A     -0.597900
      25A     -0.574595    26A     -0.563210    27A     -0.538663
      28A     -0.527680    29A     -0.518553    30A     -0.502224
      31A     -0.494291    32A     -0.472969    33A     -0.460083
      34A     -0.428975    35A     -0.379787    36A     -0.331197

  @DF-RHF Final Energy:  -670.83961135002778

   => Energetics <=

    Nuclear Repulsion Energy =            467.1501195071814436
    One-Electron Energy =               -1845.8325920347801912
    Two-Electron Energy =                 707.8428611775709669
    Total Energy =                       -670.8396113500277806
  Basis Set: (AUG-CC-PVTZ AUX)
    Blend: AUG-CC-PVTZ-RI
    Molecular point group: c1

    Geometry (in Angstrom), charge = 0, multiplicity = 1:

       Center              X                  Y                   Z               Mass
    ------------   -----------------  -----------------  -----------------  -----------------
         S            0.947057080535    -1.758475589757     0.037138285782    31.972071174400
         C           -0.641366919465     0.064064410243    -0.238736714218    12.000000000000
         C            0.905258380535     0.055589910243     0.389125385782    12.000000000000
         C           -0.856240919465    -1.458291589757    -0.144824714218    12.000000000000
         C           -1.695932919465     0.923114410243     0.443346285782    12.000000000000
         C            1.839570080535     0.934939410243    -0.255628714218    12.000000000000
         C           -3.070860919465     0.776291410243    -0.205345714218    12.000000000000
         C            1.562806080535     2.423628410243    -0.050144714218    12.000000000000
         H           -0.555849919465     0.345850410243    -1.297876714218     1.007825032230
         H            0.732731080535     0.219443410243     1.455591285782     1.007825032230
         H           -1.399446919465    -1.745988589757     0.761051285782     1.007825032230
         H           -1.309259919465    -1.945524589757    -1.010974714218     1.007825032230
         H           -1.385808919465     1.974482410243     0.422537285782     1.007825032230
         H           -1.751106919465     0.635324410243     1.501510285782     1.007825032230
         H            2.816046080535     0.676912410243     0.173434285782     1.007825032230
         H            1.896921080535     0.704493410243    -1.325711714218     1.007825032230
         H           -3.037277919465     1.071395410243    -1.258763714218     1.007825032230
         H           -3.814670919465     1.402057410243     0.296141285782     1.007825032230
         H           -3.420067919465    -0.259639589757    -0.157581714218     1.007825032230
         H            0.638808080535     2.727233410243    -0.549980714218     1.007825032230
         H            2.375886080535     3.029851410243    -0.460188714218     1.007825032230
         H            1.467709080535     2.664190410243     1.013354285782     1.007825032230

  Basis Set: AUG-CC-PVTZ
    Blend: AUG-CC-PVTZ
  Basis Set: (AUG-CC-PVTZ AUX)
    Blend: AUG-CC-PVTZ-JKFIT
	 Reference Energy          =    -670.8396113500277806 [Eh]
	 Singles Energy            =      -0.0000000000000000 [Eh]
	 Same-Spin Energy          =      -0.3563414911678300 [Eh]
	 Opposite-Spin Energy      =      -1.2403151465851052 [Eh]
	 Correlation Energy        =      -1.5966566377529352 [Eh]
	 Total Energy              =    -672.4362679877807523 [Eh]

	 ================> DF-SCS-MP2 Energies <==================
	-----------------------------------------------------------
	 SCS Same-Spin Scale       =       0.3333333333333333 [-]
	 SCS Opposite-Spin Scale   =       1.2000000000000000 [-]
	 SCS Same-Spin Energy      =      -0.1187804970559433 [Eh]
	 SCS Opposite-Spin Energy  =      -1.4883781759021262 [Eh]
	 SCS Correlation Energy    =      -1.6071586729580696 [Eh]
	 SCS Total Energy          =    -672.4467700229859020 [Eh]
	-----------------------------------------------------------

  Dipole Moment: [D]
     X:    -1.2619      Y:     1.8538      Z:     0.0277     Total:     2.2427

*** Psi4 exiting successfully. Buy a developer a beer!
